 Gaussian 16, Revision A.03,
 Gaussian 16:  ES64L-G16RevA.03 25-Dec-2016

 ----------------------------------------------------------------------
 #P UB3LYP/6-311++G(d,p) nosym opt freq SCRF=(PCM,Solvent=n,n-DiMethylF
 ormamide)
 ----------------------------------------------------------------------

 --------
 Oxidized
 --------
 Symbolic Z-matrix:
 Charge =  0 Multiplicity = 1

 SCF Done:  E(UB3LYP) =  -799.732114031     A.U. after   14 cycles
 SCF Done:  E(UB3LYP) =  -799.732343858     A.U. after   12 cycles
 SCF Done:  E(UB3LYP) =  -799.732396560     A.U. after   12 cycles
 SCF Done:  E(UB3LYP) =  -799.732384123     A.U. after   11 cycles
 SCF Done:  E(UB3LYP) =  -799.732449940     A.U. after   11 cycles
 SCF Done:  E(UB3LYP) =  -799.732454796     A.U. after    9 cycles
 SCF Done:  E(UB3LYP) =  -799.732460081     A.U. after   10 cycles
 SCF Done:  E(UB3LYP) =  -799.732465275     A.U. after   10 cycles
 SCF Done:  E(UB3LYP) =  -799.732469353     A.U. after   10 cycles
 SCF Done:  E(UB3LYP) =  -799.732474851     A.U. after   10 cycles
 SCF Done:  E(UB3LYP) =  -799.732480174     A.U. after   10 cycles
 SCF Done:  E(UB3LYP) =  -799.732482270     A.U. after   10 cycles
 SCF Done:  E(UB3LYP) =  -799.732483128     A.U. after   10 cycles
 SCF Done:  E(UB3LYP) =  -799.732483171     A.U. after    9 cycles
 SCF Done:  E(UB3LYP) =  -799.732483270     A.U. after    8 cycles
 SCF Done:  E(UB3LYP) =  -799.732483307     A.U. after    7 cycles
 Optimization completed.
    -- Stationary point found.
 Normal termination of Gaussian 16 at Sat Feb 10 16:40:46 2024.

 ----------------------------------------------------------------------
 #P Geom=AllCheck Guess=TCheck SCRF=Check GenChk UB3LYP/6-311++G(d,p) F
 req
 ----------------------------------------------------------------------

 Structure from the checkpoint file:  "166.chk"
 --------
 Oxidized
 --------
 Charge =  0 Multiplicity = 1

                          Input orientation:
 ---------------------------------------------------------------------
 Center     Atomic      Atomic             Coordinates (Angstroms)
 Number     Number       Type             X           Y           Z
 ---------------------------------------------------------------------
      1          7           0       -2.052962    2.877811   -0.033222
      2          6           0       -2.033577    1.526919    0.073484
      3          6           0       -3.286065    0.840472    0.112385
      4          6           0       -3.354674   -0.512300    0.221035
      5          6           0       -2.177893   -1.318364    0.303070
      6          7           0       -2.334026   -2.659996    0.412920
      7          6           0       -0.916113   -0.677051    0.267424
      8          6           0        0.297393   -1.478493    0.347102
      9          8           0        0.278798   -2.722725    0.447073
     10          6           0        1.606427   -0.780021    0.307040
     11          6           0        2.789022   -1.528939    0.384178
     12          6           0        4.024781   -0.897565    0.348969
     13          6           0        4.095717    0.496039    0.235739
     14          6           0        2.930316    1.246341    0.158666
     15          6           0        1.677518    0.618030    0.193474
     16          6           0        0.445737    1.442025    0.110357
     17          8           0        0.553191    2.681636    0.009080
     18          6           0       -0.842958    0.764524    0.150958
     19          1           0       -1.169537    3.370100   -0.073360
     20          1           0       -2.929404    3.368416   -0.103762
     21          1           0       -4.198171    1.424195    0.053806
     22          1           0       -4.321206   -1.003698    0.247427
     23          1           0       -3.256358   -3.063513    0.425005
     24          1           0       -1.505238   -3.238635    0.464296
     25          1           0        2.716455   -2.605272    0.471600
     26          1           0        4.934470   -1.483897    0.409296
     27          1           0        5.060455    0.989487    0.208270
     28          1           0        2.967899    2.324476    0.071018
 ---------------------------------------------------------------------

 SCF Done:  E(UB3LYP) =  -799.732483307     A.U. after    2 cycles

 Alpha  occ. eigenvalues --  -19.11198 -19.11194 -14.33607 -14.33605 -10.26583
 Alpha  occ. eigenvalues --  -10.26579 -10.24512 -10.24508 -10.20059 -10.19989
 Alpha  occ. eigenvalues --  -10.19923 -10.19872 -10.19561 -10.19524 -10.19210
 Alpha  occ. eigenvalues --  -10.19159 -10.18979 -10.18975  -1.04334  -1.04105
 Alpha  occ. eigenvalues --   -0.94911  -0.93954  -0.88186  -0.85039  -0.80710
 Alpha  occ. eigenvalues --   -0.77064  -0.76650  -0.74303  -0.68532  -0.66412
 Alpha  occ. eigenvalues --   -0.65026  -0.61303  -0.58908  -0.57471  -0.56751
 Alpha  occ. eigenvalues --   -0.54031  -0.52677  -0.50577  -0.50095  -0.48424
 Alpha  occ. eigenvalues --   -0.47506  -0.46383  -0.45012  -0.44369  -0.44184
 Alpha  occ. eigenvalues --   -0.43821  -0.42815  -0.40951  -0.40937  -0.40657
 Alpha  occ. eigenvalues --   -0.39308  -0.37189  -0.36611  -0.36571  -0.36042
 Alpha  occ. eigenvalues --   -0.29316  -0.28299  -0.27521  -0.27173  -0.26995
 Alpha  occ. eigenvalues --   -0.26549  -0.20211
 Alpha virt. eigenvalues --   -0.10757  -0.06034  -0.03359  -0.00677  -0.00612
 Alpha virt. eigenvalues --    0.00059   0.00426   0.01626   0.01837   0.03009
 Alpha virt. eigenvalues --    0.03720   0.03933   0.03946   0.04351   0.04992

  Beta  occ. eigenvalues --  -19.11198 -19.11194 -14.33607 -14.33605 -10.26583
  Beta  occ. eigenvalues --  -10.26579 -10.24512 -10.24508 -10.20059 -10.19989
  Beta  occ. eigenvalues --  -10.19923 -10.19872 -10.19561 -10.19524 -10.19210
  Beta  occ. eigenvalues --  -10.19159 -10.18979 -10.18975  -1.04334  -1.04105
  Beta  occ. eigenvalues --   -0.94911  -0.93954  -0.88186  -0.85039  -0.80710
  Beta  occ. eigenvalues --   -0.77064  -0.76650  -0.74303  -0.68532  -0.66412
  Beta  occ. eigenvalues --   -0.65026  -0.61303  -0.58908  -0.57471  -0.56751
  Beta  occ. eigenvalues --   -0.54031  -0.52677  -0.50577  -0.50095  -0.48424
  Beta  occ. eigenvalues --   -0.47506  -0.46383  -0.45012  -0.44369  -0.44184
  Beta  occ. eigenvalues --   -0.43821  -0.42815  -0.40951  -0.40937  -0.40657
  Beta  occ. eigenvalues --   -0.39308  -0.37189  -0.36611  -0.36571  -0.36042
  Beta  occ. eigenvalues --   -0.29316  -0.28299  -0.27521  -0.27173  -0.26995
  Beta  occ. eigenvalues --   -0.26549  -0.20211
  Beta virt. eigenvalues --   -0.10757  -0.06034  -0.03359  -0.00677  -0.00612
  Beta virt. eigenvalues --    0.00059   0.00426   0.01626   0.01837   0.03009
  Beta virt. eigenvalues --    0.03720   0.03933   0.03946   0.04351   0.04992

 Mulliken charges and spin densities:
               1          2
     1  N   -0.436756   0.000000
     2  C   -0.015955  -0.000000
     3  C   -0.312588   0.000000
     4  C   -0.312307   0.000000
     5  C   -0.015917  -0.000000
     6  N   -0.437399   0.000000
     7  C    0.481563   0.000000
     8  C   -0.305553   0.000000
     9  O   -0.365906   0.000000
    10  C    0.138638  -0.000000
    11  C    0.134894   0.000000
    12  C   -0.559943  -0.000000
    13  C   -0.559549  -0.000000
    14  C    0.134455   0.000000
    15  C    0.137729  -0.000000
    16  C   -0.305002   0.000000
    17  O   -0.366157   0.000000
    18  C    0.482442   0.000000
    19  H    0.341418  -0.000000
    20  H    0.309665   0.000000
    21  H    0.204804   0.000000
    22  H    0.204836   0.000000
    23  H    0.310061  -0.000000
    24  H    0.341643  -0.000000
    25  H    0.187980  -0.000000
    26  H    0.197640  -0.000000
    27  H    0.197615  -0.000000
    28  H    0.187652  -0.000000
 Sum of Mulliken charges =  -0.00000  -0.00000

 Dipole moment (field-independent basis, Debye):
    X=             -5.3123    Y=              0.2512    Z=             -0.1614  Tot=              5.3207
 Quadrupole moment (field-independent basis, Debye-Ang):
   XX=            -64.1480   YY=           -102.7145   ZZ=           -109.4839
   XY=             -1.8798   XZ=             -0.2349   YZ=             -0.6211

  Exact polarizability: 459.817  -6.084 331.199   4.629 -16.856 126.443
 Approx polarizability: 520.305  -4.888 414.910   4.948 -21.928 147.954

                      1                      2                      3
                      A                      A                      A
 Frequencies --     40.1164                60.9757                79.2772
 Red. masses --      5.3250                 6.9416                 3.5142
 Frc consts  --      0.0050                 0.0152                 0.0130
 IR Inten    --     62.8067                 0.8643               210.3835

                      4                      5                      6
                      A                      A                      A
 Frequencies --    122.9519               147.8312               155.9098
 Red. masses --      3.4729                 1.6297                 1.7920
 Frc consts  --      0.0309                 0.0210                 0.0257
 IR Inten    --      0.3448                49.0168                59.0935

                      7                      8                      9
                      A                      A                      A
 Frequencies --    200.1454               217.7113               244.3859
 Red. masses --      2.3190                 4.7261                 5.3515
 Frc consts  --      0.0547                 0.1320                 0.1883
 IR Inten    --    187.4495                 2.0738                39.2124

                     10                     11                     12
                      A                      A                      A
 Frequencies --    323.8162               342.1548               348.8223
 Red. masses --      4.6046                 3.9276                 5.3607
 Frc consts  --      0.2845                 0.2709                 0.3843
 IR Inten    --      2.7604                 0.0703                 6.2778

                     13                     14                     15
                      A                      A                      A
 Frequencies --    389.9999               408.2466               429.6994
 Red. masses --     11.0925                 4.5913                 3.2784
 Frc consts  --      0.9941                 0.4508                 0.3567
 IR Inten    --      0.2146                 7.4889                 1.7011

                     16                     17                     18
                      A                      A                      A
 Frequencies --    435.5126               436.8413               454.2420
 Red. masses --      6.3636                10.8447                 7.2797
 Frc consts  --      0.7111                 1.2193                 0.8850
 IR Inten    --      0.0395                94.1779                33.2406

                     19                     20                     21
                      A                      A                      A
 Frequencies --    480.8434               497.4265               514.3902
 Red. masses --      3.4726                 4.5803                 7.4155
 Frc consts  --      0.4731                 0.6677                 1.1560
 IR Inten    --      1.5186                 0.0083                 0.0258

                     22                     23                     24
                      A                      A                      A
 Frequencies --    576.2058               603.6062               641.9048
 Red. masses --      2.0619                 5.4684                 1.1763
 Frc consts  --      0.4034                 1.1739                 0.2856
 IR Inten    --     79.0879                 2.8572                 0.1260

                     25                     26                     27
                      A                      A                      A
 Frequencies --    652.7997               664.1208               675.8163
 Red. masses --      1.2629                 6.5439                 3.2700
 Frc consts  --      0.3171                 1.7005                 0.8799
 IR Inten    --      5.4398                17.7048                 0.0122

                     28                     29                     30
                      A                      A                      A
 Frequencies --    709.7417               735.1387               742.5428
 Red. masses --      6.5007                 6.0875                 1.8272
 Frc consts  --      1.9294                 1.9383                 0.5936
 IR Inten    --      1.6940                 0.0234               107.2946

                     31                     32                     33
                      A                      A                      A
 Frequencies --    771.9920               807.4672               816.1291
 Red. masses --      6.5080                 5.5703                 2.3091
 Frc consts  --      2.2852                 2.1398                 0.9062
 IR Inten    --      0.9683                 0.0034                20.7030

                     34                     35                     36
                      A                      A                      A
 Frequencies --    843.3303               872.5572               909.1036
 Red. masses --      1.7119                 7.2055                 1.4399
 Frc consts  --      0.7174                 3.2322                 0.7012
 IR Inten    --     42.0586                27.8362                 0.0034

                     37                     38                     39
                      A                      A                      A
 Frequencies --    910.6527               975.5718               981.4786
 Red. masses --      6.7244                 4.1536                 1.3021
 Frc consts  --      3.2855                 2.3291                 0.7390
 IR Inten    --     13.5240                23.3729                 0.1483

                     40                     41                     42
                      A                      A                      A
 Frequencies --    999.0466              1009.7141              1019.0248
 Red. masses --      1.3832                 2.1019                 1.3202
 Frc consts  --      0.8134                 1.2626                 0.8077
 IR Inten    --      2.2858               104.7731                 0.0011

                     43                     44                     45
                      A                      A                      A
 Frequencies --   1051.8356              1087.3125              1113.1180
 Red. masses --      2.0011                 1.6630                 2.1965
 Frc consts  --      1.3044                 1.1584                 1.6035
 IR Inten    --     25.0612                47.9689                 3.4485

                     46                     47                     48
                      A                      A                      A
 Frequencies --   1137.6475              1177.1022              1193.7656
 Red. masses --      2.3215                 1.1520                 2.3013
 Frc consts  --      1.7703                 0.9404                 1.9322
 IR Inten    --    135.6933                28.9240                11.2909

                     49                     50                     51
                      A                      A                      A
 Frequencies --   1200.1084              1259.6989              1265.7401
 Red. masses --      1.2197                 1.8573                 5.6947
 Frc consts  --      1.0350                 1.7364                 5.3754
 IR Inten    --    363.3146                 9.6928              1460.8388

                     52                     53                     54
                      A                      A                      A
 Frequencies --   1313.8422              1325.4325              1353.5426
 Red. masses --      4.5244                 2.1683                 8.2537
 Frc consts  --      4.6015                 2.2443                 8.9093
 IR Inten    --    114.2410                85.2777                14.6312

                     55                     56                     57
                      A                      A                      A
 Frequencies --   1382.0620              1423.7532              1444.4073
 Red. masses --      3.1668                 5.7940                 4.8824
 Frc consts  --      3.5639                 6.9199                 6.0015
 IR Inten    --      0.2143                67.9749               407.4571

                     58                     59                     60
                      A                      A                      A
 Frequencies --   1455.1294              1482.7694              1501.2530
 Red. masses --      2.3250                 2.5259                 2.6478
 Frc consts  --      2.9005                 3.2720                 3.5160
 IR Inten    --     57.7959                34.5033                 0.1253

                     61                     62                     63
                      A                      A                      A
 Frequencies --   1550.6943              1559.6309              1582.4029
 Red. masses --      3.5943                 4.9117                 1.8967
 Frc consts  --      5.0923                 7.0392                 2.7982
 IR Inten    --     52.5765               441.0813              1316.4641

                     64                     65                     66
                      A                      A                      A
 Frequencies --   1592.7438              1608.1864              1619.1639
 Red. masses --      1.9081                 3.3459                 4.2816
 Frc consts  --      2.8520                 5.0984                 6.6136
 IR Inten    --    285.0380               243.0200               279.4390

                     67                     68                     69
                      A                      A                      A
 Frequencies --   1644.3312              1680.8666              3169.1134
 Red. masses --      6.4276                 7.3745                 1.0872
 Frc consts  --     10.2394                12.2758                 6.4333
 IR Inten    --    141.4796                87.5054                10.3258

                     70                     71                     72
                      A                      A                      A
 Frequencies --   3173.2338              3184.4984              3186.6138
 Red. masses --      1.0872                 1.0965                 1.0920
 Frc consts  --      6.4503                 6.5514                 6.5335
 IR Inten    --      4.9070                27.5307                20.8088

                     73                     74                     75
                      A                      A                      A
 Frequencies --   3203.3542              3205.9705              3507.2134
 Red. masses --      1.0922                 1.0942                 1.0519
 Frc consts  --      6.6030                 6.6262                 7.6235
 IR Inten    --      4.5730                24.2441                 0.5307

                     76                     77                     78
                      A                      A                      A
 Frequencies --   3509.5360              3687.6035              3688.8388
 Red. masses --      1.0516                 1.0998                 1.0997
 Frc consts  --      7.6316                 8.8117                 8.8167
 IR Inten    --    244.8489               150.0029               191.9823

 - Thermochemistry -
 -------------------
 Temperature   298.150 Kelvin.  Pressure   1.00000 Atm.
 Atom     1 has atomic number  7 and mass  14.00307

 Molecular mass:   238.07423 amu.
 Principal axes and moments of inertia in atomic units:
                           1         2         3
     Eigenvalues --  2530.665584709.308777239.96762
           X            0.99864   0.05061  -0.01269
           Y           -0.04942   0.99546   0.08129
           Z            0.01675  -0.08055   0.99661
 This molecule is an asymmetric top.
 Rotational symmetry number  1.
 Warning -- assumption of classical behavior for rotation
           may cause significant error
 Rotational temperatures (Kelvin)      0.03423     0.01839     0.01196
 Rotational constants (GHZ):           0.71315     0.38323     0.24927
 Zero-point vibrational energy     554898.4 (Joules/Mol)
                                  132.62389 (Kcal/Mol)
 Warning -- explicit consideration of  23 degrees of freedom as
           vibrations may cause significant error
 Vibrational temperatures:     57.72    87.73   114.06   176.90   212.70
          (Kelvin)            224.32   287.96   313.24   351.62   465.90
                              492.28   501.88   561.12   587.38   618.24
                              626.61   628.52   653.55   691.83   715.69
                              740.09   829.03   868.45   923.56   939.23
                              955.52   972.35  1021.16  1057.70  1068.35
                             1110.72  1161.77  1174.23  1213.36  1255.42
                             1308.00  1310.23  1403.63  1412.13  1437.41
                             1452.75  1466.15  1513.36  1564.40  1601.53
                             1636.82  1693.59  1717.56  1726.69  1812.43
                             1821.12  1890.33  1907.00  1947.45  1988.48
                             2048.46  2078.18  2093.61  2133.37  2159.97
                             2231.10  2243.96  2276.72  2291.60  2313.82
                             2329.62  2365.83  2418.39  4559.65  4565.58
                             4581.78  4584.83  4608.91  4612.68  5046.10
                             5049.44  5305.64  5307.42

 Zero-point correction=                           0.211350 (Hartree/Particle)
 Thermal correction to Energy=                    0.225787
 Thermal correction to Enthalpy=                  0.226731
 Thermal correction to Gibbs Free Energy=         0.169988
 Sum of electronic and zero-point Energies=           -799.521134
 Sum of electronic and thermal Energies=              -799.506697
 Sum of electronic and thermal Enthalpies=            -799.505752
 Sum of electronic and thermal Free Energies=         -799.562495

                     E (Thermal)             CV                S
                      KCal/Mol        Cal/Mol-Kelvin    Cal/Mol-Kelvin
 Total                  141.683             57.579            119.425
 Electronic               0.000              0.000              0.000
 Translational            0.889              2.981             42.304
 Rotational               0.889              2.981             32.823
 Vibrational            139.906             51.617             44.298
 Vibration     1          0.594              1.981              5.253
 Vibration     2          0.597              1.973              4.425
 Vibration     3          0.600              1.963              3.909
 Vibration     4          0.610              1.930              3.053
 Vibration     5          0.617              1.905              2.700
 Vibration     6          0.620              1.896              2.599
 Vibration     7          0.638              1.840              2.132
 Vibration     8          0.646              1.814              1.978
 Vibration     9          0.660              1.772              1.771
 Vibration    10          0.708              1.628              1.291
 Vibration    11          0.721              1.591              1.202
 Vibration    12          0.726              1.578              1.172
 Vibration    13          0.758              1.492              1.000
 Vibration    14          0.773              1.452              0.933
 Vibration    15          0.791              1.406              0.860
 Vibration    16          0.796              1.393              0.841
 Vibration    17          0.797              1.390              0.837
 Vibration    18          0.813              1.352              0.783
 Vibration    19          0.837              1.293              0.708
 Vibration    20          0.853              1.256              0.665
 Vibration    21          0.869              1.218              0.623
 Vibration    22          0.933              1.083              0.492
 Vibration    23          0.962              1.024              0.443

                           ! Non-Optimized Parameters !
 Normal termination of Gaussian 16 at Sat Feb 10 17:17:05 2024.
