 Q-Chem 5.4, Q-Chem, Inc., Pleasanton, CA (2021)
 Q-Chem 5.4.0 for Intel X86 EM64T Linux

User input:
--------------------------------------------------------------
$molecule
-1 2
O                 -2.2918910000     -2.6866750000     -0.4341230000
C                 -2.3404570000     -1.3361280000     -0.2029290000
C                 -3.5750480000     -0.7144570000     -0.0832370000
C                 -3.6655790000      0.6691260000      0.1540900000
C                 -2.5166480000      1.4181090000      0.2694610000
C                 -1.2457180000      0.8159020000      0.1526940000
C                 -0.0739700000      1.6855520000      0.2884390000
O                 -0.1940660000      2.9172050000      0.4999750000
C                  1.2386740000      1.0523130000      0.1661920000
C                  2.3979080000      1.8436740000      0.2888910000
C                  3.6500150000      1.2672590000      0.1770260000
C                  3.7903870000     -0.1083090000     -0.0593490000
C                  2.6626480000     -0.9139990000     -0.1848290000
O                  2.8216230000     -2.2319750000     -0.4114560000
C                  1.3529720000     -0.3451900000     -0.0736710000
C                  0.1874780000     -1.2089660000     -0.2087830000
O                  0.3451030000     -2.4564710000     -0.4240470000
C                 -1.1267970000     -0.5936630000     -0.0893540000
H                 -3.2015190000     -3.0008970000     -0.4778750000
H                 -4.4784240000     -1.3142020000     -0.1758130000
H                 -4.6420640000      1.1347930000      0.2443190000
H                 -2.5437770000      2.4848670000      0.4519760000
H                  2.2691730000      2.9030330000      0.4711900000
H                  4.5403880000      1.8824760000      0.2725420000
H                  4.7665800000     -0.5718780000     -0.1489410000
H                  1.8730070000     -2.5915010000     -0.4623880000
$end
$rem
MAX_SCF_CYCLES=200
BASIS  =  6-311++G(d,p)
GUI  =  2
JOB_TYPE  =  SP
METHOD  =  B3LYP
SOLVENT_METHOD = PCM
$end
$pcm
theory = CPCM
$end
$solvent
dielectric 37.219
opticaldielectric 1.43
$end

--------------------------------------------------------------

             Standard Nuclear Orientation (Angstroms)
    I     Atom           X                Y                Z
 ----------------------------------------------------------------
    1      O      -2.2918910000    -2.6866750000    -0.4341230000
    2      C      -2.3404570000    -1.3361280000    -0.2029290000
    3      C      -3.5750480000    -0.7144570000    -0.0832370000
    4      C      -3.6655790000     0.6691260000     0.1540900000
    5      C      -2.5166480000     1.4181090000     0.2694610000
    6      C      -1.2457180000     0.8159020000     0.1526940000
    7      C      -0.0739700000     1.6855520000     0.2884390000
    8      O      -0.1940660000     2.9172050000     0.4999750000
    9      C       1.2386740000     1.0523130000     0.1661920000
   10      C       2.3979080000     1.8436740000     0.2888910000
   11      C       3.6500150000     1.2672590000     0.1770260000
   12      C       3.7903870000    -0.1083090000    -0.0593490000
   13      C       2.6626480000    -0.9139990000    -0.1848290000
   14      O       2.8216230000    -2.2319750000    -0.4114560000
   15      C       1.3529720000    -0.3451900000    -0.0736710000
   16      C       0.1874780000    -1.2089660000    -0.2087830000
   17      O       0.3451030000    -2.4564710000    -0.4240470000
   18      C      -1.1267970000    -0.5936630000    -0.0893540000
   19      H      -3.2015190000    -3.0008970000    -0.4778750000
   20      H      -4.4784240000    -1.3142020000    -0.1758130000
   21      H      -4.6420640000     1.1347930000     0.2443190000
   22      H      -2.5437770000     2.4848670000     0.4519760000
   23      H       2.2691730000     2.9030330000     0.4711900000
   24      H       4.5403880000     1.8824760000     0.2725420000
   25      H       4.7665800000    -0.5718780000    -0.1489410000
   26      H       1.8730070000    -2.5915010000    -0.4623880000
 ----------------------------------------------------------------

    8    -839.6063796292      8.26e-06  Convergence criterion met
 Total energy in the final basis set =     -839.6063796292

                    Orbital Energies (a.u.)
 --------------------------------------------------------------

 Alpha MOs
 -- Occupied --
-19.1528 -19.1303 -19.0913 -19.0777 -10.2434 -10.2395 -10.2358 -10.2273
-10.1827 -10.1781 -10.1770 -10.1760 -10.1753 -10.1742 -10.1715 -10.1646
-10.1645 -10.1625  -1.0662  -1.0563  -1.0090  -1.0056  -0.8622  -0.8479
 -0.7888  -0.7503  -0.7440  -0.7394  -0.6723  -0.6444  -0.6329  -0.5985
 -0.5752  -0.5557  -0.5302  -0.5101  -0.4955  -0.4822  -0.4694  -0.4593
 -0.4487  -0.4394  -0.4275  -0.4223  -0.4152  -0.4122  -0.3952  -0.3894
 -0.3894  -0.3749  -0.3716  -0.3559  -0.3530  -0.3469  -0.3392  -0.3279
 -0.2740  -0.2553  -0.2527  -0.2414  -0.2384  -0.2282  -0.1447

 Beta MOs
 -- Occupied --
-19.1527 -19.1301 -19.0868 -19.0727 -10.2434 -10.2373 -10.2358 -10.2253
-10.1823 -10.1772 -10.1768 -10.1755 -10.1746 -10.1738 -10.1707 -10.1644
-10.1636 -10.1621  -1.0658  -1.0551  -1.0016  -0.9967  -0.8595  -0.8466
 -0.7849  -0.7476  -0.7418  -0.7376  -0.6654  -0.6426  -0.6306  -0.5976
 -0.5733  -0.5536  -0.5286  -0.5089  -0.4936  -0.4801  -0.4680  -0.4584
 -0.4472  -0.4311  -0.4255  -0.4207  -0.4112  -0.4102  -0.3885  -0.3879
 -0.3809  -0.3709  -0.3583  -0.3552  -0.3516  -0.3453  -0.3354  -0.3178
 -0.2563  -0.2515  -0.2478  -0.2371  -0.2295  -0.2215

          Ground-State Mulliken Net Atomic Charges

     Atom                 Charge (a.u.)    Spin (a.u.)
  --------------------------------------------------------
      1 O                    -0.267108       0.004032
      2 C                    -0.008817       0.020971
      3 C                    -0.227183       0.057008
      4 C                    -0.352543       0.043865
      5 C                    -0.030237       0.046889
      6 C                     0.293832       0.044882
      7 C                    -0.384548       0.110680
      8 O                    -0.471463       0.193670
      9 C                     0.261308       0.030948
     10 C                    -0.074585       0.062227
     11 C                    -0.424470       0.027791
     12 C                    -0.301961       0.062529
     13 C                    -0.047943       0.021250
     14 O                    -0.421824       0.006211
     15 C                     0.427084       0.000355
     16 C                    -0.275884       0.128586
     17 O                    -0.501021       0.167124
     18 C                    -0.031164      -0.002987
     19 H                     0.318232      -0.000316
     20 H                     0.182175      -0.005356
     21 H                     0.211210      -0.003198
     22 H                     0.160329      -0.002851
     23 H                     0.162814      -0.003492
     24 H                     0.204750      -0.002347
     25 H                     0.198989      -0.005428
     26 H                     0.400029      -0.003043
  --------------------------------------------------------
  Sum of atomic charges =    -1.000000

                    Cartesian Multipole Moments
 -----------------------------------------------------------------
    Charge (ESU x 10^10)
                -4.8032
    Dipole Moment (Debye)
         X      -5.1754      Y      -0.9334      Z      -0.0992
       Tot       5.2598
    Quadrupole Moments (Debye-Ang)
        XX     -97.6588     XY      16.2921     YY    -140.2697
        XZ       2.6414     YZ      -5.2656     ZZ    -111.4008

 Total job time:  87.40s(wall), 386.02s(cpu)
        *  Thank you very much for using Q-Chem.  Have a nice day.  *
