 Q-Chem 5.4, Q-Chem, Inc., Pleasanton, CA (2021)
 Q-Chem 5.4.0 for Intel X86 EM64T Linux

User input:
--------------------------------------------------------------
$molecule
-2 1
C                  0.6552010000     -1.7550260000     -0.9369840000
C                 -0.4772500000     -1.1461290000     -0.2995460000
C                 -0.4129980000      0.0551500000      0.4094680000
C                  0.7908320000      0.8333860000      0.5853030000
C                  1.9017330000      0.1929200000     -0.0783030000
C                  1.8861430000     -0.9917700000     -0.7985690000
O                  0.6191890000     -2.8588280000     -1.5785760000
O                  0.8564080000      1.9217030000      1.2299620000
Br                -2.1394870000     -2.1316350000     -0.4897090000
Br                -1.9786150000      0.8183900000      1.2627010000
Br                 3.5927970000      1.1837200000      0.1187520000
C                  3.0908440000     -1.5891500000     -1.4826490000
C                  3.8260950000     -2.6411260000     -0.6285050000
C                  5.0089280000     -3.2850990000     -1.3618210000
C                  5.7636310000     -4.3366640000     -0.5373110000
C                  6.9462270000     -4.9756350000     -1.2767070000
C                  7.7031680000     -6.0214560000     -0.4506250000
H                  3.7958840000     -0.8025340000     -1.7669630000
H                  2.7308150000     -2.0873270000     -2.3891950000
H                  3.1021340000     -3.4121720000     -0.3451510000
H                  4.1811160000     -2.1689310000      0.2956190000
H                  5.7146440000     -2.5006130000     -1.6709800000
H                  4.6443800000     -3.7498670000     -2.2881770000
H                  5.0626560000     -5.1237400000     -0.2295500000
H                  6.1267970000     -3.8754890000      0.3909710000
H                  7.6435090000     -4.1871190000     -1.5887790000
H                  6.5824990000     -5.4391610000     -2.2028630000
H                  8.1131610000     -5.5819290000      0.4658310000
H                  8.5409720000     -6.4579890000     -1.0068130000
H                  7.0438180000     -6.8443800000     -0.1523540000
$end
$rem
MAX_SCF_CYCLES=200
BASIS  =  6-311++G(d,p)
GUI  =  2
JOB_TYPE  =  SP
METHOD  =  B3LYP
SOLVENT_METHOD = PCM
$end
$pcm
theory = CPCM
$end
$solvent
dielectric 37.219
opticaldielectric 1.43
$end

--------------------------------------------------------------

             Standard Nuclear Orientation (Angstroms)
    I     Atom           X                Y                Z
 ----------------------------------------------------------------
    1      C       0.6552010000    -1.7550260000    -0.9369840000
    2      C      -0.4772500000    -1.1461290000    -0.2995460000
    3      C      -0.4129980000     0.0551500000     0.4094680000
    4      C       0.7908320000     0.8333860000     0.5853030000
    5      C       1.9017330000     0.1929200000    -0.0783030000
    6      C       1.8861430000    -0.9917700000    -0.7985690000
    7      O       0.6191890000    -2.8588280000    -1.5785760000
    8      O       0.8564080000     1.9217030000     1.2299620000
    9      Br     -2.1394870000    -2.1316350000    -0.4897090000
   10      Br     -1.9786150000     0.8183900000     1.2627010000
   11      Br      3.5927970000     1.1837200000     0.1187520000
   12      C       3.0908440000    -1.5891500000    -1.4826490000
   13      C       3.8260950000    -2.6411260000    -0.6285050000
   14      C       5.0089280000    -3.2850990000    -1.3618210000
   15      C       5.7636310000    -4.3366640000    -0.5373110000
   16      C       6.9462270000    -4.9756350000    -1.2767070000
   17      C       7.7031680000    -6.0214560000    -0.4506250000
   18      H       3.7958840000    -0.8025340000    -1.7669630000
   19      H       2.7308150000    -2.0873270000    -2.3891950000
   20      H       3.1021340000    -3.4121720000    -0.3451510000
   21      H       4.1811160000    -2.1689310000     0.2956190000
   22      H       5.7146440000    -2.5006130000    -1.6709800000
   23      H       4.6443800000    -3.7498670000    -2.2881770000
   24      H       5.0626560000    -5.1237400000    -0.2295500000
   25      H       6.1267970000    -3.8754890000     0.3909710000
   26      H       7.6435090000    -4.1871190000    -1.5887790000
   27      H       6.5824990000    -5.4391610000    -2.2028630000
   28      H       8.1131610000    -5.5819290000     0.4658310000
   29      H       8.5409720000    -6.4579890000    -1.0068130000
   30      H       7.0438180000    -6.8443800000    -0.1523540000
 ----------------------------------------------------------------

    9   -8338.4211707955      9.01e-06  Convergence criterion met
 Total energy in the final basis set =    -8338.4211707955

                    Orbital Energies (a.u.)
 --------------------------------------------------------------

 Alpha MOs
 -- Occupied --
********-482.8109-482.8064 -62.4645 -62.4638 -62.4594 -56.2848 -56.2840
-56.2813 -56.2810 -56.2806 -56.2803 -56.2795 -56.2762 -56.2759 -19.0341
-19.0295 -10.2021 -10.1957 -10.1941 -10.1937 -10.1920 -10.1553 -10.1534
-10.1520 -10.1507 -10.1497 -10.1484 -10.1474  -8.6732  -8.6725  -8.6680
 -6.5041  -6.5032  -6.4984  -6.4924  -6.4917  -6.4915  -6.4908  -6.4874
 -6.4866  -2.6152  -2.6144  -2.6117  -2.6112  -2.6110  -2.6104  -2.6096
 -2.6063  -2.6058  -2.6019  -2.6019  -2.6013  -2.6012  -2.5971  -2.5971
 -0.9636  -0.9542  -0.8309  -0.8065  -0.7922  -0.7702  -0.7611  -0.7446
 -0.7134  -0.6711  -0.6550  -0.6228  -0.5776  -0.5656  -0.5405  -0.5336
 -0.4829  -0.4653  -0.4343  -0.4315  -0.4201  -0.4104  -0.3960  -0.3914
 -0.3878  -0.3760  -0.3728  -0.3694  -0.3590  -0.3479  -0.3420  -0.3345
 -0.3326  -0.3194  -0.3173  -0.3139  -0.3112  -0.3031  -0.2893  -0.2875
 -0.2827  -0.2710  -0.2614  -0.2384  -0.2178  -0.2132  -0.2095  -0.1336

          Ground-State Mulliken Net Atomic Charges

     Atom                 Charge (a.u.)
  ----------------------------------------
      1 C                    -1.024751
      2 C                    -0.277362
      3 C                     0.611684
      4 C                    -0.923147
      5 C                     0.447710
      6 C                     1.889396
      7 O                    -0.607713
      8 O                    -0.568153
      9 Br                   -0.248445
     10 Br                   -0.241101
     11 Br                   -0.205759
     12 C                    -0.850199
     13 C                    -0.540121
     14 C                    -0.151489
     15 C                    -0.266404
     16 C                    -0.192518
     17 C                    -0.704491
     18 H                     0.159021
     19 H                     0.184641
     20 H                     0.189911
     21 H                     0.121108
     22 H                     0.117652
     23 H                     0.120092
     24 H                     0.123285
     25 H                     0.128178
     26 H                     0.135878
     27 H                     0.135465
     28 H                     0.145321
     29 H                     0.146680
     30 H                     0.145620
  ----------------------------------------
  Sum of atomic charges =    -2.000010

                    Cartesian Multipole Moments
 -----------------------------------------------------------------
    Charge (ESU x 10^10)
                -9.6065
    Dipole Moment (Debye)
         X      -4.4200      Y       3.0339      Z       0.0910
       Tot       5.3618
    Quadrupole Moments (Debye-Ang)
        XX    -174.3056     XY      -6.3857     YY    -197.9244
        XZ      -0.4891     YZ     -24.9498     ZZ    -165.5164

 Total job time:  74.14s(wall), 465.69s(cpu)
        *  Thank you very much for using Q-Chem.  Have a nice day.  *
