 Gaussian 16, Revision A.03,
 Gaussian 16:  ES64L-G16RevA.03 25-Dec-2016

 ----------------------------------------------------------------
 #P UB3LYP/6-311++G(d,p) SCRF=(PCM,Solvent=n,n-DiMethylFormamide)
 ----------------------------------------------------------------

 ------------------
 Radical PCM in DMF
 ------------------
 Symbolic Z-matrix:
 Charge = -1 Multiplicity = 2

                         Standard orientation:
 ---------------------------------------------------------------------
 Center     Atomic      Atomic             Coordinates (Angstroms)
 Number     Number       Type             X           Y           Z
 ---------------------------------------------------------------------
      1          6           0       -1.337775    1.091731   -0.801667
      2          6           0       -2.609221    1.574740   -0.285628
      3          6           0       -3.482964    0.793261    0.414216
      4          6           0       -3.209277   -0.599941    0.710794
      5          6           0       -1.059357   -0.310988   -0.494494
      6          6           0       -1.942552   -1.095182    0.215599
      7          8           0       -0.555898    1.833484   -1.444536
      8          8           0       -4.012052   -1.329409    1.359050
      9         16           0        0.408315   -1.079733   -1.176585
     10          6           0        1.770434   -0.411576   -0.240741
     11          6           0        3.065233   -0.762126   -0.652750
     12          6           0        1.617002    0.407951    0.882874
     13          6           0        2.736589    0.861618    1.575887
     14          6           0        4.178228   -0.309086    0.048759
     15          6           0        4.023419    0.507543    1.170055
     16          1           0       -2.834198    2.616223   -0.498342
     17          1           0       -4.425816    1.192596    0.778149
     18          1           0       -1.706926   -2.132449    0.428290
     19          1           0        3.195683   -1.388353   -1.529522
     20          1           0        0.623138    0.691638    1.204297
     21          1           0        2.597873    1.501338    2.441785
     22          1           0        5.171454   -0.591370   -0.286794
     23          1           0        4.890812    0.865834    1.713955
 ---------------------------------------------------------------------

 SCF Done:  E(UB3LYP) =  -1011.04743581     A.U. after   23 cycles

 The electronic state is 2-A.
 Alpha  occ. eigenvalues --  -88.85364 -19.08434 -19.08414 -10.23089 -10.22586
 Alpha  occ. eigenvalues --  -10.21173 -10.20070 -10.18036 -10.17980 -10.17954
 Alpha  occ. eigenvalues --  -10.17763 -10.17529 -10.17499 -10.17100 -10.17017
 Alpha  occ. eigenvalues --   -7.93975  -5.90371  -5.89967  -5.89384  -1.00935
 Alpha  occ. eigenvalues --   -1.00394  -0.86975  -0.83681  -0.79430  -0.75510
 Alpha  occ. eigenvalues --   -0.75176  -0.70567  -0.67754  -0.61573  -0.60563
 Alpha  occ. eigenvalues --   -0.59168  -0.56113  -0.51735  -0.48146  -0.47598
 Alpha  occ. eigenvalues --   -0.46426  -0.45736  -0.44190  -0.43149  -0.42548
 Alpha  occ. eigenvalues --   -0.41267  -0.40906  -0.39169  -0.38624  -0.37987
 Alpha  occ. eigenvalues --   -0.37675  -0.35891  -0.35058  -0.33442  -0.29913
 Alpha  occ. eigenvalues --   -0.28773  -0.26718  -0.26278  -0.25016  -0.24448
 Alpha  occ. eigenvalues --   -0.21711  -0.17029
 Alpha virt. eigenvalues --   -0.02744  -0.01957  -0.01650  -0.00269   0.00544
 Alpha virt. eigenvalues --    0.01240   0.01524   0.01860   0.02284   0.03098
 Alpha virt. eigenvalues --    0.03682   0.04252   0.04794   0.05170   0.05508

  Beta  occ. eigenvalues --  -88.85366 -19.07769 -19.07668 -10.22975 -10.22466
  Beta  occ. eigenvalues --  -10.21164 -10.19955 -10.18036 -10.17980 -10.17954
  Beta  occ. eigenvalues --  -10.17760 -10.17498 -10.17362 -10.17002 -10.16929
  Beta  occ. eigenvalues --   -7.93976  -5.90375  -5.89970  -5.89383  -0.99777
  Beta  occ. eigenvalues --   -0.99082  -0.86948  -0.83149  -0.79254  -0.75437
  Beta  occ. eigenvalues --   -0.75061  -0.70119  -0.67002  -0.61493  -0.60376
  Beta  occ. eigenvalues --   -0.58898  -0.55805  -0.51668  -0.47922  -0.47219
  Beta  occ. eigenvalues --   -0.46302  -0.45694  -0.43891  -0.42891  -0.42459
  Beta  occ. eigenvalues --   -0.40584  -0.39537  -0.38683  -0.38401  -0.37421
  Beta  occ. eigenvalues --   -0.35779  -0.35225  -0.35016  -0.33138  -0.29787
  Beta  occ. eigenvalues --   -0.26355  -0.25921  -0.25478  -0.24352  -0.23831
  Beta  occ. eigenvalues --   -0.21603
  Beta virt. eigenvalues --   -0.09802  -0.02084  -0.01819  -0.01050  -0.00218
  Beta virt. eigenvalues --    0.00644   0.01365   0.01890   0.02310   0.02319
  Beta virt. eigenvalues --    0.03461   0.04073   0.04409   0.05069   0.05238

 Mulliken charges and spin densities:
               1          2
     1  C   -0.662951   0.059617
     2  C   -0.121754   0.087383
     3  C    0.096960   0.059568
     4  C   -0.653055   0.127529
     5  C    1.404242   0.094501
     6  C   -0.220157   0.087129
     7  O   -0.440018   0.239296
     8  O   -0.490286   0.260591
     9  S   -0.485133  -0.001347
    10  C    0.548851   0.006116
    11  C   -0.274553  -0.000930
    12  C   -0.142078   0.003212
    13  C   -0.307485  -0.004134
    14  C   -0.473932  -0.000343
    15  C   -0.349228   0.001461
    16  H    0.203003  -0.007305
    17  H    0.193945  -0.005135
    18  H    0.218126  -0.009980
    19  H    0.195960   0.000052
    20  H    0.181741   0.002689
    21  H    0.208504  -0.000050
    22  H    0.194009   0.000084
    23  H    0.175287  -0.000006
 Sum of Mulliken charges =  -1.00000   1.00000

 Dipole moment (field-independent basis, Debye):
    X=              9.2971    Y=              0.4195    Z=              1.3739  Tot=              9.4074
 Quadrupole moment (field-independent basis, Debye-Ang):
   XX=           -128.4040   YY=           -111.0307   ZZ=           -108.7995
   XY=            -14.3482   XZ=             12.6247   YZ=             14.3974

 Normal termination of Gaussian 16 at Wed Jan 24 22:52:52 2024.
