 Q-Chem 5.4, Q-Chem, Inc., Pleasanton, CA (2021)
 Q-Chem 5.4.0 for Intel X86 EM64T Linux

User input:
--------------------------------------------------------------
$molecule
0 1
C                 -0.6802580000      3.2879540000      0.7881300000
C                 -1.5515370000      3.3699820000     -0.2936750000
C                 -1.1475780000      2.9165930000     -1.5507830000
C                  0.5968000000      2.7507400000      0.6093580000
C                  1.0062000000      2.2939710000     -0.6541410000
C                  0.1263000000      2.3808790000     -1.7315340000
C                  1.5317920000      2.6571740000      1.7452420000
C                  2.8810730000      2.0709980000      1.5014730000
C                  3.3027600000      1.6330030000      0.2895820000
C                  2.3778650000      1.7149770000     -0.8603630000
O                  1.2695240000      3.0321680000      2.8826750000
O                  2.7167910000      1.3229080000     -1.9683280000
O                  3.6578630000      2.0192670000      2.5959190000
C                  4.6657250000      1.0370100000      0.0764480000
C                  4.6767750000     -0.4998470000      0.2241910000
C                  6.0685830000     -1.1006000000      0.0023360000
C                  6.1014120000     -2.6264310000      0.1453230000
C                  7.4936120000     -3.2314640000     -0.0683920000
C                  7.5274220000     -4.7578830000      0.0681170000
C                  8.9208850000     -5.3624370000     -0.1384730000
C                  8.9533600000     -6.8896280000     -0.0094490000
C                 10.3487830000     -7.4913610000     -0.2068020000
C                 10.3718320000     -9.0270130000     -0.0831910000
C                 11.7465680000     -9.6273330000     -0.2753100000
C                 12.5866690000     -9.8850980000      0.8075880000
C                 12.2404840000     -9.9175120000     -1.5551740000
C                 13.5142870000    -10.4346960000     -1.7428490000
C                 14.3461630000    -10.6831300000     -0.6435760000
C                 13.8713600000    -10.4085150000      0.6409010000
O                 15.5846460000    -11.1794930000     -0.9408360000
C                 16.5250170000    -11.4804490000      0.1046340000
C                 16.1991040000    -12.8270640000      0.7949950000
C                 17.9045810000    -11.5117790000     -0.5461360000
C                 19.0141590000    -11.7097390000      0.5099800000
C                 18.5737480000    -12.6391310000      1.6684830000
C                 17.4687930000    -13.5999710000      1.2137690000
H                 -0.9705500000      3.6334080000      1.7727980000
H                 -2.5433790000      3.7857970000     -0.1593190000
H                 -1.8279290000      2.9812610000     -2.3923710000
H                  0.4556550000      2.0248980000     -2.6997830000
H                  3.1297540000      2.4057170000      3.3202390000
H                  5.3636250000      1.4734770000      0.7955470000
H                  5.0044280000      1.2980480000     -0.9292330000
H                  3.9718260000     -0.9319460000     -0.4938960000
H                  4.3167940000     -0.7670350000      1.2242170000
H                  6.7735880000     -0.6545270000      0.7156900000
H                  6.4268010000     -0.8221960000     -0.9968560000
H                  5.3993090000     -3.0715230000     -0.5713260000
H                  5.7356130000     -2.9044860000      1.1422400000
H                  8.1945850000     -2.7883700000      0.6508930000
H                  7.8614400000     -2.9493550000     -1.0633830000
H                  6.8301000000     -5.2007700000     -0.6548420000
H                  7.1544700000     -5.0405920000      1.0611750000
H                  9.6168130000     -4.9233480000      0.5880440000
H                  9.2964880000     -5.0755550000     -1.1291620000
H                  8.2623070000     -7.3290240000     -0.7407220000
H                  8.5713660000     -7.1774390000      0.9788360000
H                 11.0418590000     -7.0638560000      0.5277370000
H                 10.7369810000     -7.2055900000     -1.1918310000
H                  9.6804720000     -9.4528870000     -0.8196600000
H                  9.9847990000     -9.3108640000      0.9019270000
H                 12.2349260000     -9.6835450000      1.8150860000
H                 11.6128500000     -9.7385770000     -2.4231610000
H                 13.8883850000    -10.6573780000     -2.7352290000
H                 14.4778950000    -10.6029750000      1.5148840000
H                 16.5047670000    -10.6606740000      0.8332490000
H                 15.6068160000    -13.4264530000      0.0976650000
H                 15.5689040000    -12.6540510000      1.6719730000
H                 18.0624240000    -10.5859600000     -1.1040950000
H                 17.9201390000    -12.3255820000     -1.2785420000
H                 19.3176040000    -10.7390590000      0.9146700000
H                 19.8975750000    -12.1235630000      0.0148190000
H                 18.1971910000    -12.0397980000      2.5061190000
H                 19.4333990000    -13.1940230000      2.0545400000
H                 17.2219120000    -14.3099200000      2.0082620000
H                 17.8368940000    -14.1983350000      0.3729470000
$end
$rem
MAX_SCF_CYCLES=200
BASIS  =  6-311++G(d,p)
GUI  =  2
JOB_TYPE  =  SP
METHOD  =  B3LYP
SCF_ALGORITHM = RCA_DIIS
THRESH = 14
SOLVENT_METHOD = PCM
$end
$pcm
theory = CPCM
$end
$solvent
dielectric 37.219
opticaldielectric 1.43
$end

--------------------------------------------------------------

             Standard Nuclear Orientation (Angstroms)
    I     Atom           X                Y                Z
 ----------------------------------------------------------------
    1      C      -0.6802580000     3.2879540000     0.7881300000
    2      C      -1.5515370000     3.3699820000    -0.2936750000
    3      C      -1.1475780000     2.9165930000    -1.5507830000
    4      C       0.5968000000     2.7507400000     0.6093580000
    5      C       1.0062000000     2.2939710000    -0.6541410000
    6      C       0.1263000000     2.3808790000    -1.7315340000
    7      C       1.5317920000     2.6571740000     1.7452420000
    8      C       2.8810730000     2.0709980000     1.5014730000
    9      C       3.3027600000     1.6330030000     0.2895820000
   10      C       2.3778650000     1.7149770000    -0.8603630000
   11      O       1.2695240000     3.0321680000     2.8826750000
   12      O       2.7167910000     1.3229080000    -1.9683280000
   13      O       3.6578630000     2.0192670000     2.5959190000
   14      C       4.6657250000     1.0370100000     0.0764480000
   15      C       4.6767750000    -0.4998470000     0.2241910000
   16      C       6.0685830000    -1.1006000000     0.0023360000
   17      C       6.1014120000    -2.6264310000     0.1453230000
   18      C       7.4936120000    -3.2314640000    -0.0683920000
   19      C       7.5274220000    -4.7578830000     0.0681170000
   20      C       8.9208850000    -5.3624370000    -0.1384730000
   21      C       8.9533600000    -6.8896280000    -0.0094490000
   22      C      10.3487830000    -7.4913610000    -0.2068020000
   23      C      10.3718320000    -9.0270130000    -0.0831910000
   24      C      11.7465680000    -9.6273330000    -0.2753100000
   25      C      12.5866690000    -9.8850980000     0.8075880000
   26      C      12.2404840000    -9.9175120000    -1.5551740000
   27      C      13.5142870000   -10.4346960000    -1.7428490000
   28      C      14.3461630000   -10.6831300000    -0.6435760000
   29      C      13.8713600000   -10.4085150000     0.6409010000
   30      O      15.5846460000   -11.1794930000    -0.9408360000
   31      C      16.5250170000   -11.4804490000     0.1046340000
   32      C      16.1991040000   -12.8270640000     0.7949950000
   33      C      17.9045810000   -11.5117790000    -0.5461360000
   34      C      19.0141590000   -11.7097390000     0.5099800000
   35      C      18.5737480000   -12.6391310000     1.6684830000
   36      C      17.4687930000   -13.5999710000     1.2137690000
   37      H      -0.9705500000     3.6334080000     1.7727980000
   38      H      -2.5433790000     3.7857970000    -0.1593190000
   39      H      -1.8279290000     2.9812610000    -2.3923710000
   40      H       0.4556550000     2.0248980000    -2.6997830000
   41      H       3.1297540000     2.4057170000     3.3202390000
   42      H       5.3636250000     1.4734770000     0.7955470000
   43      H       5.0044280000     1.2980480000    -0.9292330000
   44      H       3.9718260000    -0.9319460000    -0.4938960000
   45      H       4.3167940000    -0.7670350000     1.2242170000
   46      H       6.7735880000    -0.6545270000     0.7156900000
   47      H       6.4268010000    -0.8221960000    -0.9968560000
   48      H       5.3993090000    -3.0715230000    -0.5713260000
   49      H       5.7356130000    -2.9044860000     1.1422400000
   50      H       8.1945850000    -2.7883700000     0.6508930000
   51      H       7.8614400000    -2.9493550000    -1.0633830000
   52      H       6.8301000000    -5.2007700000    -0.6548420000
   53      H       7.1544700000    -5.0405920000     1.0611750000
   54      H       9.6168130000    -4.9233480000     0.5880440000
   55      H       9.2964880000    -5.0755550000    -1.1291620000
   56      H       8.2623070000    -7.3290240000    -0.7407220000
   57      H       8.5713660000    -7.1774390000     0.9788360000
   58      H      11.0418590000    -7.0638560000     0.5277370000
   59      H      10.7369810000    -7.2055900000    -1.1918310000
   60      H       9.6804720000    -9.4528870000    -0.8196600000
   61      H       9.9847990000    -9.3108640000     0.9019270000
   62      H      12.2349260000    -9.6835450000     1.8150860000
   63      H      11.6128500000    -9.7385770000    -2.4231610000
   64      H      13.8883850000   -10.6573780000    -2.7352290000
   65      H      14.4778950000   -10.6029750000     1.5148840000
   66      H      16.5047670000   -10.6606740000     0.8332490000
   67      H      15.6068160000   -13.4264530000     0.0976650000
   68      H      15.5689040000   -12.6540510000     1.6719730000
   69      H      18.0624240000   -10.5859600000    -1.1040950000
   70      H      17.9201390000   -12.3255820000    -1.2785420000
   71      H      19.3176040000   -10.7390590000     0.9146700000
   72      H      19.8975750000   -12.1235630000     0.0148190000
   73      H      18.1971910000   -12.0397980000     2.5061190000
   74      H      19.4333990000   -13.1940230000     2.0545400000
   75      H      17.2219120000   -14.3099200000     2.0082620000
   76      H      17.8368940000   -14.1983350000     0.3729470000
 ----------------------------------------------------------------

   16   -1544.8613807072      7.41E-06 Convergence criterion met
 Total energy in the final basis set = -1544.86138071

                    Orbital Energies (a.u.)
 --------------------------------------------------------------

 Alpha MOs
 -- Occupied --
-19.1780 -19.1499 -19.1495 -19.1297 -10.2935 -10.2810 -10.2668 -10.2346
-10.2248 -10.2104 -10.2091 -10.2032 -10.2005 -10.1984 -10.1967 -10.1966
-10.1746 -10.1745 -10.1732 -10.1731 -10.1720 -10.1704 -10.1653 -10.1649
-10.1627 -10.1625 -10.1623 -10.1615 -10.1600 -10.1599 -10.1588 -10.1571
-10.1570 -10.1563 -10.1561 -10.1559  -1.1082  -1.0671  -1.0647  -1.0634
 -0.8922  -0.8609  -0.8435  -0.8292  -0.8108  -0.8014  -0.7885  -0.7797
 -0.7735  -0.7570  -0.7505  -0.7404  -0.7369  -0.7213  -0.7010  -0.6836
 -0.6609  -0.6509  -0.6354  -0.6267  -0.6176  -0.6078  -0.6046  -0.5994
 -0.5824  -0.5751  -0.5733  -0.5708  -0.5695  -0.5422  -0.5404  -0.5321
 -0.5182  -0.4974  -0.4915  -0.4870  -0.4816  -0.4776  -0.4732  -0.4712
 -0.4679  -0.4660  -0.4535  -0.4520  -0.4489  -0.4445  -0.4384  -0.4359
 -0.4291  -0.4279  -0.4264  -0.4217  -0.4210  -0.4141  -0.4126  -0.4083
 -0.4053  -0.3952  -0.3934  -0.3886  -0.3843  -0.3806  -0.3772  -0.3743
 -0.3733  -0.3713  -0.3687  -0.3611  -0.3601  -0.3547  -0.3494  -0.3450
 -0.3396  -0.3358  -0.3298  -0.3285  -0.3237  -0.3232  -0.3204  -0.3181
 -0.3172  -0.3165  -0.3054  -0.3016  -0.2996  -0.2951  -0.2893  -0.2799
 -0.2793  -0.2589  -0.2560  -0.2200

          Ground-State Mulliken Net Atomic Charges

     Atom                 Charge (a.u.)
  ----------------------------------------
      1 C                     0.142767
      2 C                    -0.397294
      3 C                    -0.403699
      4 C                     0.391885
      5 C                    -0.030152
      6 C                     0.170244
      7 C                    -0.721936
      8 C                    -0.498365
      9 C                     1.762630
     10 C                    -0.751071
     11 O                    -0.323573
     12 O                    -0.290825
     13 O                    -0.234261
     14 C                    -0.292345
     15 C                    -0.656599
     16 C                    -0.199110
     17 C                    -0.163440
     18 C                    -0.266635
     19 C                    -0.287371
     20 C                    -0.214306
     21 C                    -0.238759
     22 C                    -0.461929
     23 C                    -0.751368
     24 C                     1.294755
     25 C                    -0.431166
     26 C                    -0.505625
     27 C                    -0.180804
     28 C                    -0.380424
     29 C                    -0.042728
     30 O                    -0.044987
     31 C                    -0.019460
     32 C                    -0.059994
     33 C                    -0.599275
     34 C                    -0.503751
     35 C                    -0.297185
     36 C                    -0.469847
     37 H                     0.203494
     38 H                     0.226797
     39 H                     0.223261
     40 H                     0.200287
     41 H                     0.321693
     42 H                     0.236576
     43 H                     0.222841
     44 H                     0.182934
     45 H                     0.181698
     46 H                     0.121461
     47 H                     0.125451
     48 H                     0.131566
     49 H                     0.131452
     50 H                     0.138658
     51 H                     0.138800
     52 H                     0.138046
     53 H                     0.138861
     54 H                     0.128480
     55 H                     0.131646
     56 H                     0.127676
     57 H                     0.122397
     58 H                     0.160867
     59 H                     0.156967
     60 H                     0.178800
     61 H                     0.175770
     62 H                     0.209078
     63 H                     0.199177
     64 H                     0.210150
     65 H                     0.222032
     66 H                     0.202823
     67 H                     0.188633
     68 H                     0.135221
     69 H                     0.175387
     70 H                     0.186449
     71 H                     0.159967
     72 H                     0.164070
     73 H                     0.137740
     74 H                     0.188410
     75 H                     0.192704
     76 H                     0.137679
  ----------------------------------------
  Sum of atomic charges =     0.000000

                    Cartesian Multipole Moments
 -----------------------------------------------------------------
    Charge (ESU x 10^10)
                 0.0000
    Dipole Moment (Debye)
         X      -2.1614      Y       0.7720      Z       2.1804
       Tot       3.1658
    Quadrupole Moments (Debye-Ang)
        XX    -187.7210     XY     -25.1142     YY    -212.7489
        XZ      39.1871     YZ     -24.7623     ZZ    -221.6863

 Total job time:  1017.36s(wall), 6064.50s(cpu)
        *  Thank you very much for using Q-Chem.  Have a nice day.  *
