 Gaussian 16, Revision A.03,
 Gaussian 16:  ES64L-G16RevA.03 25-Dec-2016

 --------------------------------------
 #P UB3LYP/6-311++G(d,p) nosym opt freq
 --------------------------------------

 --------
 Oxidized
 --------
 Symbolic Z-matrix:
 Charge =  0 Multiplicity = 1

 SCF Done:  E(UB3LYP) =  -2015.24084823     A.U. after   20 cycles
 SCF Done:  E(UB3LYP) =  -2015.29890231     A.U. after   16 cycles
 SCF Done:  E(UB3LYP) =  -2015.33768269     A.U. after   17 cycles
 SCF Done:  E(UB3LYP) =  -2015.34515605     A.U. after   14 cycles
 SCF Done:  E(UB3LYP) =  -2015.34640191     A.U. after   14 cycles
 SCF Done:  E(UB3LYP) =  -2015.34701912     A.U. after   14 cycles
 SCF Done:  E(UB3LYP) =  -2015.34758605     A.U. after   17 cycles
 SCF Done:  E(UB3LYP) =  -2015.34783942     A.U. after   15 cycles
 SCF Done:  E(UB3LYP) =  -2015.34802505     A.U. after   15 cycles
 SCF Done:  E(UB3LYP) =  -2015.34809359     A.U. after   14 cycles
 SCF Done:  E(UB3LYP) =  -2015.34813386     A.U. after   14 cycles
 SCF Done:  E(UB3LYP) =  -2015.34814822     A.U. after   13 cycles
 SCF Done:  E(UB3LYP) =  -2015.34815861     A.U. after   12 cycles
 SCF Done:  E(UB3LYP) =  -2015.34816329     A.U. after   13 cycles
 SCF Done:  E(UB3LYP) =  -2015.34816485     A.U. after   11 cycles
 SCF Done:  E(UB3LYP) =  -2015.34816506     A.U. after   10 cycles
 Optimization completed.
    -- Stationary point found.
 Normal termination of Gaussian 16 at Thu Dec 21 21:07:43 2023.

 ----------------------------------------------------------------------
 #P Geom=AllCheck Guess=TCheck SCRF=Check GenChk UB3LYP/6-311++G(d,p) F
 req
 ----------------------------------------------------------------------

 Structure from the checkpoint file:  "217.chk"
 --------
 Oxidized
 --------
 Charge =  0 Multiplicity = 1

                          Input orientation:
 ---------------------------------------------------------------------
 Center     Atomic      Atomic             Coordinates (Angstroms)
 Number     Number       Type             X           Y           Z
 ---------------------------------------------------------------------
      1          6           0        4.991322   -2.056190    0.441946
      2          6           0        5.729960   -1.328140   -0.478404
      3          6           0        5.125307   -0.569355   -1.481691
      4          6           0        3.596997   -2.034450    0.354855
      5          6           0        2.970013   -1.279327   -0.651356
      6          6           0        3.739406   -0.549177   -1.562452
      7          6           0        2.805311   -2.822749    1.346116
      8          6           0        1.317141   -2.770955    1.230159
      9          6           0        0.684947   -2.017968    0.225567
     10          6           0        1.480311   -1.235087   -0.769179
     11          6           0        0.548346   -3.491122    2.147962
     12          6           0       -0.710667   -1.987911    0.145206
     13          6           0       -1.479173   -2.704019    1.053152
     14          8           0        3.350436   -3.482571    2.210769
     15          8           0        0.935210   -0.585818   -1.642686
     16          1           0        5.469457   -2.629337    1.226172
     17         16           0        7.522091   -1.353923   -0.373475
     18          1           0       -2.560869   -2.684153    1.012284
     19          1           0        3.233382    0.029311   -2.324963
     20          1           0        1.039491   -4.059425    2.927662
     21          1           0       -1.174548   -1.396355   -0.633901
     22          6           0       -0.833547   -3.448531    2.041429
     23         16           0       -1.826883   -4.372804    3.217171
     24          8           0       -1.097166   -4.529446    4.466452
     25          8           0       -3.182965   -3.842574    3.220997
     26          8           0       -1.812911   -5.800767    2.412731
     27          6           0       -2.459061   -6.914333    3.083067
     28          1           0       -1.962973   -7.122324    4.032108
     29          1           0       -2.339455   -7.753740    2.402207
     30          1           0       -3.518157   -6.700784    3.236344
     31          1           0        5.736497   -0.001891   -2.172031
     32          8           0        7.934186   -1.620473    0.996496
     33          8           0        8.061610   -0.208327   -1.092258
     34          8           0        7.755821   -2.706103   -1.269866
     35          6           0        9.127770   -3.167273   -1.378931
     36          1           0        9.522826   -3.412287   -0.392037
     37          1           0        9.743662   -2.410508   -1.867570
     38          1           0        9.070664   -4.061122   -1.995582
 ---------------------------------------------------------------------

 SCF Done:  E(UB3LYP) =  -2015.34816506     A.U. after    2 cycles

 Alpha  occ. eigenvalues --  -89.10081 -89.10080 -19.19283 -19.19280 -19.15520
 Alpha  occ. eigenvalues --  -19.15172 -19.14659 -19.14657 -19.14640 -19.14639
 Alpha  occ. eigenvalues --  -10.30709 -10.30471 -10.25598 -10.25597 -10.25042
 Alpha  occ. eigenvalues --  -10.25041 -10.24070 -10.24069 -10.23916 -10.23915
 Alpha  occ. eigenvalues --  -10.23551 -10.23550 -10.23444 -10.23444 -10.22797
 Alpha  occ. eigenvalues --  -10.22797  -8.16180  -8.16180  -6.12550  -6.12549
 Alpha  occ. eigenvalues --   -6.12353  -6.12352  -6.12267  -6.12267  -1.17038
 Alpha  occ. eigenvalues --   -1.17037  -1.09016  -1.08673  -1.06345  -1.06343
 Alpha  occ. eigenvalues --   -1.04093  -1.04092  -0.92934  -0.92063  -0.85515
 Alpha  occ. eigenvalues --   -0.82447  -0.81524  -0.80943  -0.76902  -0.75913
 Alpha  occ. eigenvalues --   -0.72115  -0.70951  -0.69149  -0.65976  -0.64875
 Alpha  occ. eigenvalues --   -0.63315  -0.61647  -0.59333  -0.59065  -0.55808
 Alpha  occ. eigenvalues --   -0.55535  -0.53740  -0.53377  -0.53369  -0.52059
 Alpha  occ. eigenvalues --   -0.50447  -0.50331  -0.49360  -0.48884  -0.48348
 Alpha  occ. eigenvalues --   -0.48195  -0.48085  -0.47511  -0.47414  -0.47259
 Alpha  occ. eigenvalues --   -0.46787  -0.46547  -0.44786  -0.44133  -0.43486
 Alpha  occ. eigenvalues --   -0.42499  -0.42170  -0.42035  -0.41085  -0.40318
 Alpha  occ. eigenvalues --   -0.40029  -0.36995  -0.36988  -0.36391  -0.36358
 Alpha  occ. eigenvalues --   -0.35027  -0.35023  -0.34854  -0.34841  -0.31895
 Alpha  occ. eigenvalues --   -0.31599  -0.31542  -0.31218  -0.30976  -0.30899
 Alpha  occ. eigenvalues --   -0.30680  -0.29708
 Alpha virt. eigenvalues --   -0.14514  -0.10641  -0.08231  -0.05855  -0.02254
 Alpha virt. eigenvalues --   -0.01720  -0.01293  -0.00406  -0.00198   0.00647
 Alpha virt. eigenvalues --    0.00826   0.01136   0.01278   0.02112   0.02163

  Beta  occ. eigenvalues --  -89.10081 -89.10080 -19.19283 -19.19280 -19.15520
  Beta  occ. eigenvalues --  -19.15172 -19.14659 -19.14657 -19.14640 -19.14639
  Beta  occ. eigenvalues --  -10.30709 -10.30471 -10.25598 -10.25597 -10.25042
  Beta  occ. eigenvalues --  -10.25041 -10.24070 -10.24069 -10.23916 -10.23915
  Beta  occ. eigenvalues --  -10.23551 -10.23550 -10.23444 -10.23444 -10.22797
  Beta  occ. eigenvalues --  -10.22797  -8.16180  -8.16180  -6.12550  -6.12549
  Beta  occ. eigenvalues --   -6.12353  -6.12352  -6.12267  -6.12267  -1.17038
  Beta  occ. eigenvalues --   -1.17037  -1.09016  -1.08673  -1.06345  -1.06343
  Beta  occ. eigenvalues --   -1.04093  -1.04092  -0.92934  -0.92063  -0.85515
  Beta  occ. eigenvalues --   -0.82447  -0.81524  -0.80943  -0.76902  -0.75913
  Beta  occ. eigenvalues --   -0.72115  -0.70951  -0.69149  -0.65976  -0.64875
  Beta  occ. eigenvalues --   -0.63315  -0.61647  -0.59333  -0.59065  -0.55808
  Beta  occ. eigenvalues --   -0.55535  -0.53740  -0.53377  -0.53369  -0.52059
  Beta  occ. eigenvalues --   -0.50447  -0.50331  -0.49360  -0.48884  -0.48348
  Beta  occ. eigenvalues --   -0.48195  -0.48085  -0.47511  -0.47414  -0.47259
  Beta  occ. eigenvalues --   -0.46787  -0.46547  -0.44786  -0.44133  -0.43486
  Beta  occ. eigenvalues --   -0.42499  -0.42170  -0.42035  -0.41085  -0.40318
  Beta  occ. eigenvalues --   -0.40029  -0.36995  -0.36988  -0.36391  -0.36358
  Beta  occ. eigenvalues --   -0.35027  -0.35023  -0.34854  -0.34841  -0.31895
  Beta  occ. eigenvalues --   -0.31599  -0.31542  -0.31218  -0.30976  -0.30899
  Beta  occ. eigenvalues --   -0.30680  -0.29708
  Beta virt. eigenvalues --   -0.14514  -0.10641  -0.08231  -0.05855  -0.02254
  Beta virt. eigenvalues --   -0.01720  -0.01293  -0.00406  -0.00198   0.00647
  Beta virt. eigenvalues --    0.00826   0.01136   0.01278   0.02112   0.02163

 Mulliken charges and spin densities:
               1          2
     1  C   -0.042996  -0.000000
     2  C   -0.696456   0.000000
     3  C   -0.251456   0.000000
     4  C    0.420278  -0.000000
     5  C    0.421933   0.000000
     6  C   -0.022846   0.000000
     7  C   -0.902954   0.000000
     8  C    0.416971  -0.000000
     9  C    0.419695   0.000000
    10  C   -0.492272   0.000000
    11  C   -0.046848  -0.000000
    12  C   -0.020658   0.000000
    13  C   -0.249496  -0.000000
    14  O   -0.167423  -0.000000
    15  O   -0.185270   0.000000
    16  H    0.246114  -0.000000
    17  S    0.258122   0.000000
    18  H    0.245636  -0.000000
    19  H    0.195699   0.000000
    20  H    0.245914   0.000000
    21  H    0.195741  -0.000000
    22  C   -0.695129   0.000000
    23  S    0.261307   0.000000
    24  O   -0.142674   0.000000
    25  O   -0.107434  -0.000000
    26  O   -0.034920  -0.000000
    27  C   -0.142188  -0.000000
    28  H    0.176276  -0.000000
    29  H    0.177030  -0.000000
    30  H    0.173787   0.000000
    31  H    0.245577  -0.000000
    32  O   -0.142151  -0.000000
    33  O   -0.108014  -0.000000
    34  O   -0.034419  -0.000000
    35  C   -0.141520  -0.000000
    36  H    0.176280  -0.000000
    37  H    0.173750   0.000000
    38  H    0.177015  -0.000000
 Sum of Mulliken charges =  -0.00000   0.00000

 Dipole moment (field-independent basis, Debye):
    X=             -0.6355    Y=             -3.0718    Z=             -4.2463  Tot=              5.2793
 Quadrupole moment (field-independent basis, Debye-Ang):
   XX=           -169.8366   YY=           -138.2803   ZZ=           -183.1529
   XY=             -9.1370   XZ=            -15.9217   YZ=             10.2646

  Exact polarizability: 360.047  32.059 209.231 -40.440 -65.194 225.904
 Approx polarizability: 484.515   2.807 332.057   5.669-119.993 397.025

                      1                      2                      3
                      A                      A                      A
 Frequencies --     14.0431                15.3837                24.9185
 Red. masses --      5.7061                 5.6331                 7.1182
 Frc consts  --      0.0007                 0.0008                 0.0026
 IR Inten    --      1.2587                 1.6537                 1.6290

                      4                      5                      6
                      A                      A                      A
 Frequencies --     40.9944                41.9044                50.0766
 Red. masses --      3.5120                 3.3017                 5.1648
 Frc consts  --      0.0035                 0.0034                 0.0076
 IR Inten    --      1.4416                 2.2251                 0.4106

                      7                      8                      9
                      A                      A                      A
 Frequencies --     66.5894                76.6649               111.9622
 Red. masses --      7.0732                11.3370                 4.5604
 Frc consts  --      0.0185                 0.0393                 0.0337
 IR Inten    --      2.7799                 3.9283                 0.0379

                     10                     11                     12
                      A                      A                      A
 Frequencies --    121.1648               129.7015               142.1238
 Red. masses --      5.7784                 7.8328                 1.1882
 Frc consts  --      0.0500                 0.0776                 0.0141
 IR Inten    --      3.4945                 0.9833                 1.0366

                     13                     14                     15
                      A                      A                      A
 Frequencies --    143.1797               149.3933               182.9926
 Red. masses --      1.1500                 4.9673                 5.4644
 Frc consts  --      0.0139                 0.0653                 0.1078
 IR Inten    --      0.3343                 5.1619                 1.4057

                     16                     17                     18
                      A                      A                      A
 Frequencies --    184.4650               218.0999               237.4950
 Red. masses --     11.7274                10.6104                 4.9133
 Frc consts  --      0.2351                 0.2974                 0.1633
 IR Inten    --      0.9017                 0.8975                16.3908

                     19                     20                     21
                      A                      A                      A
 Frequencies --    252.0214               259.8894               265.2305
 Red. masses --      9.5913                 7.2007                 7.8372
 Frc consts  --      0.3589                 0.2865                 0.3248
 IR Inten    --      0.9119                 8.3929                 4.6595

                     22                     23                     24
                      A                      A                      A
 Frequencies --    319.0183               348.7686               363.1306
 Red. masses --      5.5931                 5.7570                 7.0619
 Frc consts  --      0.3354                 0.4126                 0.5487
 IR Inten    --      5.0704                 2.5266                 8.1715

                     25                     26                     27
                      A                      A                      A
 Frequencies --    369.8261               402.7309               414.4861
 Red. masses --      7.2172                10.5352                 3.5014
 Frc consts  --      0.5816                 1.0067                 0.3544
 IR Inten    --      0.4044                40.1894                 0.2915

                     28                     29                     30
                      A                      A                      A
 Frequencies --    425.7953               450.5429               454.0327
 Red. masses --      8.5413                 3.3121                10.4277
 Frc consts  --      0.9124                 0.3961                 1.2665
 IR Inten    --      0.6312                 0.2534                44.9959

                     31                     32                     33
                      A                      A                      A
 Frequencies --    465.3153               475.5638               476.0777
 Red. masses --      9.5982                10.3088                11.5618
 Frc consts  --      1.2244                 1.3737                 1.5439
 IR Inten    --      8.3876                 2.1102                 4.0424

                     34                     35                     36
                      A                      A                      A
 Frequencies --    493.5354               495.8640               519.5270
 Red. masses --      9.4893                 8.8198                 7.6788
 Frc consts  --      1.3618                 1.2777                 1.2211
 IR Inten    --      2.0756                 0.7288                13.3999

                     37                     38                     39
                      A                      A                      A
 Frequencies --    568.5097               614.6443               616.8889
 Red. masses --      5.8159                 9.0359                10.0290
 Frc consts  --      1.1075                 2.0113                 2.2486
 IR Inten    --      5.7206                46.5214               147.4462

                     40                     41                     42
                      A                      A                      A
 Frequencies --    658.5142               665.5770               684.6578
 Red. masses --      7.6727                 4.8868                 6.1271
 Frc consts  --      1.9603                 1.2755                 1.6922
 IR Inten    --     39.5486                23.2109                72.5028

                     43                     44                     45
                      A                      A                      A
 Frequencies --    694.1816               702.1137               715.9885
 Red. masses --      9.5248                 6.8859                 7.7774
 Frc consts  --      2.7043                 2.0000                 2.3491
 IR Inten    --    108.2928                65.4820               249.5413

                     46                     47                     48
                      A                      A                      A
 Frequencies --    730.9484               749.7660               758.7693
 Red. masses --      4.4918                 8.5422                 6.0408
 Frc consts  --      1.4140                 2.8292                 2.0491
 IR Inten    --      1.5493               124.9187                 3.5569

                     49                     50                     51
                      A                      A                      A
 Frequencies --    810.4537               858.1813               869.6608
 Red. masses --      4.5671                 7.5273                 1.3381
 Frc consts  --      1.7675                 3.2663                 0.5963
 IR Inten    --      0.0561                19.2728                 0.3389

                     52                     53                     54
                      A                      A                      A
 Frequencies --    887.1543               942.3160               953.9496
 Red. masses --      1.6007                 7.0484                 1.3960
 Frc consts  --      0.7423                 3.6875                 0.7485
 IR Inten    --     15.4806               118.7165                 1.9425

                     55                     56                     57
                      A                      A                      A
 Frequencies --    962.9301               985.1392               987.9711
 Red. masses --      1.4893                 9.9626                 9.6218
 Frc consts  --      0.8136                 5.6967                 5.5334
 IR Inten    --      2.9653               443.7692               323.2473

                     58                     59                     60
                      A                      A                      A
 Frequencies --    993.7136              1015.3877              1017.2459
 Red. masses --      5.4490                 1.3521                 1.3661
 Frc consts  --      3.1702                 0.8213                 0.8329
 IR Inten    --      3.5152                 0.4703                 0.6001

                     61                     62                     63
                      A                      A                      A
 Frequencies --   1085.6021              1086.9048              1114.8315
 Red. masses --      2.4392                 2.3304                 6.1772
 Frc consts  --      1.6937                 1.6220                 4.5233
 IR Inten    --     24.3309                 1.1322                91.0682

                     64                     65                     66
                      A                      A                      A
 Frequencies --   1127.9266              1140.1499              1144.5721
 Red. masses --      3.0732                 2.6865                 2.5459
 Frc consts  --      2.3036                 2.0576                 1.9651
 IR Inten    --    215.5073               244.1327                57.2149

                     67                     68                     69
                      A                      A                      A
 Frequencies --   1166.1457              1166.3370              1183.6828
 Red. masses --      1.2587                 1.2586                 1.5931
 Frc consts  --      1.0085                 1.0088                 1.3152
 IR Inten    --      1.7495                 1.7086                17.9266

                     70                     71                     72
                      A                      A                      A
 Frequencies --   1185.6320              1186.1197              1189.3998
 Red. masses --      2.0840                 1.3507                 2.4871
 Frc consts  --      1.7260                 1.1196                 2.0730
 IR Inten    --      4.1916                19.6095                37.0463

                     73                     74                     75
                      A                      A                      A
 Frequencies --   1229.3214              1274.9817              1286.4836
 Red. masses --      1.8060                 1.4386                 2.0691
 Frc consts  --      1.6081                 1.3779                 2.0176
 IR Inten    --      4.2648                25.9750               159.4914

                     76                     77                     78
                      A                      A                      A
 Frequencies --   1305.1365              1310.8187              1311.8729
 Red. masses --      4.7363                13.8123                14.5376
 Frc consts  --      4.7534                13.9830                14.7410
 IR Inten    --    435.1539               115.9436               264.1671

                     79                     80                     81
                      A                      A                      A
 Frequencies --   1350.2884              1361.0499              1423.2864
 Red. masses --      8.0669                 9.4995                 3.8262
 Frc consts  --      8.6658                10.3681                 4.5667
 IR Inten    --     41.0185                 0.2275                 1.8916

                     82                     83                     84
                      A                      A                      A
 Frequencies --   1441.6081              1461.7985              1461.9378
 Red. masses --      4.7952                 1.1345                 1.1344
 Frc consts  --      5.8716                 1.4284                 1.4284
 IR Inten    --      2.5392                 1.8304                 0.8384

                     85                     86                     87
                      A                      A                      A
 Frequencies --   1485.6096              1485.6503              1495.3961
 Red. masses --      1.0459                 1.0458                 2.5989
 Frc consts  --      1.3600                 1.3600                 3.4241
 IR Inten    --      5.3598                 9.6215                10.6227

                     88                     89                     90
                      A                      A                      A
 Frequencies --   1502.2673              1502.4687              1502.5528
 Red. masses --      2.0072                 1.0666                 1.1598
 Frc consts  --      2.6689                 1.4186                 1.5428
 IR Inten    --      5.7397                 1.7242                20.9667

                     91                     92                     93
                      A                      A                      A
 Frequencies --   1599.5286              1613.5456              1622.9366
 Red. masses --      7.7060                 8.5686                 6.3732
 Frc consts  --     11.6162                13.1439                 9.8904
 IR Inten    --      0.3249                 3.9596                95.7614

                     94                     95                     96
                      A                      A                      A
 Frequencies --   1628.9825              1731.0066              1740.3754
 Red. masses --      6.2423                12.8269                12.4085
 Frc consts  --      9.7595                22.6448                22.1439
 IR Inten    --      1.5001                 8.4346               305.9400

                     97                     98                     99
                      A                      A                      A
 Frequencies --   3046.7446              3046.8266              3128.0154
 Red. masses --      1.0292                 1.0292                 1.1090
 Frc consts  --      5.6291                 5.6294                 6.3931
 IR Inten    --     49.4137                32.0258                 8.5698

                    100                    101                    102
                      A                      A                      A
 Frequencies --   3128.0768              3158.9599              3159.0303
 Red. masses --      1.1090                 1.1054                 1.1054
 Frc consts  --      6.3934                 6.4994                 6.4997
 IR Inten    --      9.2832                 4.6049                 4.8939

                    103                    104                    105
                      A                      A                      A
 Frequencies --   3199.2178              3199.4239              3209.7783
 Red. masses --      1.0888                 1.0889                 1.0917
 Frc consts  --      6.5658                 6.5674                 6.6267
 IR Inten    --      7.7953                 0.6328                 0.9246

                    106                    107                    108
                      A                      A                      A
 Frequencies --   3210.0829              3211.0662              3211.2995
 Red. masses --      1.0920                 1.0951                 1.0951
 Frc consts  --      6.6296                 6.6528                 6.6534
 IR Inten    --     14.8768                 0.2250                 0.9850

 - Thermochemistry -
 -------------------
 Temperature   298.150 Kelvin.  Pressure   1.00000 Atm.
 Atom     1 has atomic number  6 and mass  12.00000

 Molecular mass:   395.99736 amu.
 Principal axes and moments of inertia in atomic units:
                           1         2         3
     Eigenvalues --  3991.67730********************
           X            0.89371  -0.44555   0.05265
           Y            0.28870   0.66093   0.69269
           Z           -0.34343  -0.60386   0.71931
 This molecule is an asymmetric top.
 Rotational symmetry number  1.
 Warning -- assumption of classical behavior for rotation
           may cause significant error
 Rotational temperatures (Kelvin)      0.02170     0.00331     0.00302
 Rotational constants (GHZ):           0.45213     0.06893     0.06283
 Zero-point vibrational energy     690615.5 (Joules/Mol)
                                  165.06108 (Kcal/Mol)
 Warning -- explicit consideration of  39 degrees of freedom as
           vibrations may cause significant error
 Vibrational temperatures:     20.20    22.13    35.85    58.98    60.29
          (Kelvin)             72.05    95.81   110.30   161.09   174.33
                              186.61   204.48   206.00   214.94   263.29
                              265.40   313.80   341.70   362.60   373.92
                              381.61   459.00   501.80   522.46   532.10
                              579.44   596.35   612.62   648.23   653.25
                              669.48   684.23   684.97   710.09   713.44
                              747.48   817.96   884.34   887.57   947.46
                              957.62   985.07   998.77  1010.19  1030.15
                             1051.67  1078.75  1091.70  1166.06  1234.73
                             1251.25  1276.42  1355.78  1372.52  1385.44
                             1417.40  1421.47  1429.73  1460.92  1463.59
                             1561.94  1563.81  1603.99  1622.83  1640.42
                             1646.78  1677.82  1678.10  1703.06  1705.86
                             1706.56  1711.28  1768.72  1834.41  1850.96
                             1877.80  1885.98  1887.49  1942.76  1958.25
                             2047.79  2074.15  2103.20  2103.40  2137.46
                             2137.52  2151.54  2161.43  2161.72  2161.84
                             2301.36  2321.53  2335.04  2343.74  2490.53
                             2504.01  4383.59  4383.70  4500.52  4500.60
                             4545.04  4545.14  4602.96  4603.26  4618.16
                             4618.59  4620.01  4620.34

 Zero-point correction=                           0.263042 (Hartree/Particle)
 Thermal correction to Energy=                    0.287101
 Thermal correction to Enthalpy=                  0.288045
 Thermal correction to Gibbs Free Energy=         0.204981
 Sum of electronic and zero-point Energies=          -2015.085123
 Sum of electronic and thermal Energies=             -2015.061064
 Sum of electronic and thermal Enthalpies=           -2015.060120
 Sum of electronic and thermal Free Energies=        -2015.143184

                     E (Thermal)             CV                S
                      KCal/Mol        Cal/Mol-Kelvin    Cal/Mol-Kelvin
 Total                  180.159             87.930            174.823
 Electronic               0.000              0.000              0.000
 Translational            0.889              2.981             43.820
 Rotational               0.889              2.981             36.349
 Vibrational            178.381             81.969             94.653
 Vibration     1          0.593              1.986              7.336
 Vibration     2          0.593              1.986              7.155
 Vibration     3          0.593              1.985              6.198
 Vibration     4          0.594              1.981              5.210
 Vibration     5          0.595              1.980              5.167
 Vibration     6          0.595              1.978              4.814
 Vibration     7          0.598              1.970              4.252
 Vibration     8          0.599              1.965              3.974
 Vibration     9          0.607              1.940              3.235
 Vibration    10          0.609              1.932              3.082
 Vibration    11          0.612              1.924              2.950
 Vibration    12          0.616              1.911              2.775
 Vibration    13          0.616              1.910              2.761
 Vibration    14          0.618              1.903              2.680
 Vibration    15          0.630              1.863              2.298
 Vibration    16          0.631              1.861              2.283
 Vibration    17          0.646              1.813              1.975
 Vibration    18          0.656              1.783              1.822
 Vibration    19          0.664              1.759              1.716
 Vibration    20          0.668              1.746              1.663
 Vibration    21          0.671              1.737              1.627
 Vibration    22          0.705              1.637              1.315
 Vibration    23          0.726              1.578              1.172
 Vibration    24          0.737              1.548              1.109
 Vibration    25          0.742              1.534              1.081
 Vibration    26          0.768              1.464              0.953
 Vibration    27          0.778              1.439              0.911
 Vibration    28          0.788              1.414              0.873
 Vibration    29          0.809              1.360              0.794
 Vibration    30          0.812              1.352              0.784
 Vibration    31          0.823              1.327              0.751
 Vibration    32          0.832              1.304              0.722
 Vibration    33          0.833              1.303              0.721
 Vibration    34          0.849              1.264              0.674
 Vibration    35          0.851              1.259              0.669
 Vibration    36          0.875              1.207              0.611
 Vibration    37          0.925              1.099              0.507
 Vibration    38          0.974              1.001              0.425
 Vibration    39          0.977              0.996              0.422

                           ! Non-Optimized Parameters !
 Normal termination of Gaussian 16 at Thu Dec 21 23:10:02 2023.
