 Q-Chem 5.4, Q-Chem, Inc., Pleasanton, CA (2021)
 Q-Chem 5.4.0 for Intel X86 EM64T Linux

User input:
--------------------------------------------------------------
$molecule
-1 2
C                  5.0468290000     -2.5047400000      0.0935290000
C                  5.7636650000     -1.5464220000     -0.5964450000
C                  5.0835700000     -0.5091140000     -1.2674090000
C                  3.6378420000     -2.4665720000      0.1399570000
C                  2.9513620000     -1.4214030000     -0.5363410000
C                  3.7040360000     -0.4527980000     -1.2345340000
C                  2.9206270000     -3.5100100000      0.8868300000
C                  1.4591400000     -3.4071550000      0.8855080000
C                  0.7723190000     -2.3524930000      0.2080130000
C                  1.4861850000     -1.3171480000     -0.5291280000
C                  0.7127900000     -4.3770990000      1.5800930000
C                 -0.6424910000     -2.3166390000      0.2562410000
C                 -1.3662540000     -3.2631880000      0.9417990000
O                  3.5230430000     -4.4247700000      1.4890620000
O                  0.8869010000     -0.3883340000     -1.1247950000
H                  5.5413550000     -3.3137270000      0.6185270000
H                 -2.4481750000     -3.2373520000      0.9692010000
H                  3.1562140000      0.3331610000     -1.7411080000
H                  1.2464770000     -5.1763480000      2.0791220000
H                 -1.1373430000     -1.5107870000     -0.2726890000
C                 -0.6660030000     -4.3010120000      1.6064410000
H                  5.6460130000      0.2446690000     -1.8101800000
H                  6.8481350000     -1.5905870000     -0.6231380000
S                 -1.5849650000     -5.4912260000      2.5492860000
O                 -0.7340650000     -6.6521460000      2.8334000000
O                 -2.9194380000     -5.6931710000      1.9736650000
N                 -1.8967380000     -4.6406680000      4.0066630000
H                 -1.0872690000     -4.7072380000      4.6186160000
H                 -2.7021250000     -5.0775320000      4.4486320000
$end
$rem
MAX_SCF_CYCLES=200
BASIS  =  6-311++G(d,p)
GUI  =  2
JOB_TYPE  =  SP
METHOD  =  B3LYP
SOLVENT_METHOD = COSMO
$end
$solvent
dielectric 37.219
opticaldielectric 1.43
$end

--------------------------------------------------------------

             Standard Nuclear Orientation (Angstroms)
    I     Atom           X                Y                Z
 ----------------------------------------------------------------
    1      C       3.6711755931    -1.7544990575     0.0119869648
    2      C       4.9869527399    -1.3356633339     0.0519681753
    3      C       5.2843180267     0.0426468636     0.0757309812
    4      C       2.6114393586    -0.8241905761    -0.0065053148
    5      C       2.9102365085     0.5654755320     0.0171671373
    6      C       4.2616451631     0.9706603850     0.0584847465
    7      C       1.2282308810    -1.3199887830    -0.0500706635
    8      C       0.1819218601    -0.2946777733    -0.0724294709
    9      C       0.4857971780     1.1017096297    -0.0442070141
   10      C       1.8582945537     1.5905915801     0.0023352396
   11      C      -1.1639027835    -0.7033813246    -0.1170998619
   12      C      -0.5802500419     2.0336388780    -0.0629149344
   13      C      -1.8933970274     1.6286106121    -0.0999926800
   14      O       0.9635954236    -2.5415418053    -0.0623411465
   15      O       2.1296957665     2.8162845240     0.0282991212
   16      H       3.4115618778    -2.8065795696    -0.0071479729
   17      H      -2.7054556458     2.3441575354    -0.1229016223
   18      H       4.4617397198     2.0356054244     0.0761466329
   19      H      -1.3782398476    -1.7643554262    -0.1494154844
   20      H      -0.3208330159     3.0855641787    -0.0488131217
   21      C      -2.1732203377     0.2393336845    -0.1280575972
   22      H       6.3182405711     0.3730320584     0.1070533857
   23      H       5.7912986942    -2.0647714344     0.0648990611
   24      S      -3.8648902618    -0.2972976027    -0.1097014912
   25      O      -3.9349003261    -1.7071654542    -0.5095240188
   26      O      -4.7306276294     0.6875293557    -0.7681498027
   27      N      -4.2759394625    -0.1527219699     1.5500380896
   28      H      -3.9570049313    -0.9775995026     2.0520499640
   29      H      -5.2890429064    -0.0816886928     1.6084389168
 ----------------------------------------------------------------

   10   -1293.0486899195      6.65e-06  Convergence criterion met
 Total energy in the final basis set =    -1293.0486899195
    4   -1293.1365484495      9.38e-06  Convergence criterion met
 Total energy in the final basis set =    -1293.1365484495

                    Orbital Energies (a.u.)
 --------------------------------------------------------------

 Alpha MOs
 -- Occupied --
-89.0791 -19.1337 -19.1332 -19.0903 -19.0868 -14.3423 -10.2394 -10.2338
-10.2178 -10.1974 -10.1929 -10.1875 -10.1869 -10.1837 -10.1815 -10.1810
-10.1778 -10.1771 -10.1752 -10.1744  -8.1409  -6.1037  -6.1036  -6.1017
 -1.1349  -1.0260  -1.0194  -1.0135  -0.9100  -0.8797  -0.8620  -0.8047
 -0.7744  -0.7569  -0.7560  -0.6989  -0.6709  -0.6413  -0.6174  -0.5986
 -0.5689  -0.5544  -0.5422  -0.5249  -0.5200  -0.4982  -0.4872  -0.4740
 -0.4677  -0.4623  -0.4435  -0.4337  -0.4310  -0.4273  -0.4253  -0.4179
 -0.4018  -0.3930  -0.3829  -0.3736  -0.3682  -0.3573  -0.3536  -0.3494
 -0.3428  -0.3360  -0.3258  -0.3024  -0.2800  -0.2757  -0.2624  -0.2593
 -0.2591  -0.2493  -0.1542

 Beta MOs
 -- Occupied --
-89.0791 -19.1336 -19.1332 -19.0853 -19.0809 -14.3422 -10.2380 -10.2321
-10.2171 -10.1978 -10.1919 -10.1864 -10.1855 -10.1838 -10.1810 -10.1804
-10.1776 -10.1767 -10.1752 -10.1742  -8.1409  -6.1037  -6.1035  -6.1017
 -1.1347  -1.0259  -1.0106  -1.0031  -0.9098  -0.8773  -0.8606  -0.8007
 -0.7722  -0.7549  -0.7544  -0.6952  -0.6660  -0.6393  -0.6154  -0.5979
 -0.5670  -0.5528  -0.5405  -0.5244  -0.5192  -0.4968  -0.4854  -0.4723
 -0.4666  -0.4618  -0.4432  -0.4292  -0.4261  -0.4210  -0.4208  -0.4158
 -0.3996  -0.3794  -0.3729  -0.3700  -0.3672  -0.3562  -0.3497  -0.3429
 -0.3413  -0.3355  -0.3253  -0.2999  -0.2702  -0.2606  -0.2554  -0.2542
 -0.2530  -0.2441

          Ground-State Mulliken Net Atomic Charges

     Atom                 Charge (a.u.)    Spin (a.u.)
  --------------------------------------------------------
      1 C                     0.074788       0.015802
      2 C                    -0.476108       0.036161
      3 C                    -0.499519       0.017655
      4 C                     0.285364       0.022046
      5 C                     0.299381       0.005432
      6 C                     0.080686       0.037235
      7 C                    -0.672959       0.078307
      8 C                     0.275315       0.076742
      9 C                     0.610331       0.091601
     10 C                    -0.348968       0.102398
     11 C                    -0.084943      -0.019429
     12 C                    -0.142670       0.019292
     13 C                    -0.374539       0.087572
     14 O                    -0.449316       0.184468
     15 O                    -0.469126       0.215401
     16 H                     0.180485      -0.001087
     17 H                     0.276820      -0.005049
     18 H                     0.182031      -0.002355
     19 H                     0.237942       0.001129
     20 H                     0.183764      -0.000548
     21 C                    -0.435058       0.034194
     22 H                     0.207974      -0.001702
     23 H                     0.208761      -0.002782
     24 S                     0.301284       0.006665
     25 O                    -0.283927       0.002227
     26 O                    -0.353577      -0.002618
     27 N                    -0.481540       0.000306
     28 H                     0.321521      -0.000289
     29 H                     0.345798       0.001226
  --------------------------------------------------------
  Sum of atomic charges =    -1.000006

                    Cartesian Multipole Moments
 -----------------------------------------------------------------
    Charge (ESU x 10^10)
                -4.8032
    Dipole Moment (Debye)
         X      -0.6539      Y      -0.5678      Z       4.0346
       Tot       4.1265
    Quadrupole Moments (Debye-Ang)
        XX    -147.0365     XY      -9.9006     YY    -159.2461
        XZ     -19.4757     YZ      -4.9133     ZZ    -127.0205

 Total job time:  96.86s(wall), 737.37s(cpu)
        *  Thank you very much for using Q-Chem.  Have a nice day.  *
