 Q-Chem 5.4, Q-Chem, Inc., Pleasanton, CA (2021)
 Q-Chem 5.4.0 for Intel X86 EM64T Linux

User input:
--------------------------------------------------------------
$molecule
-1 2
C                  2.1492100000      3.8069790000      5.5284840000
C                  3.0460600000      3.1849580000      4.5880320000
C                  2.6180960000      2.2918570000      3.6425020000
C                  1.2262000000      1.9125630000      3.5270820000
C                  0.3275150000      2.5486920000      4.4722080000
C                  0.7383190000      3.4485550000      5.4233110000
O                  2.5694130000      4.6252410000      6.4147070000
O                  0.8160220000      1.0875000000      2.6613580000
C                 -0.2180450000      4.1712740000      6.3664000000
C                 -1.6315560000      3.6067010000      6.4271890000
O                  0.2838340000      4.1905330000      7.7075520000
H                  4.0941450000      3.4593940000      4.6713630000
H                  3.3123580000      1.8318430000      2.9447740000
H                 -0.7165980000      2.2689020000      4.3771500000
H                 -0.2849100000      5.2151650000      6.0109560000
H                 -2.1376290000      3.6812950000      5.4614400000
H                 -2.2056630000      4.1736620000      7.1649850000
H                 -1.6151230000      2.5578130000      6.7356150000
H                  1.2201160000      4.4622640000      7.5939030000
$end
$rem
MAX_SCF_CYCLES=200
BASIS  =  6-311++G(d,p)
GUI  =  2
JOB_TYPE  =  SP
METHOD  =  B3LYP
SOLVENT_METHOD = COSMO
$end
$solvent
dielectric 37.219
opticaldielectric 1.43
$end

--------------------------------------------------------------

             Standard Nuclear Orientation (Angstroms)
    I     Atom           X                Y                Z
 ----------------------------------------------------------------
    1      C       0.0438325328    -1.3170518619    -0.1004859130
    2      C      -1.3528484101    -1.6587281116    -0.0097131440
    3      C      -2.3395157442    -0.7119540024     0.0604004793
    4      C      -2.0395250482     0.7038192402     0.0480758089
    5      C      -0.6316223610     1.0406856024    -0.0513679809
    6      C       0.3696987079     0.1053673979    -0.1265094143
    7      O       0.9515923208    -2.2143949059    -0.1480474137
    8      O      -2.9389328583     1.5898548038     0.1148557533
    9      C       1.8419314432     0.4615852447    -0.3054265296
   10      C       2.1964157618     1.9244781651    -0.0714682148
   11      O       2.6777041109    -0.3158902813     0.5594191106
   12      H      -1.5869308202    -2.7197144208     0.0062498706
   13      H      -3.3869088789    -0.9918308252     0.1316293522
   14      H      -0.4108158221     2.1029527786    -0.0693497208
   15      H       2.1036198352     0.2120980268    -1.3493590460
   16      H       1.6972384602     2.5802879279    -0.7891595508
   17      H       3.2772119909     2.0468856243    -0.1822945907
   18      H       1.9168530837     2.2322219027     0.9398186776
   19      H       2.3366222711    -1.2286679933     0.4416148571
 ----------------------------------------------------------------

    9    -535.5478046772      8.01e-06  Convergence criterion met
 Total energy in the final basis set =     -535.5478046772
    4    -535.6341861761      8.69e-06  Convergence criterion met
 Total energy in the final basis set =     -535.6341861761

                    Orbital Energies (a.u.)
 --------------------------------------------------------------

 Alpha MOs
 -- Occupied --
-19.1084 -19.0912 -19.0880 -10.2295 -10.2270 -10.2214 -10.1775 -10.1689
-10.1682 -10.1675 -10.1540  -1.0241  -1.0077  -0.9988  -0.8318  -0.7719
 -0.7257  -0.6908  -0.6310  -0.5836  -0.5650  -0.5050  -0.4815  -0.4788
 -0.4601  -0.4360  -0.4154  -0.4130  -0.4030  -0.3878  -0.3842  -0.3788
 -0.3661  -0.3600  -0.3450  -0.2920  -0.2760  -0.2616  -0.2546  -0.2458
 -0.1734

 Beta MOs
 -- Occupied --
-19.1084 -19.0847 -19.0808 -10.2275 -10.2258 -10.2214 -10.1767 -10.1680
-10.1669 -10.1663 -10.1540  -1.0204  -0.9951  -0.9906  -0.8258  -0.7699
 -0.7239  -0.6805  -0.6276  -0.5803  -0.5619  -0.5039  -0.4776  -0.4763
 -0.4572  -0.4336  -0.4073  -0.4025  -0.3953  -0.3822  -0.3786  -0.3668
 -0.3620  -0.3547  -0.3390  -0.2764  -0.2580  -0.2539  -0.2483  -0.2402

          Ground-State Mulliken Net Atomic Charges

     Atom                 Charge (a.u.)    Spin (a.u.)
  --------------------------------------------------------
      1 C                    -0.632580       0.112219
      2 C                     0.053913       0.066900
      3 C                     0.061564       0.107358
      4 C                    -0.333224       0.135484
      5 C                    -1.230783       0.039452
      6 C                     1.607651       0.053451
      7 O                    -0.509437       0.227890
      8 O                    -0.529605       0.247591
      9 C                    -0.233061       0.029476
     10 C                    -0.531973      -0.002520
     11 O                    -0.341791       0.002991
     12 H                     0.208729      -0.006353
     13 H                     0.210688      -0.008223
     14 H                     0.179326      -0.007829
     15 H                     0.204171       0.005853
     16 H                     0.161076      -0.000808
     17 H                     0.171763      -0.000145
     18 H                     0.167262       0.000227
     19 H                     0.316310      -0.003012
  --------------------------------------------------------
  Sum of atomic charges =    -1.000000

                    Cartesian Multipole Moments
 -----------------------------------------------------------------
    Charge (ESU x 10^10)
                -4.8032
    Dipole Moment (Debye)
         X       2.3537      Y       0.7836      Z      -1.5321
       Tot       2.9157
    Quadrupole Moments (Debye-Ang)
        XX    -101.3562     XY      20.8257     YY     -83.2485
        XZ      -3.2186     YZ      -2.2478     ZZ     -69.9509

 Total job time:  26.36s(wall), 182.40s(cpu)
        *  Thank you very much for using Q-Chem.  Have a nice day.  *
