 Gaussian 16, Revision A.03,
 Gaussian 16:  ES64L-G16RevA.03 25-Dec-2016

 ----------------------------------------------------------------
 #P UB3LYP/6-311++G(d,p) SCRF=(PCM,Solvent=n,n-DiMethylFormamide)
 ----------------------------------------------------------------

 ------------------
 Radical PCM in DMF
 ------------------
 Symbolic Z-matrix:
 Charge = -1 Multiplicity = 2

                         Standard orientation:
 ---------------------------------------------------------------------
 Center     Atomic      Atomic             Coordinates (Angstroms)
 Number     Number       Type             X           Y           Z
 ---------------------------------------------------------------------
      1          6           0       -0.729133   -1.095745   -0.140813
      2          6           0        0.713756   -1.019488   -0.034420
      3          6           0        1.428196    0.154682    0.038922
      4          6           0        0.751533    1.452420   -0.051751
      5          6           0       -0.693205    1.374916   -0.132613
      6          6           0       -1.410185    0.201329   -0.138647
      7          8           0       -1.309579   -2.201985   -0.268238
      8          8           0        1.346228    2.554463   -0.097717
      9          1           0        1.228466   -1.972893   -0.009928
     10          6           0       -2.890463    0.318145   -0.182633
     11          8           0       -3.510461    1.185877   -0.768338
     12          8           0       -3.517759   -0.625422    0.559311
     13          6           0       -4.944412   -0.592134    0.528361
     14          1           0       -5.268370   -1.430192    1.144548
     15          1           0       -5.313788   -0.708545   -0.493226
     16          1           0       -5.325987    0.349037    0.932689
     17          6           0        2.895560    0.104131    0.245038
     18          8           0        3.464688   -0.963224   -0.411486
     19          8           0        3.566069    0.850895    0.918530
     20          6           0        4.865923   -1.132725   -0.196751
     21          1           0       -1.215844    2.323722   -0.186300
     22          1           0        5.150548   -2.005813   -0.783895
     23          1           0        5.084113   -1.300149    0.861280
     24          1           0        5.421956   -0.253190   -0.529823
 ---------------------------------------------------------------------

 SCF Done:  E(UB3LYP) =  -837.616008052     A.U. after   19 cycles

 The electronic state is 2-A.
 Alpha  occ. eigenvalues --  -19.17042 -19.16842 -19.12013 -19.11840 -19.09108
 Alpha  occ. eigenvalues --  -19.09055 -10.30948 -10.30921 -10.23996 -10.23975
 Alpha  occ. eigenvalues --  -10.22084 -10.21999 -10.19357 -10.19320 -10.18461
 Alpha  occ. eigenvalues --  -10.18415  -1.11338  -1.10969  -1.02676  -1.02521
 Alpha  occ. eigenvalues --   -1.01659  -1.01417  -0.84689  -0.79422  -0.74004
 Alpha  occ. eigenvalues --   -0.72252  -0.69796  -0.64953  -0.60235  -0.57980
 Alpha  occ. eigenvalues --   -0.55989  -0.52387  -0.51012  -0.50330  -0.48785
 Alpha  occ. eigenvalues --   -0.48528  -0.47985  -0.46825  -0.44872  -0.44378
 Alpha  occ. eigenvalues --   -0.42945  -0.42079  -0.41841  -0.40654  -0.40128
 Alpha  occ. eigenvalues --   -0.39384  -0.38759  -0.37953  -0.36467  -0.36330
 Alpha  occ. eigenvalues --   -0.31351  -0.31245  -0.30185  -0.29896  -0.29181
 Alpha  occ. eigenvalues --   -0.27454  -0.25541  -0.24682  -0.17908
 Alpha virt. eigenvalues --   -0.06545  -0.00379  -0.00172   0.00280   0.00313
 Alpha virt. eigenvalues --    0.01574   0.01887   0.03167   0.03500   0.03693
 Alpha virt. eigenvalues --    0.03746   0.04678   0.05178   0.05573   0.05883

  Beta  occ. eigenvalues --  -19.17034 -19.16841 -19.11994 -19.11832 -19.08403
  Beta  occ. eigenvalues --  -19.08335 -10.30947 -10.30922 -10.23913 -10.23892
  Beta  occ. eigenvalues --  -10.22084 -10.21999 -10.19300 -10.19263 -10.18263
  Beta  occ. eigenvalues --  -10.18220  -1.11320  -1.10953  -1.02597  -1.02495
  Beta  occ. eigenvalues --   -1.00490  -1.00190  -0.84107  -0.79206  -0.73898
  Beta  occ. eigenvalues --   -0.72001  -0.68946  -0.64681  -0.59855  -0.57876
  Beta  occ. eigenvalues --   -0.55907  -0.52271  -0.50744  -0.50096  -0.48719
  Beta  occ. eigenvalues --   -0.48481  -0.47920  -0.46733  -0.44630  -0.44128
  Beta  occ. eigenvalues --   -0.42449  -0.41455  -0.41144  -0.40369  -0.39664
  Beta  occ. eigenvalues --   -0.38779  -0.37645  -0.36588  -0.36421  -0.35748
  Beta  occ. eigenvalues --   -0.31294  -0.31196  -0.29859  -0.29480  -0.26698
  Beta  occ. eigenvalues --   -0.26308  -0.24875  -0.24056
  Beta virt. eigenvalues --   -0.10769  -0.05371  -0.00296   0.00085   0.00431
  Beta virt. eigenvalues --    0.01601   0.01725   0.01916   0.03218   0.03575
  Beta virt. eigenvalues --    0.03753   0.03820   0.04695   0.05607   0.05797

 Mulliken charges and spin densities:
               1          2
     1  C   -0.980840   0.058916
     2  C    0.020612   0.138000
     3  C    0.957399   0.022907
     4  C   -1.068051   0.068619
     5  C   -0.101865   0.127373
     6  C    1.113940   0.046563
     7  O   -0.430688   0.261449
     8  O   -0.445262   0.254981
     9  H    0.208407  -0.010690
    10  C   -0.192617   0.004796
    11  O   -0.317824   0.001804
    12  O   -0.081031   0.001717
    13  C   -0.254580   0.000129
    14  H    0.169628   0.000123
    15  H    0.188747   0.000024
    16  H    0.175627   0.000075
    17  C   -0.020363   0.029053
    18  O   -0.106399  -0.001063
    19  O   -0.306672   0.006210
    20  C   -0.255000  -0.000270
    21  H    0.199154  -0.010820
    22  H    0.168220   0.000077
    23  H    0.183290  -0.000073
    24  H    0.176168   0.000100
 Sum of Mulliken charges =  -1.00000   1.00000

 Dipole moment (field-independent basis, Debye):
    X=             -0.3347    Y=             -4.4088    Z=              0.9305  Tot=              4.5184
 Quadrupole moment (field-independent basis, Debye-Ang):
   XX=            -98.4974   YY=           -125.0151   ZZ=            -97.5625
   XY=            -17.2244   XZ=            -11.7271   YZ=             -0.9497

 Normal termination of Gaussian 16 at Wed Jan 24 22:52:37 2024.
