 Gaussian 16, Revision A.03,
 Gaussian 16:  ES64L-G16RevA.03 25-Dec-2016

 --------------------------------------
 #P UB3LYP/6-311++G(d,p) nosym opt freq
 --------------------------------------

 -------
 Reduced
 -------
 Symbolic Z-matrix:
 Charge = -2 Multiplicity = 1

 SCF Done:  E(UB3LYP) =  -649.769117842     A.U. after   78 cycles
 SCF Done:  E(UB3LYP) =  -649.807981175     A.U. after   36 cycles
 SCF Done:  E(UB3LYP) =  -649.810427441     A.U. after   24 cycles
 SCF Done:  E(UB3LYP) =  -649.831346616     A.U. after   27 cycles
 SCF Done:  E(UB3LYP) =  -649.834964916     A.U. after   23 cycles
 SCF Done:  E(UB3LYP) =  -649.835878235     A.U. after   20 cycles
 SCF Done:  E(UB3LYP) =  -649.836749471     A.U. after   22 cycles
 SCF Done:  E(UB3LYP) =  -649.836613531     A.U. after   22 cycles
 SCF Done:  E(UB3LYP) =  -649.837087990     A.U. after   20 cycles
 SCF Done:  E(UB3LYP) =  -649.837441747     A.U. after   18 cycles
 SCF Done:  E(UB3LYP) =  -649.841589939     A.U. after   20 cycles
 SCF Done:  E(UB3LYP) =  -649.843837206     A.U. after   19 cycles
 SCF Done:  E(UB3LYP) =  -649.844146265     A.U. after   15 cycles
 SCF Done:  E(UB3LYP) =  -649.844177585     A.U. after   17 cycles
 SCF Done:  E(UB3LYP) =  -649.844181082     A.U. after   14 cycles
 SCF Done:  E(UB3LYP) =  -649.844182129     A.U. after   12 cycles
 SCF Done:  E(UB3LYP) =  -649.844182819     A.U. after   12 cycles
 SCF Done:  E(UB3LYP) =  -649.844183117     A.U. after   12 cycles
 SCF Done:  E(UB3LYP) =  -649.844183163     A.U. after   11 cycles
 Optimization completed.
    -- Stationary point found.
 Normal termination of Gaussian 16 at Thu Dec 28 22:00:50 2023.

 ----------------------------------------------------------------------
 #P Geom=AllCheck Guess=TCheck SCRF=Check GenChk UB3LYP/6-311++G(d,p) F
 req
 ----------------------------------------------------------------------

 Structure from the checkpoint file:  "307-an.chk"
 -------
 Reduced
 -------
 Charge = -2 Multiplicity = 1

                          Input orientation:
 ---------------------------------------------------------------------
 Center     Atomic      Atomic             Coordinates (Angstroms)
 Number     Number       Type             X           Y           Z
 ---------------------------------------------------------------------
      1          6           0       -3.362987   -0.702702   -0.359580
      2          6           0       -1.939596   -0.288227   -0.094655
      3          6           0       -1.649118    0.723962    0.851385
      4          6           0       -0.358220    1.135295    1.125639
      5          8           0       -0.123358    2.129706    2.059677
      6          6           0        0.730818    0.523937    0.435325
      7          6           0        2.105904    0.946185    0.712064
      8          8           0        2.349337    1.883059    1.590355
      9          6           0        3.131137    0.298087   -0.008023
     10          6           0        2.843989   -0.711330   -0.951778
     11          6           0        1.546210   -1.110119   -1.213080
     12          6           0        0.458622   -0.504167   -0.527891
     13          6           0       -0.911237   -0.945071   -0.822992
     14          8           0       -1.161714   -1.869937   -1.688785
     15          1           0       -4.065830   -0.125085    0.256350
     16          1           0       -3.519920   -1.773306   -0.156103
     17          1           0       -3.635123   -0.568897   -1.417896
     18          1           0       -2.463953    1.206826    1.392177
     19          1           0        0.886810    2.215478    2.047212
     20          1           0        4.156185    0.605290    0.191068
     21          1           0        3.670669   -1.184980   -1.485251
     22          1           0        1.311377   -1.884005   -1.935219
 ---------------------------------------------------------------------

 SCF Done:  E(UB3LYP) =  -649.844183163     A.U. after    1 cycles

 Alpha  occ. eigenvalues --  -18.83804 -18.78884 -18.75878  -9.94221  -9.93055
 Alpha  occ. eigenvalues --   -9.91811  -9.91509  -9.90113  -9.88707  -9.88411
 Alpha  occ. eigenvalues --   -9.88352  -9.87942  -9.87880  -9.87797  -0.74980
 Alpha  occ. eigenvalues --   -0.69434  -0.67292  -0.56075  -0.52904  -0.48043
 Alpha  occ. eigenvalues --   -0.44529  -0.42818  -0.38527  -0.33511  -0.31243
 Alpha  occ. eigenvalues --   -0.27588  -0.23562  -0.21708  -0.20231  -0.18667
 Alpha  occ. eigenvalues --   -0.16987  -0.16030  -0.14206  -0.12769  -0.12669
 Alpha  occ. eigenvalues --   -0.12181  -0.11511  -0.10147  -0.08667  -0.08227
 Alpha  occ. eigenvalues --   -0.06951  -0.06765  -0.05267  -0.02547   0.00823
 Alpha  occ. eigenvalues --    0.03615   0.03890   0.06665   0.07715   0.13032
 Alpha virt. eigenvalues --    0.17419   0.18070   0.19948   0.20090   0.21532
 Alpha virt. eigenvalues --    0.21689   0.22921   0.23768   0.25675   0.26464
 Alpha virt. eigenvalues --    0.26969   0.27886   0.28547   0.28620   0.28896

  Beta  occ. eigenvalues --  -18.83804 -18.78884 -18.75878  -9.94221  -9.93055
  Beta  occ. eigenvalues --   -9.91811  -9.91509  -9.90113  -9.88707  -9.88411
  Beta  occ. eigenvalues --   -9.88352  -9.87942  -9.87880  -9.87797  -0.74980
  Beta  occ. eigenvalues --   -0.69434  -0.67292  -0.56075  -0.52904  -0.48043
  Beta  occ. eigenvalues --   -0.44529  -0.42818  -0.38527  -0.33511  -0.31243
  Beta  occ. eigenvalues --   -0.27588  -0.23562  -0.21708  -0.20231  -0.18667
  Beta  occ. eigenvalues --   -0.16987  -0.16030  -0.14206  -0.12769  -0.12669
  Beta  occ. eigenvalues --   -0.12181  -0.11511  -0.10147  -0.08667  -0.08227
  Beta  occ. eigenvalues --   -0.06951  -0.06765  -0.05267  -0.02547   0.00823
  Beta  occ. eigenvalues --    0.03615   0.03890   0.06665   0.07715   0.13032
  Beta virt. eigenvalues --    0.17419   0.18070   0.19948   0.20090   0.21532
  Beta virt. eigenvalues --    0.21689   0.22921   0.23768   0.25675   0.26464
  Beta virt. eigenvalues --    0.26969   0.27886   0.28547   0.28620   0.28896

 Mulliken charges and spin densities:
               1          2
     1  C   -0.467037   0.000000
     2  C    1.053649   0.000000
     3  C   -0.510432  -0.000000
     4  C   -0.486033   0.000000
     5  O   -0.464883  -0.000000
     6  C    0.437123  -0.000000
     7  C   -0.658200   0.000000
     8  O   -0.568941   0.000000
     9  C   -0.051703  -0.000000
    10  C   -0.231126  -0.000000
    11  C   -0.175227  -0.000000
    12  C    0.622604   0.000000
    13  C   -0.890792   0.000000
    14  O   -0.529894   0.000000
    15  H    0.085664   0.000000
    16  H    0.107147  -0.000000
    17  H    0.108439  -0.000000
    18  H    0.045503  -0.000000
    19  H    0.342196   0.000000
    20  H    0.060626  -0.000000
    21  H    0.061743  -0.000000
    22  H    0.109573  -0.000000
 Sum of Mulliken charges =  -2.00000   0.00000

 Dipole moment (field-independent basis, Debye):
    X=             -2.8367    Y=             -0.7562    Z=             -0.4636  Tot=              2.9721
 Quadrupole moment (field-independent basis, Debye-Ang):
   XX=           -133.7866   YY=           -121.2397   ZZ=           -116.7251
   XY=            -15.5532   XZ=            -11.2054   YZ=            -24.7457

  Exact polarizability: 278.956  17.155 166.913   1.492  42.139 161.694
 Approx polarizability: 407.164  19.312 264.944  -4.343  94.071 256.055

                      1                      2                      3
                      A                      A                      A
 Frequencies --     61.3462                90.7520               100.4609
 Red. masses --      1.0446                 4.7084                 7.4546
 Frc consts  --      0.0023                 0.0228                 0.0443
 IR Inten    --      2.8592                 0.8779                 3.6450

                      4                      5                      6
                      A                      A                      A
 Frequencies --    162.8240               215.4988               258.3351
 Red. masses --      6.4423                 4.1062                 4.6992
 Frc consts  --      0.1006                 0.1124                 0.1848
 IR Inten    --      0.6274                 0.3069                 0.1273

                      7                      8                      9
                      A                      A                      A
 Frequencies --    260.4833               312.5706               352.6076
 Red. masses --      3.1932                 5.8606                 7.6903
 Frc consts  --      0.1277                 0.3374                 0.5633
 IR Inten    --      5.7945                18.7475                 1.4731

                     10                     11                     12
                      A                      A                      A
 Frequencies --    369.3070               392.4167               450.1776
 Red. masses --      8.2685                 6.9257                 8.5522
 Frc consts  --      0.6644                 0.6284                 1.0212
 IR Inten    --     18.7955                 4.2972                 0.6795

                     13                     14                     15
                      A                      A                      A
 Frequencies --    456.8376               492.2237               526.2321
 Red. masses --      3.9325                 8.3140                 6.9805
 Frc consts  --      0.4835                 1.1868                 1.1389
 IR Inten    --      0.5964                 0.6178                 2.3718

                     16                     17                     18
                      A                      A                      A
 Frequencies --    560.1365               598.9169               610.8271
 Red. masses --      3.9513                 6.6464                 3.8659
 Frc consts  --      0.7304                 1.4047                 0.8498
 IR Inten    --      1.9717                26.5363                 4.0000

                     19                     20                     21
                      A                      A                      A
 Frequencies --    656.0082               696.1168               708.5671
 Red. masses --      4.4271                 6.2359                 1.5850
 Frc consts  --      1.1225                 1.7804                 0.4688
 IR Inten    --     11.5200                 9.0485                63.6867

                     22                     23                     24
                      A                      A                      A
 Frequencies --    731.9714               781.4288               789.6275
 Red. masses --      2.1725                 4.8105                 1.8839
 Frc consts  --      0.6858                 1.7307                 0.6921
 IR Inten    --     17.6678                 3.9025                 0.7532

                     25                     26                     27
                      A                      A                      A
 Frequencies --    799.4739               812.4625               892.3155
 Red. masses --      4.7314                 1.6194                 1.2155
 Frc consts  --      1.7818                 0.6298                 0.5702
 IR Inten    --      8.3326                35.6560                 1.8627

                     28                     29                     30
                      A                      A                      A
 Frequencies --    915.0934               964.4599               988.7137
 Red. masses --      6.2051                 1.0507                 1.7415
 Frc consts  --      3.0615                 0.5758                 1.0030
 IR Inten    --     98.5603                67.4284                17.7771

                     31                     32                     33
                      A                      A                      A
 Frequencies --   1030.3819              1033.5346              1048.2988
 Red. masses --      3.4894                 1.4242                 2.7706
 Frc consts  --      2.1827                 0.8964                 1.7939
 IR Inten    --     60.2208                 1.1243                66.3052

                     34                     35                     36
                      A                      A                      A
 Frequencies --   1082.9800              1148.6206              1171.4090
 Red. masses --      2.4860                 1.2018                 1.7439
 Frc consts  --      1.7179                 0.9342                 1.4099
 IR Inten    --     74.1132                 6.9611                 3.2075

                     37                     38                     39
                      A                      A                      A
 Frequencies --   1211.5336              1274.6652              1305.0475
 Red. masses --      3.7957                 2.2941                 4.6325
 Frc consts  --      3.2825                 2.1961                 4.6485
 IR Inten    --     63.6006               169.6634                17.0148

                     40                     41                     42
                      A                      A                      A
 Frequencies --   1321.3253              1343.6445              1370.7057
 Red. masses --      5.4312                 4.6460                 1.7037
 Frc consts  --      5.5868                 4.9419                 1.8860
 IR Inten    --     15.2649                32.3379                72.4000

                     43                     44                     45
                      A                      A                      A
 Frequencies --   1377.8080              1419.4396              1445.1590
 Red. masses --      3.5488                 2.9307                 4.2595
 Frc consts  --      3.9693                 3.4790                 5.2413
 IR Inten    --      9.2417                17.5196               521.2987

                     46                     47                     48
                      A                      A                      A
 Frequencies --   1446.5039              1467.7186              1493.5379
 Red. masses --      1.0530                 2.2102                 1.3438
 Frc consts  --      1.2982                 2.8052                 1.7661
 IR Inten    --      1.3787               371.6600               291.8034

                     49                     50                     51
                      A                      A                      A
 Frequencies --   1540.5766              1574.5675              1589.1982
 Red. masses --      4.2380                 5.9698                 3.5896
 Frc consts  --      5.9263                 8.7203                 5.3414
 IR Inten    --     71.1200                22.2927                54.0906

                     52                     53                     54
                      A                      A                      A
 Frequencies --   1659.8492              2841.0827              2942.9980
 Red. masses --      1.9593                 1.0761                 1.0355
 Frc consts  --      3.1805                 5.1176                 5.2843
 IR Inten    --     40.4151               652.2069               372.2765

                     55                     56                     57
                      A                      A                      A
 Frequencies --   2948.8178              3010.3580              3061.0612
 Red. masses --      1.0976                 1.0983                 1.0844
 Frc consts  --      5.6232                 5.8643                 5.9864
 IR Inten    --    269.0685                58.9731                96.4994

                     58                     59                     60
                      A                      A                      A
 Frequencies --   3088.0744              3115.5479              3168.8191
 Red. masses --      1.0871                 1.0897                 1.0900
 Frc consts  --      6.1080                 6.2319                 6.4488
 IR Inten    --    108.4663               121.1126                29.3688

 - Thermochemistry -
 -------------------
 Temperature   298.150 Kelvin.  Pressure   1.00000 Atm.
 Atom     1 has atomic number  6 and mass  12.00000

 Molecular mass:   188.04734 amu.
 Principal axes and moments of inertia in atomic units:
                           1         2         3
     Eigenvalues --  1641.371292748.725864379.09859
           X            0.90902  -0.41123   0.06764
           Y            0.33980   0.63737  -0.69159
           Z            0.24129   0.65165   0.71912
 This molecule is an asymmetric top.
 Rotational symmetry number  1.
 Warning -- assumption of classical behavior for rotation
           may cause significant error
 Rotational temperatures (Kelvin)      0.05277     0.03151     0.01978
 Rotational constants (GHZ):           1.09953     0.65657     0.41213
 Zero-point vibrational energy     415950.3 (Joules/Mol)
                                   99.41450 (Kcal/Mol)
 Warning -- explicit consideration of  18 degrees of freedom as
           vibrations may cause significant error
 Vibrational temperatures:     88.26   130.57   144.54   234.27   310.05
          (Kelvin)            371.69   374.78   449.72   507.32   531.35
                              564.60   647.71   657.29   708.20   757.13
                              805.91   861.71   878.84   943.85  1001.56
                             1019.47  1053.14  1124.30  1136.10  1150.26
                             1168.95  1283.84  1316.62  1387.64  1422.54
                             1482.49  1487.03  1508.27  1558.17  1652.61
                             1685.40  1743.13  1833.96  1877.67  1901.09
                             1933.20  1972.14  1982.36  2042.26  2079.26
                             2081.20  2111.72  2148.87  2216.55  2265.45
                             2286.50  2388.15  4087.68  4234.32  4242.69
                             4331.23  4404.18  4443.05  4482.58  4559.22

 Zero-point correction=                           0.158427 (Hartree/Particle)
 Thermal correction to Energy=                    0.169780
 Thermal correction to Enthalpy=                  0.170724
 Thermal correction to Gibbs Free Energy=         0.121124
 Sum of electronic and zero-point Energies=           -649.685756
 Sum of electronic and thermal Energies=              -649.674403
 Sum of electronic and thermal Enthalpies=            -649.673459
 Sum of electronic and thermal Free Energies=         -649.723060

                     E (Thermal)             CV                S
                      KCal/Mol        Cal/Mol-Kelvin    Cal/Mol-Kelvin
 Total                  106.538             44.806            104.393
 Electronic               0.000              0.000              0.000
 Translational            0.889              2.981             41.600
 Rotational               0.889              2.981             31.358
 Vibrational            104.761             38.845             31.434
 Vibration     1          0.597              1.973              4.413
 Vibration     2          0.602              1.956              3.644
 Vibration     3          0.604              1.949              3.445
 Vibration     4          0.623              1.888              2.517
 Vibration     5          0.645              1.817              1.997
 Vibration     6          0.667              1.749              1.673
 Vibration     7          0.669              1.745              1.659
 Vibration     8          0.701              1.650              1.349
 Vibration     9          0.729              1.570              1.155
 Vibration    10          0.742              1.535              1.083
 Vibration    11          0.760              1.486              0.991
 Vibration    12          0.809              1.360              0.795
 Vibration    13          0.815              1.346              0.775
 Vibration    14          0.848              1.267              0.678
 Vibration    15          0.881              1.192              0.596
 Vibration    16          0.916              1.118              0.524
 Vibration    17          0.957              1.034              0.452
 Vibration    18          0.970              1.009              0.431

 Optimization completed.
    -- Stationary point found.
 Normal termination of Gaussian 16 at Thu Dec 28 22:22:26 2023.
