 Q-Chem 5.4, Q-Chem, Inc., Pleasanton, CA (2021)
 Q-Chem 5.4.0 for Intel X86 EM64T Linux

User input:
--------------------------------------------------------------
$molecule
-2 1
C                 -4.8221630000      0.2338890000     -3.9804780000
C                 -4.2201210000      1.2450870000     -4.6932230000
C                 -3.0891770000      1.9179660000     -4.1875860000
C                 -4.3202360000     -0.1619320000     -2.7121060000
C                 -3.1681240000      0.5166480000     -2.1826480000
C                 -2.5899300000      1.5415290000     -2.9483710000
C                 -4.9471420000     -1.2149950000     -1.9742370000
C                 -4.3568920000     -1.5300560000     -0.7081550000
C                 -3.2419310000     -0.9061070000     -0.1598400000
C                 -2.5918020000      0.1623390000     -0.8754850000
O                 -5.9851970000     -1.8951650000     -2.3527040000
O                 -1.5726580000      0.7660710000     -0.4126450000
O                 -5.0072500000     -2.5491680000     -0.0553580000
O                 -4.6968880000      1.6510640000     -5.9436240000
C                 -2.6873500000     -1.3261090000      1.1776310000
C                 -3.2142170000     -0.4919120000      2.3630570000
C                 -2.6167880000     -0.9143790000      3.7113510000
C                 -3.1304930000     -0.1043000000      4.9086530000
C                 -2.5399250000     -0.5419560000      6.2557920000
C                 -3.0505020000      0.2645170000      7.4566690000
C                 -2.4608850000     -0.1797110000      8.8017020000
C                 -2.9745130000      0.6244210000     10.0029260000
C                 -2.3865430000      0.1767510000     11.3472370000
C                 -2.9031710000      0.9808570000     12.5474520000
C                 -2.3153930000      0.5318850000     13.8885430000
H                 -5.6949750000     -0.2912180000     -4.3626680000
H                 -2.6345280000      2.7121730000     -4.7703960000
H                 -1.7220590000      2.0381720000     -2.5268010000
H                 -5.7166220000     -2.7524200000     -0.7121890000
H                 -5.4638530000      1.1036760000     -6.1394320000
H                 -1.5975310000     -1.2143360000      1.1423400000
H                 -2.9207400000     -2.3818770000      1.3581900000
H                 -4.3068970000     -0.5799170000      2.4035250000
H                 -2.9837550000      0.5615380000      2.1705970000
H                 -1.5227710000     -0.8269820000      3.6614190000
H                 -2.8290300000     -1.9793940000      3.8825590000
H                 -4.2251770000     -0.1820530000      4.9532190000
H                 -2.9094420000      0.9587350000      4.7450870000
H                 -1.4451670000     -0.4656400000      6.2104870000
H                 -2.7613970000     -1.6057290000      6.4169490000
H                 -4.1453330000      0.1904210000      7.5014090000
H                 -2.8265250000      1.3278700000      7.2983650000
H                 -1.3661750000     -0.1039620000      8.7587200000
H                 -2.6831020000     -1.2436180000      8.9591990000
H                 -4.0693240000      0.5494350000     10.0454690000
H                 -2.7505190000      1.6882060000      9.8474820000
H                 -1.2919710000      0.2527580000     11.3083970000
H                 -2.6093240000     -0.8866810000     11.5050370000
H                 -3.9974260000      0.9053060000     12.5872100000
H                 -2.6807430000      2.0442250000     12.3911810000
H                 -2.5533340000     -0.5170680000     14.0994970000
H                 -2.7055910000      1.1266260000     14.7215920000
H                 -1.2239610000      0.6319430000     13.9017170000
$end
$rem
MAX_SCF_CYCLES=200
BASIS  =  6-311++G(d,p)
GUI  =  2
JOB_TYPE  =  SP
METHOD  =  B3LYP
SCF_ALGORITHM = DIIS_GDM
THRESH = 14
SOLVENT_METHOD = PCM
$end
$pcm
theory = CPCM
$end
$solvent
dielectric 37.219
opticaldielectric 1.43
$end

--------------------------------------------------------------

             Standard Nuclear Orientation (Angstroms)
    I     Atom           X                Y                Z
 ----------------------------------------------------------------
    1      C      -4.8221630000     0.2338890000    -3.9804780000
    2      C      -4.2201210000     1.2450870000    -4.6932230000
    3      C      -3.0891770000     1.9179660000    -4.1875860000
    4      C      -4.3202360000    -0.1619320000    -2.7121060000
    5      C      -3.1681240000     0.5166480000    -2.1826480000
    6      C      -2.5899300000     1.5415290000    -2.9483710000
    7      C      -4.9471420000    -1.2149950000    -1.9742370000
    8      C      -4.3568920000    -1.5300560000    -0.7081550000
    9      C      -3.2419310000    -0.9061070000    -0.1598400000
   10      C      -2.5918020000     0.1623390000    -0.8754850000
   11      O      -5.9851970000    -1.8951650000    -2.3527040000
   12      O      -1.5726580000     0.7660710000    -0.4126450000
   13      O      -5.0072500000    -2.5491680000    -0.0553580000
   14      O      -4.6968880000     1.6510640000    -5.9436240000
   15      C      -2.6873500000    -1.3261090000     1.1776310000
   16      C      -3.2142170000    -0.4919120000     2.3630570000
   17      C      -2.6167880000    -0.9143790000     3.7113510000
   18      C      -3.1304930000    -0.1043000000     4.9086530000
   19      C      -2.5399250000    -0.5419560000     6.2557920000
   20      C      -3.0505020000     0.2645170000     7.4566690000
   21      C      -2.4608850000    -0.1797110000     8.8017020000
   22      C      -2.9745130000     0.6244210000    10.0029260000
   23      C      -2.3865430000     0.1767510000    11.3472370000
   24      C      -2.9031710000     0.9808570000    12.5474520000
   25      C      -2.3153930000     0.5318850000    13.8885430000
   26      H      -5.6949750000    -0.2912180000    -4.3626680000
   27      H      -2.6345280000     2.7121730000    -4.7703960000
   28      H      -1.7220590000     2.0381720000    -2.5268010000
   29      H      -5.7166220000    -2.7524200000    -0.7121890000
   30      H      -5.4638530000     1.1036760000    -6.1394320000
   31      H      -1.5975310000    -1.2143360000     1.1423400000
   32      H      -2.9207400000    -2.3818770000     1.3581900000
   33      H      -4.3068970000    -0.5799170000     2.4035250000
   34      H      -2.9837550000     0.5615380000     2.1705970000
   35      H      -1.5227710000    -0.8269820000     3.6614190000
   36      H      -2.8290300000    -1.9793940000     3.8825590000
   37      H      -4.2251770000    -0.1820530000     4.9532190000
   38      H      -2.9094420000     0.9587350000     4.7450870000
   39      H      -1.4451670000    -0.4656400000     6.2104870000
   40      H      -2.7613970000    -1.6057290000     6.4169490000
   41      H      -4.1453330000     0.1904210000     7.5014090000
   42      H      -2.8265250000     1.3278700000     7.2983650000
   43      H      -1.3661750000    -0.1039620000     8.7587200000
   44      H      -2.6831020000    -1.2436180000     8.9591990000
   45      H      -4.0693240000     0.5494350000    10.0454690000
   46      H      -2.7505190000     1.6882060000     9.8474820000
   47      H      -1.2919710000     0.2527580000    11.3083970000
   48      H      -2.6093240000    -0.8866810000    11.5050370000
   49      H      -3.9974260000     0.9053060000    12.5872100000
   50      H      -2.6807430000     2.0442250000    12.3911810000
   51      H      -2.5533340000    -0.5170680000    14.0994970000
   52      H      -2.7055910000     1.1266260000    14.7215920000
   53      H      -1.2239610000     0.6319430000    13.9017170000
 ----------------------------------------------------------------

   16   -1118.5963772279      4.70e-06  Convergence criterion met
 Total energy in the final basis set =    -1118.5963772279

                    Orbital Energies (a.u.)
 --------------------------------------------------------------

 Alpha MOs
 -- Occupied --
-19.1372 -19.1124 -19.0254 -19.0211 -10.2093 -10.1758 -10.1742 -10.1586
-10.1568 -10.1540 -10.1537 -10.1533 -10.1527 -10.1520 -10.1508 -10.1507
-10.1494 -10.1484 -10.1442 -10.1439 -10.1404 -10.1397 -10.1371 -10.1302
-10.1203  -1.0399  -1.0270  -0.9455  -0.9324  -0.8248  -0.8050  -0.7922
 -0.7766  -0.7602  -0.7391  -0.7230  -0.7141  -0.6896  -0.6601  -0.6337
 -0.6156  -0.6010  -0.5835  -0.5704  -0.5668  -0.5632  -0.5580  -0.5383
 -0.5223  -0.4884  -0.4780  -0.4664  -0.4573  -0.4487  -0.4428  -0.4354
 -0.4269  -0.4179  -0.4169  -0.4095  -0.4037  -0.4006  -0.3937  -0.3922
 -0.3850  -0.3800  -0.3727  -0.3701  -0.3655  -0.3617  -0.3570  -0.3531
 -0.3447  -0.3412  -0.3351  -0.3310  -0.3279  -0.3215  -0.3185  -0.3154
 -0.3141  -0.3131  -0.3111  -0.3103  -0.3066  -0.3039  -0.2892  -0.2861
 -0.2299  -0.2156  -0.2137  -0.1988  -0.1882  -0.1060

          Ground-State Mulliken Net Atomic Charges

     Atom                 Charge (a.u.)
  ----------------------------------------
      1 C                     0.166861
      2 C                    -0.747508
      3 C                    -0.219958
      4 C                     0.618137
      5 C                    -0.334009
      6 C                    -0.037052
      7 C                    -0.874357
      8 C                    -0.715911
      9 C                     1.888639
     10 C                    -0.600377
     11 O                    -0.758348
     12 O                    -0.667007
     13 O                    -0.347671
     14 O                    -0.338387
     15 C                    -0.277164
     16 C                    -0.866738
     17 C                    -0.336357
     18 C                    -0.059793
     19 C                     0.025911
     20 C                     0.041064
     21 C                    -0.056360
     22 C                    -0.298403
     23 C                    -0.502197
     24 C                    -0.297986
     25 C                    -0.716929
     26 H                     0.140168
     27 H                     0.193138
     28 H                     0.151962
     29 H                     0.288022
     30 H                     0.308459
     31 H                     0.171724
     32 H                     0.199910
     33 H                     0.158108
     34 H                     0.176466
     35 H                     0.116038
     36 H                     0.113424
     37 H                     0.128648
     38 H                     0.128309
     39 H                     0.136317
     40 H                     0.134942
     41 H                     0.133699
     42 H                     0.133422
     43 H                     0.133110
     44 H                     0.132650
     45 H                     0.131116
     46 H                     0.131802
     47 H                     0.128845
     48 H                     0.128876
     49 H                     0.135258
     50 H                     0.135330
     51 H                     0.145002
     52 H                     0.152255
     53 H                     0.144899
  ----------------------------------------
  Sum of atomic charges =    -2.000000

                    Cartesian Multipole Moments
 -----------------------------------------------------------------
    Charge (ESU x 10^10)
                -9.6064
    Dipole Moment (Debye)
         X      35.2910      Y       3.4515      Z      14.7776
       Tot      38.4154
    Quadrupole Moments (Debye-Ang)
        XX    -323.6348     XY     -30.6897     YY    -189.1235
        XZ     -63.9903     YZ       1.6485     ZZ    -215.9643

 Total job time:  441.04s(wall), 3077.56s(cpu)
        *  Thank you very much for using Q-Chem.  Have a nice day.  *
