 Q-Chem 5.4, Q-Chem, Inc., Pleasanton, CA (2021)
 Q-Chem 5.4.0 for Intel X86 EM64T Linux

User input:
--------------------------------------------------------------
$molecule
0 1
C                  1.1678960000      1.3293780000     -1.3886150000
C                 -0.1499540000      0.6653620000     -1.5043060000
C                 -0.5121960000     -0.3681750000     -0.7315990000
C                  0.4564230000     -0.8839070000      0.2898290000
C                  1.7697750000     -0.1823750000      0.4596480000
C                  2.1168380000      0.8516260000     -0.3420000000
C                  3.4346140000      1.5653010000     -0.2332240000
C                  2.6787890000     -0.7097210000      1.5346390000
O                  1.4496260000      2.2532950000     -2.1375600000
O                  0.1883060000     -1.8638630000      0.9649160000
H                 -0.8087500000      1.0780160000     -2.2618140000
H                  4.2694690000      0.8600880000     -0.2771110000
H                  3.5127480000      2.0958800000      0.7218510000
H                  3.5410600000      2.2916180000     -1.0372380000
H                  2.1597710000     -1.4399200000      2.1526130000
H                  3.0478170000      0.1012430000      2.1682470000
H                  3.5557360000     -1.1990150000      1.0963170000
C                 -1.8686190000     -1.0186830000     -0.8920650000
C                 -1.8350590000     -2.4961810000     -1.2778480000
O                 -2.5650960000     -0.8413220000      0.3747000000
C                 -3.9081820000     -0.6711140000      0.3258880000
C                 -4.4718550000     -0.5013200000      1.7129430000
O                 -4.5465650000     -0.6573530000     -0.6981860000
H                 -2.4243940000     -0.4632050000     -1.6490020000
H                 -2.8530900000     -2.8474140000     -1.4553490000
H                 -1.3729290000     -3.0907880000     -0.4916230000
H                 -1.2666980000     -2.6241880000     -2.2032630000
H                 -4.0477300000      0.3919220000      2.1776120000
H                 -4.1961840000     -1.3554740000      2.3348420000
H                 -5.5545150000     -0.4108110000      1.6562090000
$end
$rem
MAX_SCF_CYCLES=200
BASIS  =  6-311++G(d,p)
GUI  =  2
JOB_TYPE  =  SP
METHOD  =  B3LYP
SOLVENT_METHOD = COSMO
$end
$solvent
dielectric 37.219
opticaldielectric 1.43
$end

--------------------------------------------------------------

             Standard Nuclear Orientation (Angstroms)
    I     Atom           X                Y                Z
 ----------------------------------------------------------------
    1      C       2.0868240998     1.4887309965     0.0982098078
    2      C       0.6451133460     1.4881739418    -0.2372004937
    3      C      -0.0541891231     0.3615010964    -0.4323375250
    4      C       0.6489510180    -0.9573765430    -0.3154053372
    5      C       2.0933444505    -0.9736825662     0.0837698644
    6      C       2.7803498105     0.1787687292     0.2630181751
    7      C       4.2368206511     0.2148720803     0.6305600752
    8      C       2.7324082199    -2.3257105047     0.2374704116
    9      O       2.6759138284     2.5499575085     0.2420312617
   10      O       0.0619381578    -2.0003531166    -0.5511142975
   11      H       0.1892203225     2.4703520011    -0.3120448273
   12      H       4.8334104889    -0.3835479482    -0.0638521584
   13      H       4.3965957804    -0.2008019611     1.6312969298
   14      H       4.6054249217     1.2392662943     0.6232776575
   15      H       1.9820269324    -3.1127091854     0.1924912102
   16      H       3.2737678742    -2.3977348570     1.1845953184
   17      H       3.4596204330    -2.5048367410    -0.5623089477
   18      C      -1.5256386208     0.4122676027    -0.7802635053
   19      C      -1.8927259256    -0.2065239909    -2.1275938327
   20      O      -2.2296131113    -0.2676178861     0.2983496505
   21      C      -3.4593121582     0.1966223292     0.6263049138
   22      C      -4.0472430160    -0.6106423578     1.7546399075
   23      O      -3.9919050563     1.1315626092     0.0797875262
   24      H      -1.8419741429     1.4563750944    -0.7673536557
   25      H      -2.9534692342    -0.0417445457    -2.3248999652
   26      H      -1.6791823565    -1.2740587144    -2.1339286692
   27      H      -1.3211316959     0.2767617267    -2.9247938655
   28      H      -3.4174908703    -0.5182361591     2.6426454791
   29      H      -4.0749592802    -1.6676824671     1.4821881905
   30      H      -5.0507462340    -0.2518003386     1.9732194081
 ----------------------------------------------------------------

    9    -766.8197306979      5.95e-06  Convergence criterion met
 Total energy in the final basis set =     -766.8197306979
    5    -766.8383951954      3.12e-06  Convergence criterion met
 Total energy in the final basis set =     -766.8383951954

                    Orbital Energies (a.u.)
 --------------------------------------------------------------

 Alpha MOs
 -- Occupied --
-19.1766 -19.1419 -19.1417 -19.1276 -10.3172 -10.2881 -10.2854 -10.2518
-10.2210 -10.2124 -10.2108 -10.2094 -10.1776 -10.1710 -10.1709 -10.1668
 -1.1197  -1.0752  -1.0724  -1.0373  -0.8716  -0.8335  -0.7836  -0.7490
 -0.7430  -0.6965  -0.6918  -0.6515  -0.6027  -0.5975  -0.5662  -0.5322
 -0.5111  -0.5050  -0.4872  -0.4854  -0.4713  -0.4648  -0.4518  -0.4401
 -0.4322  -0.4280  -0.4220  -0.4183  -0.4121  -0.4097  -0.4055  -0.3993
 -0.3901  -0.3823  -0.3788  -0.3744  -0.3591  -0.3218  -0.3100  -0.2979
 -0.2920  -0.2769  -0.2760

          Ground-State Mulliken Net Atomic Charges

     Atom                 Charge (a.u.)
  ----------------------------------------
      1 C                    -0.766366
      2 C                    -0.414548
      3 C                     1.249408
      4 C                    -0.727139
      5 C                     0.425996
      6 C                     0.759533
      7 C                    -0.441971
      8 C                    -0.604614
      9 O                    -0.306872
     10 O                    -0.262869
     11 H                     0.254352
     12 H                     0.181320
     13 H                     0.195926
     14 H                     0.195709
     15 H                     0.197299
     16 H                     0.177446
     17 H                     0.202588
     18 C                    -0.587384
     19 C                    -0.600502
     20 O                     0.108741
     21 C                     0.340906
     22 C                    -0.599886
     23 O                    -0.355414
     24 H                     0.242744
     25 H                     0.184779
     26 H                     0.204661
     27 H                     0.165280
     28 H                     0.200470
     29 H                     0.196587
     30 H                     0.183821
  ----------------------------------------
  Sum of atomic charges =     0.000000

                    Cartesian Multipole Moments
 -----------------------------------------------------------------
    Charge (ESU x 10^10)
                 0.0000
    Dipole Moment (Debye)
         X       2.2708      Y      -2.7916      Z       0.8270
       Tot       3.6924
    Quadrupole Moments (Debye-Ang)
        XX     -95.9162     XY      -4.5559     YY    -108.6942
        XZ      -4.0811     YZ      -4.2890     ZZ     -88.0301

 Total job time:  52.46s(wall), 399.91s(cpu)
        *  Thank you very much for using Q-Chem.  Have a nice day.  *
