 Gaussian 16, Revision A.03,
 Gaussian 16:  ES64L-G16RevA.03 25-Dec-2016

 --------------------------------------
 #P UB3LYP/6-311++G(d,p) nosym opt freq
 --------------------------------------

 -------
 Radical
 -------
 Symbolic Z-matrix:
 Charge = -1 Multiplicity = 2

 SCF Done:  E(UB3LYP) =  -3414.80608479     A.U. after   22 cycles
 SCF Done:  E(UB3LYP) =  -3414.82008004     A.U. after   18 cycles
 SCF Done:  E(UB3LYP) =  -3414.82052753     A.U. after   17 cycles
 SCF Done:  E(UB3LYP) =  -3414.82057550     A.U. after   17 cycles
 SCF Done:  E(UB3LYP) =  -3414.82057713     A.U. after   12 cycles
 Optimization completed.
    -- Stationary point found.
 Normal termination of Gaussian 16 at Sun Dec 17 21:00:01 2023.

 ----------------------------------------------------------------------
 #P Geom=AllCheck Guess=TCheck SCRF=Check GenChk UB3LYP/6-311++G(d,p) F
 req
 ----------------------------------------------------------------------

 Structure from the checkpoint file:  "008-rad.chk"
 -------
 Radical
 -------
 Charge = -1 Multiplicity = 2

                          Input orientation:
 ---------------------------------------------------------------------
 Center     Atomic      Atomic             Coordinates (Angstroms)
 Number     Number       Type             X           Y           Z
 ---------------------------------------------------------------------
      1          6           0       -1.298534    2.064634    0.569238
      2          6           0       -2.550427    1.400907    0.223212
      3          6           0       -2.655020    0.146677   -0.302885
      4          6           0       -1.480047   -0.660538   -0.571266
      5          6           0       -0.211757   -0.042183   -0.243109
      6          6           0       -0.144884    1.215118    0.282097
      7          8           0       -1.559156   -1.820371   -1.056684
      8          1           0       -3.618133   -0.288976   -0.538015
      9          8           0       -1.216400    3.212408    1.049732
     10         17           0        1.441795    1.906239    0.658275
     11         35           0       -4.163801    2.415992    0.553040
     12          1           0        0.686676   -0.617538   -0.430965
 ---------------------------------------------------------------------

 SCF Done:  E(UB3LYP) =  -3414.82057713     A.U. after    2 cycles

 Alpha  occ. eigenvalues -- -482.70412-101.42739 -62.35691 -56.17710 -56.17356
 Alpha  occ. eigenvalues --  -56.17329 -18.95785 -18.95514 -10.11415 -10.10726
 Alpha  occ. eigenvalues --  -10.10438 -10.10202 -10.05328 -10.05233  -9.34184
 Alpha  occ. eigenvalues --   -8.56649  -7.10616  -7.09706  -7.09635  -6.39739
 Alpha  occ. eigenvalues --   -6.38551  -6.38474  -2.50842  -2.50514  -2.50456
 Alpha  occ. eigenvalues --   -2.49510  -2.49509  -0.88796  -0.87695  -0.74996
 Alpha  occ. eigenvalues --   -0.71436  -0.66087  -0.60342  -0.56603  -0.47102
 Alpha  occ. eigenvalues --   -0.45093  -0.37164  -0.35484  -0.32291  -0.30260
 Alpha  occ. eigenvalues --   -0.29868  -0.28517  -0.26568  -0.25706  -0.24900
 Alpha  occ. eigenvalues --   -0.22885  -0.19736  -0.19083  -0.16716  -0.15239
 Alpha  occ. eigenvalues --   -0.12803  -0.12467  -0.11735  -0.04374
 Alpha virt. eigenvalues --    0.09151   0.09946   0.10703   0.11205   0.12492
 Alpha virt. eigenvalues --    0.13606   0.14587   0.14884   0.14953   0.16268
 Alpha virt. eigenvalues --    0.17454   0.17587   0.18215   0.18753   0.19976

  Beta  occ. eigenvalues -- -482.70412-101.42737 -62.35691 -56.17712 -56.17353
  Beta  occ. eigenvalues --  -56.17330 -18.95052 -18.94746 -10.11317 -10.10612
  Beta  occ. eigenvalues --  -10.10365 -10.10094 -10.05189 -10.05111  -9.34183
  Beta  occ. eigenvalues --   -8.56649  -7.10621  -7.09694  -7.09635  -6.39743
  Beta  occ. eigenvalues --   -6.38547  -6.38475  -2.50844  -2.50513  -2.50459
  Beta  occ. eigenvalues --   -2.49507  -2.49507  -0.87565  -0.86371  -0.74698
  Beta  occ. eigenvalues --   -0.71125  -0.65834  -0.60104  -0.55595  -0.46690
  Beta  occ. eigenvalues --   -0.44690  -0.36951  -0.35066  -0.32045  -0.29716
  Beta  occ. eigenvalues --   -0.28683  -0.27781  -0.26045  -0.24703  -0.23099
  Beta  occ. eigenvalues --   -0.22263  -0.19041  -0.18501  -0.16683  -0.12374
  Beta  occ. eigenvalues --   -0.12119  -0.11772  -0.11036
  Beta virt. eigenvalues --    0.02933   0.09243   0.10725   0.11214   0.11345
  Beta virt. eigenvalues --    0.12527   0.13647   0.14770   0.14918   0.16288
  Beta virt. eigenvalues --    0.16993   0.17637   0.17813   0.18248   0.18787

 Mulliken charges and spin densities:
               1          2
     1  C   -1.621338   0.006985
     2  C    0.788725   0.103827
     3  C   -0.011609   0.091623
     4  C   -0.752304   0.094020
     5  C   -0.464238   0.083384
     6  C    1.401173   0.090098
     7  O   -0.400533   0.270855
     8  H    0.210280  -0.008980
     9  O   -0.276237   0.270830
    10  Cl   0.189510   0.001606
    11  Br  -0.226090   0.003433
    12  H    0.162663  -0.007681
 Sum of Mulliken charges =  -1.00000   1.00000

 Dipole moment (field-independent basis, Debye):
    X=              6.8578    Y=             -5.2484    Z=             -0.7627  Tot=              8.6693
 Quadrupole moment (field-independent basis, Debye-Ang):
   XX=           -101.1654   YY=           -116.2001   ZZ=            -85.6451
   XY=              6.4295   XZ=              0.0189   YZ=            -13.4272

  Exact polarizability: 153.869  -5.974 153.333   2.489  35.903  80.975
 Approx polarizability: 208.253  -1.440 275.619   5.562  73.063 129.855

                      1                      2                      3
                      A                      A                      A
 Frequencies --     78.2353               153.5623               154.4277
 Red. masses --     17.7320                22.4893                11.3204
 Frc consts  --      0.0639                 0.3125                 0.1591
 IR Inten    --      4.2073                 1.8138                 5.9351

                      4                      5                      6
                      A                      A                      A
 Frequencies --    191.1348               233.4739               265.1529
 Red. masses --      5.1814                17.8913                18.1207
 Frc consts  --      0.1115                 0.5746                 0.7506
 IR Inten    --      0.2420                 0.0166                 0.0557

                      7                      8                      9
                      A                      A                      A
 Frequencies --    332.0158               341.7209               442.4399
 Red. masses --      6.7429                19.9437                 8.2780
 Frc consts  --      0.4379                 1.3721                 0.9547
 IR Inten    --      0.3994                 0.2732                15.5291

                     10                     11                     12
                      A                      A                      A
 Frequencies --    469.4027               485.8099               619.5533
 Red. masses --      5.4224                12.9330                 5.9684
 Frc consts  --      0.7039                 1.7984                 1.3498
 IR Inten    --      0.0501                 0.2160                 6.3554

                     13                     14                     15
                      A                      A                      A
 Frequencies --    633.1559               722.6310               746.7776
 Red. masses --      2.9214                11.0554                 9.5325
 Frc consts  --      0.6900                 3.4014                 3.1321
 IR Inten    --      0.7926                98.4609                 2.7325

                     16                     17                     18
                      A                      A                      A
 Frequencies --    815.4064               848.1150               866.5486
 Red. masses --      6.6473                 1.3196                 1.6565
 Frc consts  --      2.6040                 0.5592                 0.7329
 IR Inten    --     37.8215                 0.1898                40.1908

                     19                     20                     21
                      A                      A                      A
 Frequencies --    902.6830              1006.3040              1105.5651
 Red. masses --      6.7995                 2.9225                 4.4142
 Frc consts  --      3.2643                 1.7437                 3.1788
 IR Inten    --     29.3139                97.0542                51.3065

                     22                     23                     24
                      A                      A                      A
 Frequencies --   1222.3562              1293.8904              1373.6048
 Red. masses --      1.7288                 1.7485                 5.9556
 Frc consts  --      1.5220                 1.7247                 6.6206
 IR Inten    --      9.0272                 1.8761                91.5483

                     25                     26                     27
                      A                      A                      A
 Frequencies --   1479.7464              1513.4170              1546.9853
 Red. masses --      6.4166                11.3362                10.1706
 Frc consts  --      8.2781                15.2980                14.3407
 IR Inten    --      2.8459               142.3608               348.0928

                     28                     29                     30
                      A                      A                      A
 Frequencies --   1619.6359              3186.2873              3189.9248
 Red. masses --      8.4124                 1.0910                 1.0909
 Frc consts  --     13.0018                 6.5260                 6.5404
 IR Inten    --     16.2337                 5.0701                 4.2419

 - Thermochemistry -
 -------------------
 Temperature   298.150 Kelvin.  Pressure   1.00000 Atm.
 Atom     1 has atomic number  6 and mass  12.00000

 Molecular mass:   219.89267 amu.
 Principal axes and moments of inertia in atomic units:
                           1         2         3
     Eigenvalues --  1557.607233387.803154945.41037
           X            0.95588   0.28909  -0.05211
           Y           -0.28651   0.87839  -0.38255
           Z           -0.06482   0.38060   0.92246
 This molecule is an asymmetric top.
 Rotational symmetry number  1.
 Warning -- assumption of classical behavior for rotation
           may cause significant error
 Rotational temperatures (Kelvin)      0.05561     0.02557     0.01751
 Rotational constants (GHZ):           1.15866     0.53272     0.36493
 Zero-point vibrational energy     166520.0 (Joules/Mol)
                                   39.79923 (Kcal/Mol)
 Warning -- explicit consideration of  12 degrees of freedom as
           vibrations may cause significant error
 Vibrational temperatures:    112.56   220.94   222.19   275.00   335.92
          (Kelvin)            381.50   477.70   491.66   636.57   675.37
                              698.97   891.40   910.97  1039.70  1074.45
                             1173.19  1220.25  1246.77  1298.76  1447.85
                             1590.66  1758.70  1861.62  1976.31  2129.03
                             2177.47  2225.77  2330.29  4584.36  4589.59

 Zero-point correction=                           0.063424 (Hartree/Particle)
 Thermal correction to Energy=                    0.072220
 Thermal correction to Enthalpy=                  0.073164
 Thermal correction to Gibbs Free Energy=         0.027099
 Sum of electronic and zero-point Energies=          -3414.757153
 Sum of electronic and thermal Energies=             -3414.748357
 Sum of electronic and thermal Enthalpies=           -3414.747413
 Sum of electronic and thermal Free Energies=        -3414.793478

                     E (Thermal)             CV                S
                      KCal/Mol        Cal/Mol-Kelvin    Cal/Mol-Kelvin
 Total                   45.319             31.375             96.953
 Electronic               0.000              0.000              1.377
 Translational            0.889              2.981             42.067
 Rotational               0.889              2.981             31.634
 Vibrational             43.541             25.413             21.875
 Vibration     1          0.600              1.964              3.935
 Vibration     2          0.619              1.899              2.628
 Vibration     3          0.620              1.898              2.617
 Vibration     4          0.634              1.852              2.217
 Vibration     5          0.654              1.790              1.852
 Vibration     6          0.671              1.737              1.628
 Vibration     7          0.714              1.612              1.250
 Vibration     8          0.721              1.592              1.204
 Vibration     9          0.802              1.378              0.819
 Vibration    10          0.827              1.318              0.739
 Vibration    11          0.842              1.282              0.695
 Vibration    12          0.980              0.991              0.417

 Optimization completed.
    -- Stationary point found.
 Normal termination of Gaussian 16 at Sun Dec 17 21:06:44 2023.
