 Gaussian 16, Revision A.03,
 Gaussian 16:  ES64L-G16RevA.03 25-Dec-2016

 ----------------------------------------------------------------------
 #P UB3LYP/6-311++G(d,p) nosym opt freq SCRF=(PCM,Solvent=n,n-DiMethylF
 ormamide)
 ----------------------------------------------------------------------

 --------
 Oxidized
 --------
 Symbolic Z-matrix:
 Charge =  0 Multiplicity = 1

 SCF Done:  E(UB3LYP) =  -460.230459744     A.U. after   12 cycles
 SCF Done:  E(UB3LYP) =  -460.230544118     A.U. after    9 cycles
 SCF Done:  E(UB3LYP) =  -460.230555319     A.U. after    9 cycles
 SCF Done:  E(UB3LYP) =  -460.230555522     A.U. after    8 cycles
 SCF Done:  E(UB3LYP) =  -460.230555926     A.U. after    7 cycles
 Optimization completed.
    -- Stationary point found.
 Normal termination of Gaussian 16 at Sat Feb 10 10:05:07 2024.

 ----------------------------------------------------------------------
 #P Geom=AllCheck Guess=TCheck SCRF=Check GenChk UB3LYP/6-311++G(d,p) F
 req
 ----------------------------------------------------------------------

 Structure from the checkpoint file:  "037.chk"
 --------
 Oxidized
 --------
 Charge =  0 Multiplicity = 1

                          Input orientation:
 ---------------------------------------------------------------------
 Center     Atomic      Atomic             Coordinates (Angstroms)
 Number     Number       Type             X           Y           Z
 ---------------------------------------------------------------------
      1          6           0       -1.623143   -1.397921   -0.133862
      2          6           0       -0.317841   -0.656570   -0.092713
      3          6           0       -0.249507    0.678172    0.136303
      4          6           0       -1.473975    1.516962    0.364931
      5          6           0        1.073845    1.368967    0.168189
      6          8           0        1.162801    2.573863    0.375251
      7          6           0        2.301258    0.570322   -0.056919
      8          6           0        2.233909   -0.744210   -0.283400
      9          6           0        0.929565   -1.446145   -0.316453
     10          8           0        0.894844   -2.653665   -0.524443
     11          1           0       -1.461715   -2.456235   -0.328845
     12          1           0       -2.275138   -0.993718   -0.914352
     13          1           0       -2.158923   -1.294413    0.814734
     14          1           0       -2.034436    1.158192    1.233686
     15          1           0       -2.148639    1.461601   -0.494951
     16          1           0       -1.205062    2.558415    0.529911
     17          1           0        3.239379    1.112524   -0.025868
     18          1           0        3.112779   -1.356141   -0.451201
 ---------------------------------------------------------------------

 SCF Done:  E(UB3LYP) =  -460.230555926     A.U. after    1 cycles

 Alpha  occ. eigenvalues --  -19.14185 -19.14185 -10.28606 -10.28605 -10.21424
 Alpha  occ. eigenvalues --  -10.21352 -10.21154 -10.21070 -10.17485 -10.17484
 Alpha  occ. eigenvalues --   -1.07125  -1.06936  -0.86916  -0.81622  -0.75171
 Alpha  occ. eigenvalues --   -0.69717  -0.69276  -0.60668  -0.59159  -0.53393
 Alpha  occ. eigenvalues --   -0.50598  -0.47755  -0.46563  -0.45091  -0.43934
 Alpha  occ. eigenvalues --   -0.42710  -0.42544  -0.42215  -0.41316  -0.40172
 Alpha  occ. eigenvalues --   -0.38646  -0.37898  -0.31197  -0.29361  -0.27942
 Alpha  occ. eigenvalues --   -0.27924
 Alpha virt. eigenvalues --   -0.13492  -0.02845  -0.00752  -0.00101   0.00610
 Alpha virt. eigenvalues --    0.01373   0.03056   0.03144   0.03801   0.04119
 Alpha virt. eigenvalues --    0.06178   0.06360   0.06425   0.07163   0.08282

  Beta  occ. eigenvalues --  -19.14185 -19.14185 -10.28606 -10.28605 -10.21424
  Beta  occ. eigenvalues --  -10.21352 -10.21154 -10.21070 -10.17485 -10.17484
  Beta  occ. eigenvalues --   -1.07125  -1.06936  -0.86916  -0.81622  -0.75171
  Beta  occ. eigenvalues --   -0.69717  -0.69276  -0.60668  -0.59159  -0.53393
  Beta  occ. eigenvalues --   -0.50598  -0.47755  -0.46563  -0.45091  -0.43934
  Beta  occ. eigenvalues --   -0.42710  -0.42544  -0.42215  -0.41316  -0.40172
  Beta  occ. eigenvalues --   -0.38646  -0.37898  -0.31197  -0.29361  -0.27942
  Beta  occ. eigenvalues --   -0.27924
  Beta virt. eigenvalues --   -0.13492  -0.02845  -0.00752  -0.00101   0.00610
  Beta virt. eigenvalues --    0.01373   0.03056   0.03144   0.03801   0.04119
  Beta virt. eigenvalues --    0.06178   0.06360   0.06425   0.07163   0.08282

 Mulliken charges and spin densities:
               1          2
     1  C   -0.500569  -0.000000
     2  C    0.621139  -0.000000
     3  C    0.621361   0.000000
     4  C   -0.501007   0.000000
     5  C   -0.651401  -0.000000
     6  O   -0.300550   0.000000
     7  C    0.054012  -0.000000
     8  C    0.054034   0.000000
     9  C   -0.651328  -0.000000
    10  O   -0.300499   0.000000
    11  H    0.193162  -0.000000
    12  H    0.173538  -0.000000
    13  H    0.173236   0.000000
    14  H    0.173348   0.000000
    15  H    0.173521   0.000000
    16  H    0.193199  -0.000000
    17  H    0.237383  -0.000000
    18  H    0.237419   0.000000
 Sum of Mulliken charges =  -0.00000   0.00000

 Dipole moment (field-independent basis, Debye):
    X=             -1.2352    Y=              0.0483    Z=              0.0818  Tot=              1.2388
 Quadrupole moment (field-independent basis, Debye-Ang):
   XX=            -49.4413   YY=            -79.0761   ZZ=            -58.8765
   XY=             -1.4090   XZ=             -0.8601   YZ=             -3.5516

  Exact polarizability: 126.873   4.565 203.086  -2.631  21.916  80.360
 Approx polarizability: 128.546   8.152 277.482  -1.241  32.479  95.035

                      1                      2                      3
                      A                      A                      A
 Frequencies --     33.6388                74.5018                84.8421
 Red. masses --      1.0676                 6.5530                 1.0685
 Frc consts  --      0.0007                 0.0214                 0.0045
 IR Inten    --      0.0038                22.9263                 0.0341

                      4                      5                      6
                      A                      A                      A
 Frequencies --    108.6951               249.5033               256.8798
 Red. masses --      3.2111                 3.1894                 4.2297
 Frc consts  --      0.0224                 0.1170                 0.1644
 IR Inten    --      0.0009                 0.3136                 0.0011

                      7                      8                      9
                      A                      A                      A
 Frequencies --    310.1591               330.8953               411.1600
 Red. masses --      2.5617                 3.8455                 9.1255
 Frc consts  --      0.1452                 0.2481                 0.9089
 IR Inten    --      0.3393                 2.2723                39.2218

                     10                     11                     12
                      A                      A                      A
 Frequencies --    443.8375               467.3141               498.1076
 Red. masses --      5.1871                10.8718                 3.5869
 Frc consts  --      0.6020                 1.3988                 0.5243
 IR Inten    --      0.2415                 2.1444                 0.0005

                     13                     14                     15
                      A                      A                      A
 Frequencies --    598.8449               599.3206               624.3157
 Red. masses --      2.1225                 3.9827                 5.7668
 Frc consts  --      0.4485                 0.8428                 1.3243
 IR Inten    --      0.0425                 0.1822                10.2450

                     16                     17                     18
                      A                      A                      A
 Frequencies --    760.7081               791.1386               818.3196
 Red. masses --      6.8849                 6.7243                 2.3346
 Frc consts  --      2.3474                 2.4797                 0.9211
 IR Inten    --     14.6483                 0.0002                 8.9016

                     19                     20                     21
                      A                      A                      A
 Frequencies --    844.7508               968.5560              1008.6841
 Red. masses --      1.8730                 1.9161                 1.2515
 Frc consts  --      0.7875                 1.0590                 0.7502
 IR Inten    --     85.5218                 0.0310                 0.0004

                     22                     23                     24
                      A                      A                      A
 Frequencies --   1019.9170              1054.0092              1061.3719
 Red. masses --      1.4664                 1.5491                 2.0516
 Frc consts  --      0.8987                 1.0140                 1.3617
 IR Inten    --      0.0023                 0.1014               132.8329

                     25                     26                     27
                      A                      A                      A
 Frequencies --   1123.0802              1144.0529              1152.9400
 Red. masses --      2.0975                 3.7447                 1.4195
 Frc consts  --      1.5587                 2.8877                 1.1118
 IR Inten    --      1.2976                41.8088                 3.5344

                     28                     29                     30
                      A                      A                      A
 Frequencies --   1310.7369              1310.7847              1388.1461
 Red. masses --      3.4345                 3.6621                 1.6435
 Frc consts  --      3.4765                 3.7072                 1.8659
 IR Inten    --    134.2873               149.7678                 0.6399

                     31                     32                     33
                      A                      A                      A
 Frequencies --   1397.7031              1400.5243              1469.3463
 Red. masses --      1.4199                 1.1965                 1.0722
 Frc consts  --      1.6343                 1.3828                 1.3639
 IR Inten    --     18.4237                29.8584                 0.9278

                     34                     35                     36
                      A                      A                      A
 Frequencies --   1474.2431              1475.0620              1486.9890
 Red. masses --      1.0445                 1.1092                 1.0432
 Frc consts  --      1.3376                 1.4220                 1.3590
 IR Inten    --      1.6747                66.3637                34.2488

                     37                     38                     39
                      A                      A                      A
 Frequencies --   1639.6460              1672.1161              1678.2395
 Red. masses --      8.8800                10.9439                11.6170
 Frc consts  --     14.0657                18.0283                19.2776
 IR Inten    --     68.6010                 2.3911              1222.8614

                     40                     41                     42
                      A                      A                      A
 Frequencies --   1706.1218              3026.7571              3031.1915
 Red. masses --      8.1968                 1.0397                 1.0405
 Frc consts  --     14.0578                 5.6120                 5.6328
 IR Inten    --      1.4536                29.5076                 1.0348

                     43                     44                     45
                      A                      A                      A
 Frequencies --   3069.8745              3078.4115              3140.5291
 Red. masses --      1.0995                 1.0997                 1.0970
 Frc consts  --      6.1048                 6.1404                 6.3748
 IR Inten    --     30.4990                 0.0183                 2.0229

                     46                     47                     48
                      A                      A                      A
 Frequencies --   3140.9658              3181.3413              3198.5156
 Red. masses --      1.0976                 1.0873                 1.1002
 Frc consts  --      6.3799                 6.4838                 6.6314
 IR Inten    --     18.4270                 4.8294                 4.5221

 - Thermochemistry -
 -------------------
 Temperature   298.150 Kelvin.  Pressure   1.00000 Atm.
 Atom     1 has atomic number  6 and mass  12.00000

 Molecular mass:   136.05243 amu.
 Principal axes and moments of inertia in atomic units:
                           1         2         3
     Eigenvalues --   927.492461337.881412243.10543
           X            0.05041   0.99650   0.06675
           Y            0.98429  -0.03824  -0.17238
           Z            0.16922  -0.07439   0.98277
 This molecule is an asymmetric top.
 Rotational symmetry number  1.
 Warning -- assumption of classical behavior for rotation
           may cause significant error
 Rotational temperatures (Kelvin)      0.09339     0.06474     0.03861
 Rotational constants (GHZ):           1.94583     1.34895     0.80457
 Zero-point vibrational energy     365559.6 (Joules/Mol)
                                   87.37084 (Kcal/Mol)
 Warning -- explicit consideration of  14 degrees of freedom as
           vibrations may cause significant error
 Vibrational temperatures:     48.40   107.19   122.07   156.39   358.98
          (Kelvin)            369.59   446.25   476.08   591.57   638.58
                              672.36   716.67   861.60   862.29   898.25
                             1094.49  1138.27  1177.38  1215.41  1393.54
                             1451.27  1467.43  1516.48  1527.08  1615.86
                             1646.04  1658.82  1885.86  1885.93  1997.23
                             2010.98  2015.04  2114.06  2121.11  2122.29
                             2139.45  2359.08  2405.80  2414.61  2454.73
                             4354.83  4361.21  4416.86  4429.15  4518.52
                             4519.15  4577.24  4601.95

 Zero-point correction=                           0.139234 (Hartree/Particle)
 Thermal correction to Energy=                    0.149089
 Thermal correction to Enthalpy=                  0.150033
 Thermal correction to Gibbs Free Energy=         0.103074
 Sum of electronic and zero-point Energies=           -460.091322
 Sum of electronic and thermal Energies=              -460.081467
 Sum of electronic and thermal Enthalpies=            -460.080522
 Sum of electronic and thermal Free Energies=         -460.127481

                     E (Thermal)             CV                S
                      KCal/Mol        Cal/Mol-Kelvin    Cal/Mol-Kelvin
 Total                   93.555             35.237             98.834
 Electronic               0.000              0.000              0.000
 Translational            0.889              2.981             40.636
 Rotational               0.889              2.981             29.411
 Vibrational             91.777             29.275             28.787
 Vibration     1          0.594              1.983              5.602
 Vibration     2          0.599              1.966              4.031
 Vibration     3          0.601              1.960              3.776
 Vibration     4          0.606              1.942              3.292
 Vibration     5          0.662              1.764              1.734
 Vibration     6          0.666              1.751              1.683
 Vibration     7          0.699              1.654              1.361
 Vibration     8          0.713              1.614              1.256
 Vibration     9          0.775              1.446              0.923
 Vibration    10          0.803              1.374              0.815
 Vibration    11          0.825              1.323              0.745
 Vibration    12          0.854              1.254              0.663
 Vibration    13          0.957              1.034              0.452
 Vibration    14          0.957              1.033              0.451

                           ! Non-Optimized Parameters !
 Normal termination of Gaussian 16 at Sat Feb 10 10:10:59 2024.
