 Gaussian 16, Revision A.03,
 Gaussian 16:  ES64L-G16RevA.03 25-Dec-2016

 ----------------------------------------------------------------------
 #P UB3LYP/6-311++G(d,p) nosym opt freq SCRF=(PCM,Solvent=n,n-DiMethylF
 ormamide)
 ----------------------------------------------------------------------

 -------
 Radical
 -------
 Symbolic Z-matrix:
 Charge = -1 Multiplicity = 2

 SCF Done:  E(UB3LYP) =  -649.980927478     A.U. after   20 cycles
 SCF Done:  E(UB3LYP) =  -649.981229514     A.U. after   15 cycles
 SCF Done:  E(UB3LYP) =  -649.981277213     A.U. after   13 cycles
 SCF Done:  E(UB3LYP) =  -649.981281377     A.U. after   12 cycles
 SCF Done:  E(UB3LYP) =  -649.981282732     A.U. after   11 cycles
 SCF Done:  E(UB3LYP) =  -649.981284248     A.U. after   12 cycles
 SCF Done:  E(UB3LYP) =  -649.981284810     A.U. after   12 cycles
 SCF Done:  E(UB3LYP) =  -649.981285214     A.U. after   10 cycles
 SCF Done:  E(UB3LYP) =  -649.981285391     A.U. after    9 cycles
 SCF Done:  E(UB3LYP) =  -649.981285479     A.U. after    9 cycles
 SCF Done:  E(UB3LYP) =  -649.981285525     A.U. after    9 cycles
 Optimization completed.
    -- Stationary point found.
 Normal termination of Gaussian 16 at Sun Feb 11 15:16:32 2024.

 ----------------------------------------------------------------------
 #P Geom=AllCheck Guess=TCheck SCRF=Check GenChk UB3LYP/6-311++G(d,p) F
 req
 ----------------------------------------------------------------------

 Structure from the checkpoint file:  "308-rad.chk"
 -------
 Radical
 -------
 Charge = -1 Multiplicity = 2

                          Input orientation:
 ---------------------------------------------------------------------
 Center     Atomic      Atomic             Coordinates (Angstroms)
 Number     Number       Type             X           Y           Z
 ---------------------------------------------------------------------
      1          6           0       -4.063398    3.604046    1.537236
      2          6           0       -4.551322    3.827882    0.264816
      3          6           0       -3.968315    3.174621   -0.827230
      4          6           0       -2.897128    2.305161   -0.648457
      5          6           0       -2.356971    2.057505    0.647175
      6          6           0       -2.980327    2.729765    1.746565
      7          6           0       -2.510143    2.523221    3.126587
      8          6           0       -1.414105    1.624696    3.299193
      9          6           0       -0.788452    0.973398    2.259117
     10          6           0       -1.209804    1.159653    0.882920
     11          8           0       -3.059285    3.114626    4.108283
     12          8           0       -0.593231    0.565066   -0.047167
     13          1           0       -4.498108    4.091621    2.400219
     14          1           0       -4.352002    3.340931   -1.829769
     15          8           0       -2.362624    1.676000   -1.741783
     16          6           0        0.368020    0.043375    2.512164
     17          1           0       -5.384609    4.502648    0.102142
     18          1           0       -1.072054    1.466625    4.318868
     19          1           0       -2.856127    1.956847   -2.522554
     20          1           0        0.585470   -0.026360    3.580004
     21          1           0        1.271702    0.382448    1.995537
     22          1           0        0.158754   -0.962304    2.133757
 ---------------------------------------------------------------------

 SCF Done:  E(UB3LYP) =  -649.981285525     A.U. after    1 cycles

 Alpha  occ. eigenvalues --  -19.15179 -19.07034 -19.06952 -10.23981 -10.21999
 Alpha  occ. eigenvalues --  -10.21646 -10.17720 -10.17404 -10.17380 -10.17040
 Alpha  occ. eigenvalues --  -10.16940 -10.16227 -10.15567 -10.15446  -1.06400
 Alpha  occ. eigenvalues --   -0.99327  -0.98951  -0.85432  -0.80857  -0.75592
 Alpha  occ. eigenvalues --   -0.74285  -0.69962  -0.65797  -0.62836  -0.59606
 Alpha  occ. eigenvalues --   -0.57154  -0.52226  -0.50874  -0.47582  -0.46818
 Alpha  occ. eigenvalues --   -0.44902  -0.43401  -0.43070  -0.40942  -0.40871
 Alpha  occ. eigenvalues --   -0.39207  -0.38876  -0.38532  -0.37627  -0.36504
 Alpha  occ. eigenvalues --   -0.36113  -0.35038  -0.34631  -0.33189  -0.26973
 Alpha  occ. eigenvalues --   -0.24806  -0.23847  -0.23275  -0.22970  -0.14788
 Alpha virt. eigenvalues --   -0.02448  -0.01628  -0.00382   0.00505   0.01103
 Alpha virt. eigenvalues --    0.02436   0.02836   0.03720   0.04330   0.05332
 Alpha virt. eigenvalues --    0.05386   0.05515   0.05625   0.07132   0.07334

  Beta  occ. eigenvalues --  -19.15168 -19.06424 -19.06321 -10.23982 -10.21852
  Beta  occ. eigenvalues --  -10.21475 -10.17692 -10.17365 -10.17315 -10.16981
  Beta  occ. eigenvalues --  -10.16744 -10.16210 -10.15580 -10.15365  -1.06374
  Beta  occ. eigenvalues --   -0.98234  -0.97856  -0.85222  -0.80363  -0.75399
  Beta  occ. eigenvalues --   -0.74081  -0.69611  -0.65149  -0.62645  -0.59338
  Beta  occ. eigenvalues --   -0.56944  -0.51965  -0.50671  -0.47370  -0.46651
  Beta  occ. eigenvalues --   -0.44780  -0.43152  -0.42320  -0.40641  -0.40459
  Beta  occ. eigenvalues --   -0.38908  -0.38781  -0.37507  -0.37142  -0.36369
  Beta  occ. eigenvalues --   -0.34849  -0.34435  -0.33882  -0.32410  -0.24561
  Beta  occ. eigenvalues --   -0.23907  -0.23278  -0.22553  -0.22394
  Beta virt. eigenvalues --   -0.08270  -0.01544  -0.00478  -0.00366   0.00515
  Beta virt. eigenvalues --    0.01115   0.02448   0.02851   0.03822   0.04351
  Beta virt. eigenvalues --    0.05349   0.05530   0.05677   0.06875   0.07302

 Mulliken charges and spin densities:
               1          2
     1  C   -0.067384   0.037072
     2  C   -0.354200   0.033022
     3  C   -0.197544   0.041314
     4  C    0.127688   0.025702
     5  C   -0.192283  -0.007698
     6  C    0.744996   0.058926
     7  C   -0.875109   0.087092
     8  C   -0.336588   0.055743
     9  C    0.639703   0.123871
    10  C   -0.371536   0.088825
    11  O   -0.506771   0.219824
    12  O   -0.469304   0.236964
    13  H    0.155173  -0.003204
    14  H    0.153168  -0.004049
    15  O   -0.235035   0.001151
    16  C   -0.326991   0.001775
    17  H    0.191655  -0.002150
    18  H    0.144599  -0.007017
    19  H    0.291459  -0.000457
    20  H    0.154266  -0.000002
    21  H    0.164886   0.006960
    22  H    0.165151   0.006336
 Sum of Mulliken charges =  -1.00000   1.00000

 Dipole moment (field-independent basis, Debye):
    X=              8.2626    Y=             -8.6252    Z=            -10.9907  Tot=             16.2315
 Quadrupole moment (field-independent basis, Debye-Ang):
   XX=           -103.6324   YY=           -108.8427   ZZ=           -121.8930
   XY=             19.6018   XZ=             40.3862   YZ=            -38.1673

  Exact polarizability: 226.997 -94.629 191.428   8.130  17.657 290.600
 Approx polarizability: 248.178-101.764 214.376  -6.534  32.841 328.571

                      1                      2                      3
                      A                      A                      A
 Frequencies --     69.5876                76.0081               148.0479
 Red. masses --      4.4482                 5.4509                 1.1959
 Frc consts  --      0.0127                 0.0186                 0.0154
 IR Inten    --     16.6388                 6.8004                 2.3883

                      4                      5                      6
                      A                      A                      A
 Frequencies --    170.4694               206.1158               238.5295
 Red. masses --      4.3212                 3.7856                 4.5960
 Frc consts  --      0.0740                 0.0948                 0.1541
 IR Inten    --      1.4688                 0.1111                17.3017

                      7                      8                      9
                      A                      A                      A
 Frequencies --    262.5096               312.6498               366.0362
 Red. masses --      4.1611                 4.0557                 8.9138
 Frc consts  --      0.1689                 0.2336                 0.7037
 IR Inten    --      6.5512                 0.1510                12.8585

                     10                     11                     12
                      A                      A                      A
 Frequencies --    369.7175               384.2523               399.0353
 Red. masses --      3.3284                10.0214                 1.3109
 Frc consts  --      0.2681                 0.8718                 0.1230
 IR Inten    --     13.1204                12.5327               117.7766

                     13                     14                     15
                      A                      A                      A
 Frequencies --    412.0839               483.8637               486.2625
 Red. masses --      5.8944                 6.7461                 4.1121
 Frc consts  --      0.5897                 0.9306                 0.5729
 IR Inten    --      8.9313                 2.8303                 1.5905

                     16                     17                     18
                      A                      A                      A
 Frequencies --    528.0630               547.0364               576.5178
 Red. masses --      7.6501                 4.3869                 5.6977
 Frc consts  --      1.2569                 0.7735                 1.1158
 IR Inten    --     15.6883                 2.0743                 6.9362

                     19                     20                     21
                      A                      A                      A
 Frequencies --    666.8160               679.9230               703.9620
 Red. masses --      4.3879                 3.5508                 3.4722
 Frc consts  --      1.1495                 0.9672                 1.0138
 IR Inten    --      1.9968                22.1727                12.6741

                     22                     23                     24
                      A                      A                      A
 Frequencies --    707.2754               765.4902               798.0902
 Red. masses --      6.5449                 1.9600                 4.8115
 Frc consts  --      1.9290                 0.6767                 1.8056
 IR Inten    --     64.6899                48.3486                 2.4459

                     25                     26                     27
                      A                      A                      A
 Frequencies --    802.5962               876.3958               883.9824
 Red. masses --      3.4393                 1.3893                 1.5132
 Frc consts  --      1.3053                 0.6287                 0.6967
 IR Inten    --     44.8484                31.0137                 6.9006

                     28                     29                     30
                      A                      A                      A
 Frequencies --    903.4077               978.1262               991.1995
 Red. masses --      5.5899                 1.2803                 5.5911
 Frc consts  --      2.6879                 0.7217                 3.2365
 IR Inten    --     53.7258                 0.8827               158.0680

                     31                     32                     33
                      A                      A                      A
 Frequencies --   1021.9061              1044.5207              1091.6903
 Red. masses --      1.5595                 1.5001                 2.1646
 Frc consts  --      0.9596                 0.9643                 1.5199
 IR Inten    --     64.3029                 3.1711                34.3458

                     34                     35                     36
                      A                      A                      A
 Frequencies --   1158.5122              1161.8740              1178.1427
 Red. masses --      2.8023                 1.5076                 1.8086
 Frc consts  --      2.2160                 1.1991                 1.4791
 IR Inten    --     74.4464                32.2575               159.9642

                     37                     38                     39
                      A                      A                      A
 Frequencies --   1218.3310              1232.2168              1273.5975
 Red. masses --      2.2167                 2.3467                 3.1861
 Frc consts  --      1.9386                 2.0994                 3.0449
 IR Inten    --     23.1160                 0.8671               113.9567

                     40                     41                     42
                      A                      A                      A
 Frequencies --   1305.2499              1347.8000              1396.0974
 Red. masses --      1.9829                 5.5032                 1.3927
 Frc consts  --      1.9904                 5.8900                 1.5994
 IR Inten    --     21.2824                 4.6007                80.2618

                     43                     44                     45
                      A                      A                      A
 Frequencies --   1411.1909              1449.1862              1458.6113
 Red. masses --      2.9547                 3.9074                 1.0758
 Frc consts  --      3.4669                 4.8349                 1.3485
 IR Inten    --     52.9529               514.5681                15.2410

                     46                     47                     48
                      A                      A                      A
 Frequencies --   1460.4664              1471.8307              1500.0399
 Red. masses --      2.5396                 1.4173                 3.7354
 Frc consts  --      3.1915                 1.8089                 4.9521
 IR Inten    --    404.7138                83.8901                14.9006

                     49                     50                     51
                      A                      A                      A
 Frequencies --   1517.6806              1564.8819              1622.5580
 Red. masses --      4.1422                 4.4492                 6.9944
 Frc consts  --      5.6214                 6.4194                10.8493
 IR Inten    --   1060.6981               217.2090                 1.7345

                     52                     53                     54
                      A                      A                      A
 Frequencies --   1624.7957              3017.2063              3059.5187
 Red. masses --      5.9626                 1.0363                 1.0992
 Frc consts  --      9.2744                 5.5586                 6.0623
 IR Inten    --     23.6926                83.8281                37.6449

                     55                     56                     57
                      A                      A                      A
 Frequencies --   3097.2485              3140.1800              3146.4320
 Red. masses --      1.1013                 1.0892                 1.0886
 Frc consts  --      6.2247                 6.3281                 6.3498
 IR Inten    --     34.1219                57.3910                25.9583

                     58                     59                     60
                      A                      A                      A
 Frequencies --   3172.0053              3198.9529              3791.1086
 Red. masses --      1.0912                 1.0926                 1.0660
 Frc consts  --      6.4689                 6.5874                 9.0266
 IR Inten    --     21.8643                18.2113                96.0829

 - Thermochemistry -
 -------------------
 Temperature   298.150 Kelvin.  Pressure   1.00000 Atm.
 Atom     1 has atomic number  6 and mass  12.00000

 Molecular mass:   188.04734 amu.
 Principal axes and moments of inertia in atomic units:
                           1         2         3
     Eigenvalues --  1881.997802462.629914333.00355
           X            0.64039  -0.43486   0.63309
           Y           -0.44083   0.46689   0.76661
           Z            0.62895   0.77001  -0.10729
 This molecule is an asymmetric top.
 Rotational symmetry number  1.
 Warning -- assumption of classical behavior for rotation
           may cause significant error
 Rotational temperatures (Kelvin)      0.04602     0.03517     0.01999
 Rotational constants (GHZ):           0.95895     0.73285     0.41651
 Zero-point vibrational energy     424243.0 (Joules/Mol)
                                  101.39650 (Kcal/Mol)
 Warning -- explicit consideration of  18 degrees of freedom as
           vibrations may cause significant error
 Vibrational temperatures:    100.12   109.36   213.01   245.27   296.55
          (Kelvin)            343.19   377.69   449.83   526.64   531.94
                              552.85   574.12   592.90   696.17   699.62
                              759.76   787.06   829.48   959.40   978.26
                             1012.84  1017.61  1101.37  1148.27  1154.76
                             1260.94  1271.85  1299.80  1407.31  1426.11
                             1470.30  1502.83  1570.70  1666.84  1671.68
                             1695.08  1752.91  1772.89  1832.42  1877.96
                             1939.18  2008.67  2030.39  2085.06  2098.62
                             2101.29  2117.64  2158.22  2183.60  2251.52
                             2334.50  2337.72  4341.09  4401.97  4456.25
                             4518.02  4527.01  4563.81  4602.58  5454.56

 Zero-point correction=                           0.161586 (Hartree/Particle)
 Thermal correction to Energy=                    0.173064
 Thermal correction to Enthalpy=                  0.174008
 Thermal correction to Gibbs Free Energy=         0.123710
 Sum of electronic and zero-point Energies=           -649.819700
 Sum of electronic and thermal Energies=              -649.808221
 Sum of electronic and thermal Enthalpies=            -649.807277
 Sum of electronic and thermal Free Energies=         -649.857576

                     E (Thermal)             CV                S
                      KCal/Mol        Cal/Mol-Kelvin    Cal/Mol-Kelvin
 Total                  108.599             45.234            105.863
 Electronic               0.000              0.000              1.377
 Translational            0.889              2.981             41.600
 Rotational               0.889              2.981             31.374
 Vibrational            106.822             39.272             31.511
 Vibration     1          0.598              1.969              4.165
 Vibration     2          0.599              1.965              3.991
 Vibration     3          0.617              1.905              2.697
 Vibration     4          0.626              1.879              2.430
 Vibration     5          0.641              1.831              2.078
 Vibration     6          0.657              1.782              1.814
 Vibration     7          0.670              1.741              1.645
 Vibration     8          0.701              1.650              1.348
 Vibration     9          0.739              1.542              1.096
 Vibration    10          0.742              1.534              1.081
 Vibration    11          0.753              1.504              1.022
 Vibration    12          0.765              1.472              0.966
 Vibration    13          0.776              1.444              0.919
 Vibration    14          0.840              1.286              0.700
 Vibration    15          0.842              1.281              0.693
 Vibration    16          0.883              1.188              0.592
 Vibration    17          0.902              1.146              0.550
 Vibration    18          0.933              1.082              0.492

 Optimization completed.
    -- Stationary point found.
 Normal termination of Gaussian 16 at Sun Feb 11 15:32:30 2024.
