 Q-Chem 5.4, Q-Chem, Inc., Pleasanton, CA (2021)
 Q-Chem 5.4.0 for Intel X86 EM64T Linux

User input:
--------------------------------------------------------------
$molecule
0 1
C                  2.9471410000      0.2561640000     -0.0776200000
C                  1.4632430000      0.0712620000     -0.0065830000
C                  0.8599420000     -0.9773010000      0.5790910000
C                 -0.6089700000     -1.1330590000      0.6337150000
O                 -1.1162930000     -2.1026870000      1.1762240000
C                 -1.4632480000     -0.0712410000      0.0065630000
C                 -0.8599440000      0.9773400000     -0.5790600000
C                  0.6089620000      1.1330490000     -0.6337310000
O                  1.1162810000      2.1027110000     -1.1762030000
C                 -2.9471580000     -0.2561890000      0.0776010000
H                  3.4692630000     -0.5698250000      0.4066250000
H                  3.2402880000      1.1951830000      0.3999900000
H                  3.2757530000      0.3275460000     -1.1181600000
H                  1.4246430000     -1.7761170000      1.0491540000
H                 -1.4246170000      1.7761950000     -1.0490850000
H                 -3.2757910000     -0.3273790000      1.1181460000
H                 -3.4692850000      0.5696780000     -0.4068370000
H                 -3.2402100000     -1.1953290000     -0.3998300000
$end

$rem
BASIS  =  6-311++G(d,p)
GUI  =  2
JOB_TYPE  =  SP
METHOD  =  B3LYP
SCF_CONVERGENCE  = 8
SOLVENT_METHOD = sm12
$end

$smx
solvent dimethylformamide
charges CM5
$end

--------------------------------------------------------------

             Standard Nuclear Orientation (Angstroms)
    I     Atom           X                Y                Z
 ----------------------------------------------------------------
    1      C       2.9471410000     0.2561640000    -0.0776200000
    2      C       1.4632430000     0.0712620000    -0.0065830000
    3      C       0.8599420000    -0.9773010000     0.5790910000
    4      C      -0.6089700000    -1.1330590000     0.6337150000
    5      O      -1.1162930000    -2.1026870000     1.1762240000
    6      C      -1.4632480000    -0.0712410000     0.0065630000
    7      C      -0.8599440000     0.9773400000    -0.5790600000
    8      C       0.6089620000     1.1330490000    -0.6337310000
    9      O       1.1162810000     2.1027110000    -1.1762030000
   10      C      -2.9471580000    -0.2561890000     0.0776010000
   11      H       3.4692630000    -0.5698250000     0.4066250000
   12      H       3.2402880000     1.1951830000     0.3999900000
   13      H       3.2757530000     0.3275460000    -1.1181600000
   14      H       1.4246430000    -1.7761170000     1.0491540000
   15      H      -1.4246170000     1.7761950000    -1.0490850000
   16      H      -3.2757910000    -0.3273790000     1.1181460000
   17      H      -3.4692850000     0.5696780000    -0.4068370000
   18      H      -3.2402100000    -1.1953290000    -0.3998300000
 ----------------------------------------------------------------

   14    -460.2258213737      2.81e-09  Convergence criterion met
 Total energy in the final basis set =     -460.2398148318

                    Orbital Energies (a.u.)
 --------------------------------------------------------------

 Alpha MOs
 -- Occupied --
-19.1350 -19.1350 -10.2794 -10.2794 -10.2164 -10.2164 -10.1996 -10.1996
-10.1734 -10.1734  -1.0663  -1.0645  -0.8643  -0.8160  -0.7348  -0.7224
 -0.6615  -0.6237  -0.5751  -0.5283  -0.4908  -0.4756  -0.4597  -0.4439
 -0.4334  -0.4325  -0.4228  -0.4050  -0.4009  -0.3967  -0.3918  -0.3828
 -0.3012  -0.2854  -0.2823  -0.2731

          Ground-State Mulliken Net Atomic Charges

     Atom                 Charge (a.u.)
  ----------------------------------------
      1 C                     0.040211
      2 C                     1.121687
      3 C                    -0.268851
      4 C                    -1.429572
      5 O                    -0.308112
      6 C                     1.121693
      7 C                    -0.268964
      8 C                    -1.429703
      9 O                    -0.308123
     10 C                     0.040184
     11 H                     0.228999
     12 H                     0.185259
     13 H                     0.185414
     14 H                     0.245111
     15 H                     0.245104
     16 H                     0.185430
     17 H                     0.228995
     18 H                     0.185238
  ----------------------------------------
  Sum of atomic charges =     0.000000

                    Cartesian Multipole Moments
 -----------------------------------------------------------------
    Charge (ESU x 10^10)
                -0.0000
    Dipole Moment (Debye)
         X       0.0000      Y      -0.0001      Z       0.0000
       Tot       0.0001
    Quadrupole Moments (Debye-Ang)
        XX     -49.9424     XY      -7.9333     YY     -70.4327
        XZ       4.7338     YZ       6.6480     ZZ     -62.1767

 Total job time:  160.59s(wall), 1081.79s(cpu)
        *  Thank you very much for using Q-Chem.  Have a nice day.  *
