 Q-Chem 5.4, Q-Chem, Inc., Pleasanton, CA (2021)
 Q-Chem 5.4.0 for Intel X86 EM64T Linux

User input:
--------------------------------------------------------------
$molecule
-1 2
C                 -4.9829770000     -1.2267170000     -0.6061740000
C                 -3.5810530000     -1.6767210000     -0.2962520000
O                 -3.2284020000     -2.2512910000      0.6989310000
O                 -2.7562510000     -1.3850800000     -1.3443760000
C                 -1.3723720000     -1.4006320000     -1.1465750000
C                 -0.6923110000     -2.4319520000     -1.7487960000
C                  0.7082260000     -2.4633390000     -1.6978040000
C                  1.3881960000     -1.4624170000     -1.0462250000
O                  2.7820950000     -1.5093860000     -1.1425730000
C                  3.5142300000     -1.8351130000     -0.0372120000
C                  4.9538500000     -1.4492890000     -0.2434700000
O                  3.0642420000     -2.3902050000      0.9293610000
C                  0.7297730000     -0.3746380000     -0.4117750000
C                  1.4908640000      0.6962130000      0.2412740000
O                  2.7426550000      0.6822360000      0.3507190000
C                  0.7210910000      1.8220430000      0.7724220000
C                  1.4104360000      2.9037710000      1.3637250000
C                  0.7271360000      3.9848890000      1.8821320000
C                 -0.6830240000      4.0161240000      1.8314850000
C                 -1.3745090000      2.9654650000      1.2636460000
C                 -0.6930180000      1.8534140000      0.7215330000
C                 -1.4716910000      0.7620650000      0.1343530000
O                 -2.7274810000      0.8038210000      0.1532320000
C                 -0.7137890000     -0.3424550000     -0.4640560000
H                 -5.0009520000     -0.1415670000     -0.4846310000
H                 -5.6817800000     -1.6936190000      0.0866120000
H                 -5.2480690000     -1.4621450000     -1.6389920000
H                 -1.2537180000     -3.2035910000     -2.2611970000
H                  1.2702960000     -3.2602270000     -2.1691950000
H                  5.0115410000     -0.3656360000     -0.1209330000
H                  5.2830800000     -1.6997470000     -1.2540580000
H                  5.5783440000     -1.9447320000      0.4987040000
H                  2.4918810000      2.8484700000      1.3949390000
H                  1.2722620000      4.8093200000      2.3318520000
H                 -1.2220100000      4.8645510000      2.2422890000
H                 -2.4567910000      2.9581130000      1.2170870000
$end
$rem
MAX_SCF_CYCLES=200
BASIS  =  6-311++G(d,p)
GUI  =  2
JOB_TYPE  =  SP
METHOD  =  B3LYP
SOLVENT_METHOD = COSMO
$end
$solvent
dielectric 37.219
opticaldielectric 1.43
$end

--------------------------------------------------------------

             Standard Nuclear Orientation (Angstroms)
    I     Atom           X                Y                Z
 ----------------------------------------------------------------
    1      C       4.9735419076     1.2822191733     0.0928391284
    2      C       3.5516786433     1.5638202471     0.4965120663
    3      O       3.1503761345     1.6929894136     1.6221915229
    4      O       2.7723078756     1.7086181533    -0.6150325816
    5      C       1.3821227918     1.6363556453    -0.4859909226
    6      C       0.7019822337     2.8182723612    -0.6570340074
    7      C      -0.6998340435     2.8188546486    -0.6569864173
    8      C      -1.3809591636     1.6374922050    -0.4860753534
    9      O      -2.7711068540     1.7110302629    -0.6146249522
   10      C      -3.5500975970     1.5659211078     0.4971571453
   11      C      -4.9723923703     1.2858770904     0.0939683654
   12      O      -3.1480175675     1.6931453533     1.6227793440
   13      C      -0.7223717621     0.3908332044    -0.3088332226
   14      C      -1.4830596936    -0.8557275151    -0.1677849526
   15      O      -2.7380163148    -0.8935329284    -0.1147858780
   16      C      -0.7086149930    -2.0955640027    -0.0956548757
   17      C      -1.3951285455    -3.3271303697    -0.0125004486
   18      C      -0.7075965571    -4.5213670261     0.0620610092
   19      C       0.7038180355    -4.5218926844     0.0627966131
   20      C       1.3922963603    -3.3281533406    -0.0111015922
   21      C       0.7067568374    -2.0960958007    -0.0950283188
   22      C       1.4821550582    -0.8568379286    -0.1668068573
   23      O       2.7370329775    -0.8955519015    -0.1130375323
   24      C       0.7224949836     0.3902769501    -0.3085610587
   25      H       5.0109316613     0.2384213617    -0.2261192682
   26      H       5.6361465244     1.4388768620     0.9429503226
   27      H       5.2709225879     1.9106386690    -0.7492219152
   28      H       1.2646139744     3.7332391944    -0.7964634492
   29      H      -1.2617109219     3.7343118576    -0.7962527675
   30      H      -5.0106690694     0.2426290455    -0.2266806693
   31      H      -5.2699357776     1.9158779371    -0.7468506177
   32      H      -5.6343130650     1.4415813071     0.9447891217
   33      H      -2.4779467272    -3.2949342182    -0.0076019001
   34      H      -1.2505124270    -5.4597350664     0.1237431556
   35      H       1.2459775476    -5.4606574527     0.1250700592
   36      H       2.4751329296    -3.2967601152    -0.0051392564
 ----------------------------------------------------------------

    9   -1144.9045733133      7.15e-06  Convergence criterion met
 Total energy in the final basis set =    -1144.9045733133
    4   -1144.9897855035      8.58e-06  Convergence criterion met
 Total energy in the final basis set =    -1144.9897855035

                    Orbital Energies (a.u.)
 --------------------------------------------------------------

 Alpha MOs
 -- Occupied --
-19.1740 -19.1740 -19.1232 -19.1232 -19.0818 -19.0818 -10.3144 -10.3144
-10.2442 -10.2442 -10.2353 -10.2353 -10.1938 -10.1934 -10.1822 -10.1817
-10.1772 -10.1767 -10.1752 -10.1747 -10.1720 -10.1720 -10.1700 -10.1699
 -1.1189  -1.1186  -1.0398  -1.0393  -1.0118  -1.0096  -0.8732  -0.8583
 -0.7961  -0.7887  -0.7552  -0.7535  -0.7496  -0.7283  -0.6820  -0.6607
 -0.6337  -0.6328  -0.6004  -0.5784  -0.5462  -0.5426  -0.5173  -0.5030
 -0.5006  -0.4945  -0.4881  -0.4871  -0.4721  -0.4708  -0.4629  -0.4516
 -0.4448  -0.4294  -0.4262  -0.4213  -0.4206  -0.4119  -0.4108  -0.4046
 -0.4018  -0.3963  -0.3870  -0.3821  -0.3802  -0.3766  -0.3631  -0.3570
 -0.3459  -0.3407  -0.3308  -0.3239  -0.2953  -0.2932  -0.2772  -0.2596
 -0.2576  -0.2565  -0.2516  -0.2406  -0.1493

 Beta MOs
 -- Occupied --
-19.1740 -19.1740 -19.1232 -19.1231 -19.0763 -19.0763 -10.3144 -10.3144
-10.2441 -10.2441 -10.2336 -10.2336 -10.1928 -10.1924 -10.1815 -10.1810
-10.1766 -10.1761 -10.1748 -10.1743 -10.1720 -10.1720 -10.1700 -10.1700
 -1.1187  -1.1185  -1.0397  -1.0391  -1.0023  -0.9998  -0.8707  -0.8570
 -0.7920  -0.7877  -0.7551  -0.7516  -0.7478  -0.7273  -0.6750  -0.6600
 -0.6322  -0.6300  -0.5995  -0.5771  -0.5438  -0.5411  -0.5161  -0.5025
 -0.5004  -0.4937  -0.4877  -0.4847  -0.4709  -0.4703  -0.4613  -0.4511
 -0.4438  -0.4258  -0.4222  -0.4187  -0.4163  -0.4099  -0.4069  -0.4021
 -0.4009  -0.3950  -0.3814  -0.3788  -0.3781  -0.3644  -0.3605  -0.3554
 -0.3397  -0.3346  -0.3292  -0.3232  -0.2951  -0.2930  -0.2575  -0.2548
 -0.2504  -0.2490  -0.2463  -0.2357

          Ground-State Mulliken Net Atomic Charges

     Atom                 Charge (a.u.)    Spin (a.u.)
  --------------------------------------------------------
      1 C                    -0.499431       0.002445
      2 C                     0.094478      -0.001195
      3 O                    -0.308163      -0.000707
      4 O                    -0.008329      -0.000877
      5 C                    -0.564842       0.037101
      6 C                     0.015050       0.054407
      7 C                     0.015013       0.054358
      8 C                    -0.563929       0.037114
      9 O                    -0.008247      -0.000880
     10 C                     0.093897      -0.001183
     11 C                    -0.499574       0.002443
     12 O                    -0.307842      -0.000706
     13 C                     0.706496       0.047877
     14 C                    -0.419940       0.077485
     15 O                    -0.435615       0.208942
     16 C                     0.207300       0.021356
     17 C                    -0.072950       0.031894
     18 C                    -0.399603       0.029357
     19 C                    -0.399311       0.029363
     20 C                    -0.072927       0.031896
     21 C                     0.207928       0.021395
     22 C                    -0.420567       0.077405
     23 O                    -0.435103       0.209011
     24 C                     0.708095       0.047997
     25 H                     0.206157      -0.000488
     26 H                     0.173228      -0.000231
     27 H                     0.186664       0.000323
     28 H                     0.233994      -0.004385
     29 H                     0.233820      -0.004382
     30 H                     0.206157      -0.000487
     31 H                     0.186546       0.000324
     32 H                     0.173185      -0.000231
     33 H                     0.175481      -0.000909
     34 H                     0.208649      -0.002462
     35 H                     0.208709      -0.002462
     36 H                     0.175527      -0.000908
  --------------------------------------------------------
  Sum of atomic charges =    -1.000000

                    Cartesian Multipole Moments
 -----------------------------------------------------------------
    Charge (ESU x 10^10)
                -4.8032
    Dipole Moment (Debye)
         X       0.0025      Y       1.2604      Z      -4.4777
       Tot       4.6517
    Quadrupole Moments (Debye-Ang)
        XX    -152.6918     XY      -0.0062     YY    -134.7033
        XZ      -0.0217     YZ     -10.9278     ZZ    -157.4735

 Total job time:  182.29s(wall), 1342.38s(cpu)
        *  Thank you very much for using Q-Chem.  Have a nice day.  *
