 Gaussian 16, Revision A.03,
 Gaussian 16:  ES64L-G16RevA.03 25-Dec-2016

 --------------------------------------
 #P UB3LYP/6-311++G(d,p) nosym opt freq
 --------------------------------------

 -------
 Radical
 -------
 Symbolic Z-matrix:
 Charge = -1 Multiplicity = 2

 SCF Done:  E(UB3LYP) =  -744.336263860     A.U. after   26 cycles
 SCF Done:  E(UB3LYP) =  -744.346573476     A.U. after   20 cycles
 SCF Done:  E(UB3LYP) =  -744.347688533     A.U. after   19 cycles
 SCF Done:  E(UB3LYP) =  -744.347638642     A.U. after   19 cycles
 SCF Done:  E(UB3LYP) =  -744.347769868     A.U. after   20 cycles
 SCF Done:  E(UB3LYP) =  -744.348021225     A.U. after   19 cycles
 SCF Done:  E(UB3LYP) =  -744.348068894     A.U. after   19 cycles
 SCF Done:  E(UB3LYP) =  -744.348072383     A.U. after   18 cycles
 SCF Done:  E(UB3LYP) =  -744.348073246     A.U. after   14 cycles
 SCF Done:  E(UB3LYP) =  -744.348074166     A.U. after   14 cycles
 SCF Done:  E(UB3LYP) =  -744.348074984     A.U. after   14 cycles
 SCF Done:  E(UB3LYP) =  -744.348076392     A.U. after   12 cycles
 SCF Done:  E(UB3LYP) =  -744.348077825     A.U. after   13 cycles
 SCF Done:  E(UB3LYP) =  -744.348079250     A.U. after   14 cycles
 SCF Done:  E(UB3LYP) =  -744.348080281     A.U. after   14 cycles
 Optimization completed.
    -- Stationary point found.
 Normal termination of Gaussian 16 at Sat Jan  6 03:03:26 2024.

 ----------------------------------------------------------------------
 #P Geom=AllCheck Guess=TCheck SCRF=Check GenChk UB3LYP/6-311++G(d,p) F
 req
 ----------------------------------------------------------------------

 Structure from the checkpoint file:  "320-rad.chk"
 -------
 Radical
 -------
 Charge = -1 Multiplicity = 2

                          Input orientation:
 ---------------------------------------------------------------------
 Center     Atomic      Atomic             Coordinates (Angstroms)
 Number     Number       Type             X           Y           Z
 ---------------------------------------------------------------------
      1          6           0       -0.468098    3.906760    0.305905
      2          6           0        0.556834    2.992798    0.341469
      3          6           0        0.387571    1.666125   -0.165238
      4          6           0       -0.843560    1.310061   -0.693858
      5          6           0        1.520433    0.728586   -0.136773
      6          6           0        1.500123   -0.702444    0.107671
      7          6           0        2.844714    1.050487   -0.327066
      8          6           0        2.842344   -1.171339    0.048441
      9          6           0        0.484648   -1.623674    0.410858
     10          6           0        0.813499   -2.957607    0.615450
     11          6           0        2.147415   -3.401159    0.529743
     12          6           0        3.178441   -2.512448    0.250936
     13          7           0        3.643698   -0.080838   -0.204503
     14          1           0       -0.996867    0.326410   -1.126586
     15          1           0        3.285650    2.007604   -0.556784
     16          1           0       -0.543085   -1.290475    0.484931
     17          1           0        0.030666   -3.671947    0.846808
     18          1           0        2.374659   -4.450043    0.689203
     19          1           0        4.209161   -2.849459    0.197730
     20          1           0        4.634521   -0.110479   -0.369807
     21          6           0       -1.776979    3.606771   -0.233372
     22          6           0       -1.974664    2.203647   -0.769280
     23          8           0       -2.694941    4.454570   -0.252136
     24          8           0       -3.066872    1.842035   -1.263447
     25          1           0       -0.333473    4.907777    0.707425
     26          1           0        1.509092    3.264980    0.788981
 ---------------------------------------------------------------------

 SCF Done:  E(UB3LYP) =  -744.348080281     A.U. after    2 cycles

 Alpha  occ. eigenvalues --  -18.93106 -18.92851 -14.27075 -10.11975 -10.10727
 Alpha  occ. eigenvalues --  -10.09287 -10.08835 -10.08080 -10.08031 -10.07965
 Alpha  occ. eigenvalues --  -10.07310 -10.07300 -10.07156 -10.05142 -10.03926
 Alpha  occ. eigenvalues --  -10.02396 -10.02190  -0.89341  -0.86378  -0.83789
 Alpha  occ. eigenvalues --   -0.75675  -0.71837  -0.68027  -0.65185  -0.63408
 Alpha  occ. eigenvalues --   -0.59685  -0.56093  -0.53853  -0.50900  -0.48811
 Alpha  occ. eigenvalues --   -0.45960  -0.44659  -0.42131  -0.39883  -0.38781
 Alpha  occ. eigenvalues --   -0.35485  -0.34750  -0.34051  -0.33907  -0.32742
 Alpha  occ. eigenvalues --   -0.30808  -0.30416  -0.27808  -0.27595  -0.26492
 Alpha  occ. eigenvalues --   -0.26333  -0.25431  -0.25341  -0.23318  -0.22053
 Alpha  occ. eigenvalues --   -0.20803  -0.19922  -0.17761  -0.14200  -0.12385
 Alpha  occ. eigenvalues --   -0.10811  -0.08934  -0.07180  -0.02219
 Alpha virt. eigenvalues --    0.05382   0.06312   0.06758   0.08327   0.09547
 Alpha virt. eigenvalues --    0.09633   0.10367   0.11476   0.11939   0.12236
 Alpha virt. eigenvalues --    0.12400   0.13402   0.14197   0.14474   0.15041

  Beta  occ. eigenvalues --  -18.92449 -18.92168 -14.27059 -10.11979 -10.10661
  Beta  occ. eigenvalues --  -10.09283 -10.08841 -10.08074 -10.08026 -10.07960
  Beta  occ. eigenvalues --  -10.07332 -10.07261 -10.07111 -10.05000 -10.03799
  Beta  occ. eigenvalues --  -10.02265 -10.02057  -0.89297  -0.85269  -0.82540
  Beta  occ. eigenvalues --   -0.75667  -0.71585  -0.67735  -0.65171  -0.63311
  Beta  occ. eigenvalues --   -0.59323  -0.55377  -0.53763  -0.50844  -0.48561
  Beta  occ. eigenvalues --   -0.45867  -0.44318  -0.41787  -0.39842  -0.38743
  Beta  occ. eigenvalues --   -0.35384  -0.34731  -0.33921  -0.33792  -0.32594
  Beta  occ. eigenvalues --   -0.30707  -0.30060  -0.27679  -0.27484  -0.26053
  Beta  occ. eigenvalues --   -0.25317  -0.25032  -0.24646  -0.22879  -0.21751
  Beta  occ. eigenvalues --   -0.20135  -0.17195  -0.16611  -0.14116  -0.11769
  Beta  occ. eigenvalues --   -0.10139  -0.07150  -0.06562
  Beta virt. eigenvalues --    0.04511   0.05386   0.06447   0.06757   0.08327
  Beta virt. eigenvalues --    0.09554   0.09672   0.10372   0.11670   0.12134
  Beta virt. eigenvalues --    0.12260   0.12774   0.13604   0.14376   0.14866

 Mulliken charges and spin densities:
               1          2
     1  C    0.409867   0.121240
     2  C   -1.058920   0.058708
     3  C    1.463398   0.099870
     4  C   -0.725939   0.075150
     5  C    0.349558   0.117239
     6  C    1.355744  -0.075911
     7  C   -0.282223   0.037111
     8  C    0.146042  -0.043097
     9  C   -1.056806   0.019751
    10  C   -0.577475   0.013018
    11  C   -0.185753  -0.013266
    12  C   -0.567996  -0.013653
    13  N   -0.084135   0.004011
    14  H    0.144024  -0.008339
    15  H    0.160386  -0.002908
    16  H    0.140754  -0.001924
    17  H    0.147018  -0.000157
    18  H    0.133122  -0.000120
    19  H    0.116788   0.000512
    20  H    0.276463  -0.000091
    21  C   -0.640179   0.058144
    22  C   -0.130811   0.075058
    23  O   -0.374110   0.243000
    24  O   -0.392410   0.253181
    25  H    0.142238  -0.008092
    26  H    0.091356  -0.008437
 Sum of Mulliken charges =  -1.00000   1.00000

 Dipole moment (field-independent basis, Debye):
    X=             11.5667    Y=            -11.6890    Z=              2.3898  Tot=             16.6172
 Quadrupole moment (field-independent basis, Debye-Ang):
   XX=           -125.7587   YY=           -153.6880   ZZ=           -110.2664
   XY=             39.4003   XZ=            -12.6506   YZ=              6.1521

  Exact polarizability: 245.726 -44.452 267.724  14.280  -4.601 113.976
 Approx polarizability: 419.035 -24.576 392.069  20.444  -1.617 182.319

                      1                      2                      3
                      A                      A                      A
 Frequencies --     39.9917                60.6862                77.4058
 Red. masses --      6.5821                 6.2908                 5.6642
 Frc consts  --      0.0062                 0.0137                 0.0200
 IR Inten    --      0.0557                 1.3805                 1.3923

                      4                      5                      6
                      A                      A                      A
 Frequencies --    110.8800               179.3937               208.5731
 Red. masses --      6.1073                 4.3330                 3.0672
 Frc consts  --      0.0442                 0.0822                 0.0786
 IR Inten    --      0.7271                18.6079                19.5392

                      7                      8                      9
                      A                      A                      A
 Frequencies --    228.2612               256.8895               276.4531
 Red. masses --      5.8675                 2.6017                 4.8581
 Frc consts  --      0.1801                 0.1012                 0.2188
 IR Inten    --      2.6069                24.8121                10.1547

                     10                     11                     12
                      A                      A                      A
 Frequencies --    317.2055               351.5733               389.9351
 Red. masses --      4.1508                14.3350                 3.2378
 Frc consts  --      0.2461                 1.0440                 0.2901
 IR Inten    --     12.9759                 0.1873                 7.9689

                     13                     14                     15
                      A                      A                      A
 Frequencies --    430.1541               461.4563               476.3699
 Red. masses --      2.9796                 5.9636                 3.2024
 Frc consts  --      0.3248                 0.7482                 0.4282
 IR Inten    --      5.9449                 2.5866                 0.4400

                     16                     17                     18
                      A                      A                      A
 Frequencies --    495.3175               557.4345               580.6243
 Red. masses --      5.1246                 6.5132                 3.2543
 Frc consts  --      0.7408                 1.1924                 0.6464
 IR Inten    --     12.2053                 2.6606                 5.9619

                     19                     20                     21
                      A                      A                      A
 Frequencies --    588.1422               594.7202               626.4760
 Red. masses --      4.6465                 7.1696                 4.3730
 Frc consts  --      0.9470                 1.4941                 1.0112
 IR Inten    --      2.3220                17.0355                 9.0365

                     22                     23                     24
                      A                      A                      A
 Frequencies --    647.1419               665.0767               733.4506
 Red. masses --      2.6794                 6.0709                 3.0753
 Frc consts  --      0.6611                 1.5821                 0.9747
 IR Inten    --      2.9756                 1.2813                 3.9747

                     25                     26                     27
                      A                      A                      A
 Frequencies --    737.8927               743.2341               765.3838
 Red. masses --      1.2904                 2.8584                 2.9754
 Frc consts  --      0.4140                 0.9303                 1.0270
 IR Inten    --     85.4732                16.0090                 2.4356

                     28                     29                     30
                      A                      A                      A
 Frequencies --    775.6553               785.3752               809.9776
 Red. masses --      2.5592                 2.9248                 2.7669
 Frc consts  --      0.9072                 1.0629                 1.0695
 IR Inten    --      9.6253                12.0132                16.2739

                     31                     32                     33
                      A                      A                      A
 Frequencies --    843.6602               860.5613               885.5876
 Red. masses --      1.5040                 1.5814                 4.8487
 Frc consts  --      0.6307                 0.6900                 2.2405
 IR Inten    --      0.6648                17.4781                 0.0362

                     34                     35                     36
                      A                      A                      A
 Frequencies --    914.3577               917.0794               926.7884
 Red. masses --      3.9226                 1.4740                 1.3336
 Frc consts  --      1.9322                 0.7304                 0.6749
 IR Inten    --      8.8803                 1.3643                 1.3800

                     37                     38                     39
                      A                      A                      A
 Frequencies --    971.3236               987.9136              1031.6425
 Red. masses --      1.2758                 3.0548                 2.1659
 Frc consts  --      0.7092                 1.7566                 1.3582
 IR Inten    --      0.1354                 5.8098                19.4683

                     40                     41                     42
                      A                      A                      A
 Frequencies --   1091.9021              1113.6670              1131.6556
 Red. masses --      1.6220                 2.5114                 1.8096
 Frc consts  --      1.1394                 1.8352                 1.3654
 IR Inten    --     64.1043                 1.5464                15.8423

                     43                     44                     45
                      A                      A                      A
 Frequencies --   1151.8918              1171.2638              1186.2771
 Red. masses --      1.5214                 1.1865                 1.6937
 Frc consts  --      1.1894                 0.9590                 1.4043
 IR Inten    --      5.1285                 4.6227                13.9801

                     46                     47                     48
                      A                      A                      A
 Frequencies --   1243.5692              1255.4205              1264.6198
 Red. masses --      2.1825                 3.1608                 2.1524
 Frc consts  --      1.9886                 2.9351                 2.0281
 IR Inten    --     31.5008                15.6900                23.2391

                     49                     50                     51
                      A                      A                      A
 Frequencies --   1305.7664              1308.7961              1354.8981
 Red. masses --      1.9086                 2.4959                 2.2873
 Frc consts  --      1.9173                 2.5189                 2.4739
 IR Inten    --      4.1677                 8.0087                25.9541

                     52                     53                     54
                      A                      A                      A
 Frequencies --   1369.8228              1428.7654              1450.8428
 Red. masses --      4.6080                 2.3602                 3.0547
 Frc consts  --      5.0944                 2.8388                 3.7884
 IR Inten    --     15.0688                66.7992                45.1279

                     55                     56                     57
                      A                      A                      A
 Frequencies --   1476.2416              1487.2161              1514.7743
 Red. masses --      2.8488                 6.7131                 2.8491
 Frc consts  --      3.6578                 8.7483                 3.8517
 IR Inten    --     44.6024               139.3232                11.2466

                     58                     59                     60
                      A                      A                      A
 Frequencies --   1543.9798              1555.3768              1574.4042
 Red. masses --      7.6216                 7.0452                 6.8985
 Frc consts  --     10.7048                10.0419                10.0748
 IR Inten    --    120.7788               327.6784               273.5638

                     61                     62                     63
                      A                      A                      A
 Frequencies --   1587.3919              1606.9176              1647.3263
 Red. masses --      5.4541                 5.9615                 6.1346
 Frc consts  --      8.0973                 9.0697                 9.8083
 IR Inten    --     19.2546                 2.5269                 1.6741

                     64                     65                     66
                      A                      A                      A
 Frequencies --   3124.3283              3144.5315              3147.9502
 Red. masses --      1.0843                 1.0852                 1.0935
 Frc consts  --      6.2360                 6.3221                 6.3844
 IR Inten    --     24.1216                 4.1065                60.0011

                     67                     68                     69
                      A                      A                      A
 Frequencies --   3155.2331              3157.7565              3172.5191
 Red. masses --      1.0889                 1.0897                 1.0944
 Frc consts  --      6.3871                 6.4022                 6.4898
 IR Inten    --      7.6829                31.1393                42.0436

                     70                     71                     72
                      A                      A                      A
 Frequencies --   3195.4524              3246.2948              3679.8596
 Red. masses --      1.0933                 1.0956                 1.0797
 Frc consts  --      6.5771                 6.8024                 8.6139
 IR Inten    --      6.9682                 3.9854                62.0976

 - Thermochemistry -
 -------------------
 Temperature   298.150 Kelvin.  Pressure   1.00000 Atm.
 Atom     1 has atomic number  6 and mass  12.00000

 Molecular mass:   223.06333 amu.
 Principal axes and moments of inertia in atomic units:
                           1         2         3
     Eigenvalues --  1550.036826983.147718244.86195
           X           -0.63188   0.76894  -0.09727
           Y            0.76924   0.63753   0.04275
           Z           -0.09488   0.04781   0.99434
 This molecule is an asymmetric top.
 Rotational symmetry number  1.
 Warning -- assumption of classical behavior for rotation
           may cause significant error
 Rotational temperatures (Kelvin)      0.05588     0.01240     0.01051
 Rotational constants (GHZ):           1.16432     0.25844     0.21889
 Zero-point vibrational energy     503369.2 (Joules/Mol)
                                  120.30813 (Kcal/Mol)
 Warning -- explicit consideration of  20 degrees of freedom as
           vibrations may cause significant error
 Vibrational temperatures:     57.54    87.31   111.37   159.53   258.11
          (Kelvin)            300.09   328.42   369.61   397.75   456.39
                              505.84   561.03   618.90   663.93   685.39
                              712.65   802.02   835.39   846.21   855.67
                              901.36   931.09   956.90  1055.27  1061.66
                             1069.35  1101.22  1115.99  1129.98  1165.38
                             1213.84  1238.16  1274.16  1315.56  1319.47
                             1333.44  1397.52  1421.39  1484.30  1571.00
                             1602.32  1628.20  1657.32  1685.19  1706.79
                             1789.22  1806.27  1819.51  1878.71  1883.07
                             1949.40  1970.87  2055.67  2087.44  2123.98
                             2139.77  2179.42  2221.44  2237.84  2265.22
                             2283.90  2312.00  2370.14  4495.21  4524.28
                             4529.20  4539.68  4543.31  4564.55  4597.54
                             4670.69  5294.50

 Zero-point correction=                           0.191723 (Hartree/Particle)
 Thermal correction to Energy=                    0.204814
 Thermal correction to Enthalpy=                  0.205759
 Thermal correction to Gibbs Free Energy=         0.150738
 Sum of electronic and zero-point Energies=           -744.156357
 Sum of electronic and thermal Energies=              -744.143266
 Sum of electronic and thermal Enthalpies=            -744.142322
 Sum of electronic and thermal Free Energies=         -744.197343

                     E (Thermal)             CV                S
                      KCal/Mol        Cal/Mol-Kelvin    Cal/Mol-Kelvin
 Total                  128.523             52.384            115.801
 Electronic               0.000              0.000              1.377
 Translational            0.889              2.981             42.109
 Rotational               0.889              2.981             32.856
 Vibrational            126.746             46.422             39.458
 Vibration     1          0.594              1.981              5.259
 Vibration     2          0.597              1.973              4.435
 Vibration     3          0.599              1.964              3.956
 Vibration     4          0.607              1.940              3.253
 Vibration     5          0.629              1.868              2.335
 Vibration     6          0.642              1.828              2.056
 Vibration     7          0.651              1.798              1.893
 Vibration     8          0.666              1.751              1.683
 Vibration     9          0.678              1.717              1.556
 Vibration    10          0.704              1.641              1.324
 Vibration    11          0.728              1.572              1.159
 Vibration    12          0.758              1.492              1.000
 Vibration    13          0.791              1.405              0.858
 Vibration    14          0.819              1.336              0.762
 Vibration    15          0.833              1.302              0.720
 Vibration    16          0.851              1.260              0.670
 Vibration    17          0.913              1.123              0.529
 Vibration    18          0.937              1.073              0.484
 Vibration    19          0.945              1.057              0.471
 Vibration    20          0.952              1.043              0.459

 Optimization completed.
    -- Stationary point found.
 Normal termination of Gaussian 16 at Sat Jan  6 03:44:52 2024.
