 Q-Chem 5.4, Q-Chem, Inc., Pleasanton, CA (2021)
 Q-Chem 5.4.0 for Intel X86 EM64T Linux

User input:
--------------------------------------------------------------
$molecule
-2 1
C                 -2.9562180000     -2.0586690000     -0.0354480000
C                 -2.3267830000     -0.6778730000     -0.0487510000
C                 -3.1876980000      0.3975090000     -0.0966040000
C                 -2.7053590000      1.7312010000     -0.1130150000
C                 -1.3554030000      2.0079690000     -0.0819060000
C                 -0.9558870000      3.4718260000     -0.1037540000
C                 -0.3952840000      0.9298430000     -0.0312980000
C                  1.0238770000      1.2262420000      0.0012030000
O                  1.5126110000      2.4228340000     -0.0118090000
C                  1.9020650000      0.0791010000      0.0507240000
C                  3.3061720000      0.2849610000      0.0844800000
C                  4.2045360000     -0.7612900000      0.1321560000
C                  3.7199360000     -2.1011990000      0.1485660000
C                  2.3598390000     -2.3316720000      0.1166920000
C                  1.4118790000     -1.2762080000      0.0674880000
C                  0.0027430000     -1.5970850000      0.0363670000
O                 -0.3870490000     -2.8294260000      0.0536850000
C                 -0.8988230000     -0.4623900000     -0.0139790000
H                 -2.6689540000     -2.6272600000      0.8511150000
H                 -2.6190060000     -2.6666820000     -0.8770510000
H                 -4.0518430000     -1.9548680000     -0.0693310000
H                 -4.2620180000      0.2181960000     -0.1225220000
H                 -3.4166860000      2.5555430000     -0.1510210000
H                 -0.3157270000      3.7052200000     -0.9566790000
H                 -0.3629560000      3.7439170000      0.7715380000
H                 -1.8646930000      4.0921990000     -0.1425170000
H                  3.6379300000      1.3186800000      0.0706230000
H                  5.2760770000     -0.5662970000      0.1570340000
H                  4.4190990000     -2.9358300000      0.1860730000
H                  1.9536230000     -3.3384880000      0.1279390000
$end

$rem
BASIS  =  6-311++G(d,p)
GUI  =  2
JOB_TYPE  =  SP
METHOD  =  B3LYP
SCF_CONVERGENCE  = 8
SOLVENT_METHOD = sm12
$end

$smx
solvent dimethylformamide
charges CM5
$end

--------------------------------------------------------------

             Standard Nuclear Orientation (Angstroms)
    I     Atom           X                Y                Z
 ----------------------------------------------------------------
    1      C      -2.9562180000    -2.0586690000    -0.0354480000
    2      C      -2.3267830000    -0.6778730000    -0.0487510000
    3      C      -3.1876980000     0.3975090000    -0.0966040000
    4      C      -2.7053590000     1.7312010000    -0.1130150000
    5      C      -1.3554030000     2.0079690000    -0.0819060000
    6      C      -0.9558870000     3.4718260000    -0.1037540000
    7      C      -0.3952840000     0.9298430000    -0.0312980000
    8      C       1.0238770000     1.2262420000     0.0012030000
    9      O       1.5126110000     2.4228340000    -0.0118090000
   10      C       1.9020650000     0.0791010000     0.0507240000
   11      C       3.3061720000     0.2849610000     0.0844800000
   12      C       4.2045360000    -0.7612900000     0.1321560000
   13      C       3.7199360000    -2.1011990000     0.1485660000
   14      C       2.3598390000    -2.3316720000     0.1166920000
   15      C       1.4118790000    -1.2762080000     0.0674880000
   16      C       0.0027430000    -1.5970850000     0.0363670000
   17      O      -0.3870490000    -2.8294260000     0.0536850000
   18      C      -0.8988230000    -0.4623900000    -0.0139790000
   19      H      -2.6689540000    -2.6272600000     0.8511150000
   20      H      -2.6190060000    -2.6666820000    -0.8770510000
   21      H      -4.0518430000    -1.9548680000    -0.0693310000
   22      H      -4.2620180000     0.2181960000    -0.1225220000
   23      H      -3.4166860000     2.5555430000    -0.1510210000
   24      H      -0.3157270000     3.7052200000    -0.9566790000
   25      H      -0.3629560000     3.7439170000     0.7715380000
   26      H      -1.8646930000     4.0921990000    -0.1425170000
   27      H       3.6379300000     1.3186800000     0.0706230000
   28      H       5.2760770000    -0.5662970000     0.1570340000
   29      H       4.4190990000    -2.9358300000     0.1860730000
   30      H       1.9536230000    -3.3384880000     0.1279390000
 ----------------------------------------------------------------

   18    -767.5569019865      2.83e-09  Convergence criterion met
 Total energy in the final basis set =     -767.8366138901

                    Orbital Energies (a.u.)
 --------------------------------------------------------------

 Alpha MOs
 -- Occupied --
-19.0232 -19.0232 -10.1880 -10.1880 -10.1764 -10.1764 -10.1732 -10.1728
-10.1672 -10.1671 -10.1614 -10.1611 -10.1611 -10.1609 -10.1589 -10.1587
-10.1521 -10.1518  -0.9437  -0.9405  -0.8434  -0.8414  -0.7788  -0.7690
 -0.7410  -0.7222  -0.7083  -0.6644  -0.6370  -0.6201  -0.6078  -0.5644
 -0.5297  -0.5251  -0.4960  -0.4636  -0.4519  -0.4509  -0.4459  -0.4192
 -0.4188  -0.4069  -0.4011  -0.3957  -0.3880  -0.3853  -0.3830  -0.3694
 -0.3611  -0.3547  -0.3415  -0.3350  -0.3311  -0.3273  -0.3142  -0.3134
 -0.2473  -0.2349  -0.2331  -0.2307  -0.2015  -0.1970  -0.1156

          Ground-State Mulliken Net Atomic Charges

     Atom                 Charge (a.u.)
  ----------------------------------------
      1 C                     1.534337
      2 C                     0.363407
      3 C                     1.059085
      4 C                     1.050153
      5 C                     0.368656
      6 C                     1.535278
      7 C                    -1.350382
      8 C                    -3.284121
      9 O                    -0.265419
     10 C                    -1.752375
     11 C                    -0.180231
     12 C                     1.520261
     13 C                     1.519787
     14 C                    -0.179063
     15 C                    -1.751619
     16 C                    -3.277800
     17 O                    -0.264904
     18 C                    -1.354734
     19 H                     0.120279
     20 H                     0.120343
     21 H                     0.316978
     22 H                     0.256516
     23 H                     0.255215
     24 H                     0.119920
     25 H                     0.120260
     26 H                     0.317638
     27 H                     0.141710
     28 H                     0.399262
     29 H                     0.399073
     30 H                     0.142489
  ----------------------------------------
  Sum of atomic charges =    -2.000000

                    Cartesian Multipole Moments
 -----------------------------------------------------------------
    Charge (ESU x 10^10)
                -9.6064
    Dipole Moment (Debye)
         X      -4.1541      Y       1.4997      Z      -0.1519
       Tot       4.4191
    Quadrupole Moments (Debye-Ang)
        XX    -156.8726     XY      -3.9460     YY    -166.2747
        XZ      -0.9023     YZ       0.9065     ZZ    -120.7740

 Total job time:  926.47s(wall), 7078.54s(cpu)
        *  Thank you very much for using Q-Chem.  Have a nice day.  *
