 Q-Chem 5.4, Q-Chem, Inc., Pleasanton, CA (2021)
 Q-Chem 5.4.0 for Intel X86 EM64T Linux

User input:
--------------------------------------------------------------
$molecule
-1 2
C                  1.3692450000      1.1349290000     -2.6834090000
C                 -0.0352210000      1.4745390000     -2.8705030000
C                 -1.0536070000      0.9675260000     -2.1186070000
C                 -0.7698620000      0.0163270000     -1.0378530000
C                  0.6106640000     -0.3312160000     -0.8478160000
O                  2.2615570000      1.6999300000     -3.3629550000
O                 -1.6980010000     -0.4652180000     -0.3278360000
H                 -0.2334920000      2.1964320000     -3.6593120000
C                  1.6445240000      0.1505650000     -1.6367070000
C                  3.0189030000     -0.3081650000     -1.3258290000
C                  4.0271530000     -0.5300600000     -2.4275390000
C                  5.3880730000     -0.4671060000     -2.1085800000
C                  3.6537290000     -0.9034230000     -3.7225160000
C                  6.3575610000     -0.7481330000     -3.0675060000
C                  5.9757830000     -1.1266520000     -4.3549900000
C                  4.6206220000     -1.2111720000     -4.6758970000
O                  3.3584190000     -0.5908570000     -0.1772210000
H                  5.6668770000     -0.1979360000     -1.0967880000
H                  2.6037320000     -0.9517680000     -3.9803860000
H                  7.4099580000     -0.6783570000     -2.8107470000
H                  6.7286290000     -1.3536060000     -5.1033480000
H                  4.3164790000     -1.5060570000     -5.6749200000
C                 -2.4898930000      1.3520370000     -2.3429160000
H                  0.8349530000     -1.0278550000     -0.0473190000
H                 -2.5850940000      2.0606790000     -3.1699980000
H                 -2.9176710000      1.7975790000     -1.4389330000
H                 -3.0983720000      0.4673090000     -2.5570790000
$end
$rem
MAX_SCF_CYCLES=200
BASIS  =  6-311++G(d,p)
GUI  =  2
JOB_TYPE  =  SP
METHOD  =  B3LYP
SOLVENT_METHOD = COSMO
$end
$solvent
dielectric 37.219
opticaldielectric 1.43
$end

--------------------------------------------------------------

             Standard Nuclear Orientation (Angstroms)
    I     Atom           X                Y                Z
 ----------------------------------------------------------------
    1      C      -0.8044641863     0.8627579924     0.6900128790
    2      C      -2.1614083916     1.3725094987     0.5426368712
    3      C      -3.2005870682     0.6511385226     0.0334694971
    4      C      -2.9919076332    -0.7329153966    -0.4071750462
    5      C      -1.6566796179    -1.2446416829    -0.2728076768
    6      O       0.0856111379     1.5581718930     1.2390074379
    7      O      -3.9408631962    -1.4202188743    -0.8810410605
    8      H      -2.3111832963     2.3914920280     0.8917824200
    9      C      -0.5886017389    -0.5009317470     0.2061846166
   10      C       0.7350999022    -1.1634301336     0.2762262653
   11      C       2.0026896965    -0.3870149620     0.0117154483
   12      C       3.2017217380    -0.8634140580     0.5531647636
   13      C       2.0399343220     0.7211164012    -0.8406158041
   14      C       4.4106235944    -0.2338472346     0.2692208488
   15      C       4.4392342506     0.8667846810    -0.5877721159
   16      C       3.2506736814     1.3361811875    -1.1477515458
   17      O       0.8393275986    -2.3728714259     0.4784008596
   18      H       3.1650974439    -1.7355254775     1.1950273218
   19      H       1.1176331220     1.0995704583    -1.2618768861
   20      H       5.3309486250    -0.6037807048     0.7102246874
   21      H       5.3807295428     1.3558741856    -0.8173434238
   22      H       3.2656353429     2.1909865006    -1.8160262705
   23      C      -4.5881654055     1.2163576220    -0.0939449356
   24      H      -1.4903996046    -2.2690350918    -0.5880472681
   25      H      -4.6282774100     2.2499391358     0.2601759911
   26      H      -5.3053266481     0.6152815110     0.4744512432
   27      H      -4.9264403004     1.1806405665    -1.1346901040
 ----------------------------------------------------------------

   10    -765.4499233931      9.00e-06  Convergence criterion met
 Total energy in the final basis set =     -765.4499233931
    5    -765.5366716461      4.08e-06  Convergence criterion met
 Total energy in the final basis set =     -765.5366716461

                    Orbital Energies (a.u.)
 --------------------------------------------------------------

 Alpha MOs
 -- Occupied --
-19.1123 -19.0884 -19.0872 -10.2646 -10.2359 -10.2271 -10.1853 -10.1829
-10.1801 -10.1800 -10.1785 -10.1778 -10.1770 -10.1765 -10.1744 -10.1662
-10.1590  -1.0445  -1.0131  -1.0090  -0.8634  -0.8351  -0.7830  -0.7614
 -0.7516  -0.7041  -0.6915  -0.6345  -0.6113  -0.5970  -0.5840  -0.5462
 -0.5113  -0.4916  -0.4796  -0.4599  -0.4544  -0.4442  -0.4390  -0.4295
 -0.4247  -0.4241  -0.4136  -0.4077  -0.3942  -0.3888  -0.3784  -0.3750
 -0.3662  -0.3604  -0.3595  -0.3455  -0.2910  -0.2763  -0.2646  -0.2604
 -0.2560  -0.2510  -0.2407  -0.1737

 Beta MOs
 -- Occupied --
-19.1116 -19.0813 -19.0811 -10.2645 -10.2350 -10.2258 -10.1853 -10.1825
-10.1800 -10.1799 -10.1784 -10.1770 -10.1767 -10.1765 -10.1719 -10.1653
-10.1590  -1.0433  -1.0028  -0.9961  -0.8633  -0.8294  -0.7808  -0.7606
 -0.7515  -0.7004  -0.6838  -0.6327  -0.6110  -0.5937  -0.5815  -0.5449
 -0.5094  -0.4898  -0.4773  -0.4589  -0.4522  -0.4415  -0.4366  -0.4262
 -0.4232  -0.4194  -0.4080  -0.4055  -0.3879  -0.3820  -0.3729  -0.3641
 -0.3601  -0.3578  -0.3518  -0.3446  -0.2761  -0.2648  -0.2600  -0.2543
 -0.2503  -0.2453  -0.2359

          Ground-State Mulliken Net Atomic Charges

     Atom                 Charge (a.u.)    Spin (a.u.)
  --------------------------------------------------------
      1 C                    -1.129644       0.045479
      2 C                    -0.510672       0.063843
      3 C                     0.891108       0.031475
      4 C                    -0.748703       0.115856
      5 C                     0.314045       0.141346
      6 O                    -0.427463       0.211517
      7 O                    -0.499119       0.261611
      8 H                     0.196702      -0.005892
      9 C                     1.520762       0.079935
     10 C                    -1.219509       0.027947
     11 C                     1.338706      -0.005758
     12 C                     0.334228      -0.002084
     13 C                    -0.910745       0.014350
     14 C                    -0.467870       0.001362
     15 C                    -0.321973       0.003037
     16 C                    -0.409290      -0.004144
     17 O                    -0.324500       0.021700
     18 H                     0.222899      -0.000433
     19 H                     0.190850       0.001850
     20 H                     0.215591       0.000090
     21 H                     0.201643      -0.000143
     22 H                     0.219374      -0.000079
     23 C                    -0.431266       0.007885
     24 H                     0.231583      -0.013442
     25 H                     0.159121      -0.000407
     26 H                     0.181778       0.001324
     27 H                     0.182363       0.001774
  --------------------------------------------------------
  Sum of atomic charges =    -1.000000

                    Cartesian Multipole Moments
 -----------------------------------------------------------------
    Charge (ESU x 10^10)
                -4.8032
    Dipole Moment (Debye)
         X       7.0457      Y       4.9932      Z      -1.7537
       Tot       8.8119
    Quadrupole Moments (Debye-Ang)
        XX    -123.9373     XY     -13.5099     YY    -121.2875
        XZ     -10.1695     YZ      -9.7446     ZZ    -107.7842

 Total job time:  86.33s(wall), 652.07s(cpu)
        *  Thank you very much for using Q-Chem.  Have a nice day.  *
