 Gaussian 16, Revision A.03,
 Gaussian 16:  ES64L-G16RevA.03 25-Dec-2016

 ----------------------------------------------------------------
 #P UB3LYP/6-311++G(d,p) SCRF=(PCM,Solvent=n,n-DiMethylFormamide)
 ----------------------------------------------------------------

 ------------------
 Quinone PCM in DMF
 ------------------
 Symbolic Z-matrix:
 Charge =  0 Multiplicity = 1

                         Standard orientation:
 ---------------------------------------------------------------------
 Center     Atomic      Atomic             Coordinates (Angstroms)
 Number     Number       Type             X           Y           Z
 ---------------------------------------------------------------------
      1          7           0        5.052485   -0.637563   -0.054706
      2          6           0        3.766350   -0.134646   -0.005668
      3          6           0        3.538610    1.256512   -0.005182
      4          6           0        2.249514    1.755564   -0.001590
      5          6           0        1.141461    0.896959   -0.000776
      6          6           0       -0.222481    1.463508    0.003534
      7          8           0       -0.424273    2.670842    0.011451
      8          6           0       -1.365717    0.493588   -0.002249
      9          6           0       -2.660646    0.997409   -0.005514
     10          6           0       -3.766308    0.134639   -0.005784
     11          7           0       -5.052611    0.637554   -0.055125
     12          6           0       -3.538607   -1.256500   -0.004958
     13          6           0       -2.249512   -1.755569   -0.001240
     14          6           0       -1.141471   -0.896957   -0.000645
     15          6           0        0.222492   -1.463498    0.003400
     16          8           0        0.424261   -2.670832    0.010911
     17          6           0        1.365730   -0.493594   -0.002066
     18          6           0        2.660644   -0.997405   -0.005160
     19          1           0        5.806972   -0.028114    0.218950
     20          1           0        5.186186   -1.604659    0.195634
     21          1           0        4.384504    1.936454   -0.010976
     22          1           0        2.071230    2.824059    0.000459
     23          1           0       -2.793822    2.073448   -0.009065
     24          1           0       -5.806573    0.028185    0.220312
     25          1           0       -5.185941    1.604472    0.196273
     26          1           0       -4.384524   -1.936412   -0.010665
     27          1           0       -2.071209   -2.824062    0.000979
     28          1           0        2.793810   -2.073452   -0.008590
 ---------------------------------------------------------------------

 SCF Done:  E(UB3LYP) =  -799.734481165     A.U. after   14 cycles

 The electronic state is 1-A.
 Alpha  occ. eigenvalues --  -19.12070 -19.12069 -14.33733 -14.33731 -10.27371
 Alpha  occ. eigenvalues --  -10.27370 -10.24214 -10.24212 -10.20430 -10.20429
 Alpha  occ. eigenvalues --  -10.19458 -10.19458 -10.19237 -10.19235 -10.18967
 Alpha  occ. eigenvalues --  -10.18966 -10.18840 -10.18839  -1.05611  -1.05430
 Alpha  occ. eigenvalues --   -0.94239  -0.94224  -0.87829  -0.86264  -0.79463
 Alpha  occ. eigenvalues --   -0.77503  -0.76813  -0.74982  -0.68295  -0.66532
 Alpha  occ. eigenvalues --   -0.63835  -0.62319  -0.58592  -0.56882  -0.56022
 Alpha  occ. eigenvalues --   -0.53666  -0.52171  -0.52151  -0.49381  -0.48337
 Alpha  occ. eigenvalues --   -0.46826  -0.45374  -0.44977  -0.44852  -0.44496
 Alpha  occ. eigenvalues --   -0.43627  -0.43580  -0.41868  -0.41183  -0.40720
 Alpha  occ. eigenvalues --   -0.39557  -0.38749  -0.37409  -0.36131  -0.33423
 Alpha  occ. eigenvalues --   -0.32622  -0.28082  -0.28067  -0.27450  -0.26872
 Alpha  occ. eigenvalues --   -0.23689  -0.22609
 Alpha virt. eigenvalues --   -0.10793  -0.06557  -0.02075  -0.02046  -0.00842
 Alpha virt. eigenvalues --   -0.00369   0.00854   0.01037   0.01840   0.03124
 Alpha virt. eigenvalues --    0.03601   0.03742   0.03748   0.03973   0.05140

  Beta  occ. eigenvalues --  -19.12070 -19.12069 -14.33733 -14.33731 -10.27371
  Beta  occ. eigenvalues --  -10.27370 -10.24214 -10.24212 -10.20430 -10.20429
  Beta  occ. eigenvalues --  -10.19458 -10.19458 -10.19237 -10.19235 -10.18967
  Beta  occ. eigenvalues --  -10.18966 -10.18840 -10.18839  -1.05611  -1.05430
  Beta  occ. eigenvalues --   -0.94239  -0.94224  -0.87829  -0.86264  -0.79463
  Beta  occ. eigenvalues --   -0.77503  -0.76813  -0.74982  -0.68295  -0.66532
  Beta  occ. eigenvalues --   -0.63835  -0.62319  -0.58592  -0.56882  -0.56022
  Beta  occ. eigenvalues --   -0.53666  -0.52171  -0.52151  -0.49381  -0.48337
  Beta  occ. eigenvalues --   -0.46826  -0.45374  -0.44977  -0.44852  -0.44496
  Beta  occ. eigenvalues --   -0.43627  -0.43580  -0.41868  -0.41183  -0.40720
  Beta  occ. eigenvalues --   -0.39557  -0.38749  -0.37409  -0.36131  -0.33423
  Beta  occ. eigenvalues --   -0.32622  -0.28082  -0.28067  -0.27450  -0.26872
  Beta  occ. eigenvalues --   -0.23689  -0.22609
  Beta virt. eigenvalues --   -0.10793  -0.06557  -0.02075  -0.02046  -0.00842
  Beta virt. eigenvalues --   -0.00369   0.00854   0.01037   0.01840   0.03124
  Beta virt. eigenvalues --    0.03601   0.03742   0.03748   0.03973   0.05140

 Mulliken charges and spin densities:
               1          2
     1  N   -0.330585  -0.000000
     2  C   -0.544677   0.000000
     3  C   -0.063158   0.000000
     4  C    0.227843   0.000000
     5  C    0.210055   0.000000
     6  C   -0.797143  -0.000000
     7  O   -0.304383  -0.000000
     8  C    0.485345   0.000000
     9  C   -0.024024  -0.000000
    10  C   -0.545632   0.000000
    11  N   -0.330405  -0.000000
    12  C   -0.062770   0.000000
    13  C    0.227779  -0.000000
    14  C    0.210522  -0.000000
    15  C   -0.797012   0.000000
    16  O   -0.304341  -0.000000
    17  C    0.484936  -0.000000
    18  C   -0.024479  -0.000000
    19  H    0.288464  -0.000000
    20  H    0.286374  -0.000000
    21  H    0.209079   0.000000
    22  H    0.184202  -0.000000
    23  H    0.173034  -0.000000
    24  H    0.288354   0.000000
    25  H    0.286285   0.000000
    26  H    0.209125  -0.000000
    27  H    0.184205   0.000000
    28  H    0.173010   0.000000
 Sum of Mulliken charges =  -0.00000   0.00000

 Dipole moment (field-independent basis, Debye):
    X=              0.0074    Y=             -0.0021    Z=              1.8488  Tot=              1.8488
 Quadrupole moment (field-independent basis, Debye-Ang):
   XX=            -36.5115   YY=           -115.4791   ZZ=           -109.0516
   XY=              0.3521   XZ=             -0.0273   YZ=             -0.0018

 Normal termination of Gaussian 16 at Sun Jan 14 01:04:17 2024.
