 Q-Chem 5.4, Q-Chem, Inc., Pleasanton, CA (2021)
 Q-Chem 5.4.0 for Intel X86 EM64T Linux

User input:
--------------------------------------------------------------
$molecule
0 1
C                 -7.1499260000      3.9330100000      0.8787830000
C                 -8.1278190000      3.1966280000      0.2172520000
C                 -7.7926660000      2.4483360000     -0.9127020000
C                 -5.8350700000      3.9188230000      0.4071860000
C                 -5.4948220000      3.1671860000     -0.7294720000
C                 -6.4816210000      2.4332700000     -1.3853200000
C                 -4.7875750000      4.6938820000      1.0965090000
C                 -3.3992060000      4.6405330000      0.5548230000
C                 -3.0484680000      3.9308780000     -0.5459490000
C                 -4.0841920000      3.1440780000     -1.2478500000
O                 -4.9858240000      5.3824770000      2.0913110000
O                 -3.8067950000      2.4833300000     -2.2391590000
O                 -2.5139620000      5.3699840000      1.2534030000
C                 -1.6379050000      3.8873260000     -1.0624860000
C                 -0.8283800000      2.7029880000     -0.4918380000
C                  0.6062960000      2.6603610000     -1.0277070000
C                  1.4284140000      1.4934550000     -0.4691350000
C                  2.8656970000      1.4479560000     -1.0002370000
C                  3.6887560000      0.2806730000     -0.4437030000
C                  5.1257710000      0.2355470000     -0.9752140000
C                  5.9485760000     -0.9321060000     -0.4185330000
C                  7.3859480000     -0.9686790000     -0.9542430000
C                  8.1939260000     -2.1375000000     -0.3892710000
S                  9.9033860000     -2.1281110000     -1.0627980000
C                 10.5857090000     -3.6059070000     -0.2107650000
C                 12.0453660000     -3.8304790000     -0.6070110000
C                 12.6611290000     -5.0552340000      0.0822190000
C                 14.1254210000     -5.2940940000     -0.3039480000
C                 14.7482410000     -6.5152170000      0.3819760000
C                 16.2126430000     -6.7547650000     -0.0026660000
C                 16.8367040000     -7.9751140000      0.6836850000
C                 18.3010940000     -8.2146910000      0.2997690000
C                 18.9265220000     -9.4345670000      0.9858190000
C                 20.3895200000     -9.6654000000      0.5961140000
H                 -7.3855500000      4.5215020000      1.7570430000
H                 -9.1491290000      3.2045870000      0.5799620000
H                 -8.5559940000      1.8751990000     -1.4266740000
H                 -6.2047200000      1.8584970000     -2.2603410000
H                 -3.0193460000      5.7877590000      1.9765680000
H                 -1.1346480000      4.8238150000     -0.8087230000
H                 -1.6703210000      3.8016420000     -2.1514480000
H                 -1.3410100000      1.7679060000     -0.7411370000
H                 -0.8099550000      2.7745050000      0.6015890000
H                  1.1104790000      3.6057360000     -0.7891690000
H                  0.5807790000      2.5947620000     -2.1227990000
H                  0.9239070000      0.5486790000     -0.7089400000
H                  1.4495630000      1.5575380000      0.6264930000
H                  3.3700720000      2.3929120000     -0.7602410000
H                  2.8443280000      1.3852210000     -2.0958710000
H                  3.1842770000     -0.6642060000     -0.6839070000
H                  3.7100650000      0.3432610000      0.6520700000
H                  5.6305130000      1.1800120000     -0.7348240000
H                  5.1048020000      0.1727540000     -2.0707180000
H                  5.4458370000     -1.8770570000     -0.6609430000
H                  5.9703090000     -0.8694720000      0.6769560000
H                  7.8911480000     -0.0276350000     -0.7092950000
H                  7.3668120000     -1.0368610000     -2.0477520000
H                  7.7211460000     -3.0889800000     -0.6503430000
H                  8.2484790000     -2.0708740000      0.7014150000
H                  9.9794690000     -4.4756310000     -0.4810420000
H                 10.5033940000     -3.4545570000      0.8696660000
H                 12.6297860000     -2.9379750000     -0.3566370000
H                 12.1109920000     -3.9513010000     -1.6941570000
H                 12.0714970000     -5.9470020000     -0.1658990000
H                 12.5892830000     -4.9342740000      1.1706560000
H                 14.7141110000     -4.4010980000     -0.0578430000
H                 14.1970010000     -5.4143950000     -1.3925080000
H                 14.1590970000     -7.4081860000      0.1357780000
H                 14.6755800000     -6.3947110000      1.4706920000
H                 16.8014890000     -5.8614530000      0.2428140000
H                 16.2852940000     -6.8756740000     -1.0912900000
H                 16.2479510000     -8.8685500000      0.4380190000
H                 16.7637480000     -7.8541790000      1.7723830000
H                 18.8907610000     -7.3216420000      0.5451760000
H                 18.3750860000     -8.3363010000     -0.7889000000
H                 18.3382640000    -10.3272080000      0.7401790000
H                 18.8534040000     -9.3131950000      2.0735320000
H                 20.4911710000     -9.8253100000     -0.4820440000
H                 20.8051140000    -10.5414750000      1.1018830000
H                 21.0102060000     -8.8035630000      0.8612810000
$end

$rem
BASIS  =  6-311++G(d,p)
GUI  =  2
JOB_TYPE  =  SP
METHOD  =  B3LYP
SCF_CONVERGENCE  = 8
SOLVENT_METHOD = sm12
$end

$smx
solvent dimethylformamide
charges CM5
$end

--------------------------------------------------------------

             Standard Nuclear Orientation (Angstroms)
    I     Atom           X                Y                Z
 ----------------------------------------------------------------
    1      C      -7.1499260000     3.9330100000     0.8787830000
    2      C      -8.1278190000     3.1966280000     0.2172520000
    3      C      -7.7926660000     2.4483360000    -0.9127020000
    4      C      -5.8350700000     3.9188230000     0.4071860000
    5      C      -5.4948220000     3.1671860000    -0.7294720000
    6      C      -6.4816210000     2.4332700000    -1.3853200000
    7      C      -4.7875750000     4.6938820000     1.0965090000
    8      C      -3.3992060000     4.6405330000     0.5548230000
    9      C      -3.0484680000     3.9308780000    -0.5459490000
   10      C      -4.0841920000     3.1440780000    -1.2478500000
   11      O      -4.9858240000     5.3824770000     2.0913110000
   12      O      -3.8067950000     2.4833300000    -2.2391590000
   13      O      -2.5139620000     5.3699840000     1.2534030000
   14      C      -1.6379050000     3.8873260000    -1.0624860000
   15      C      -0.8283800000     2.7029880000    -0.4918380000
   16      C       0.6062960000     2.6603610000    -1.0277070000
   17      C       1.4284140000     1.4934550000    -0.4691350000
   18      C       2.8656970000     1.4479560000    -1.0002370000
   19      C       3.6887560000     0.2806730000    -0.4437030000
   20      C       5.1257710000     0.2355470000    -0.9752140000
   21      C       5.9485760000    -0.9321060000    -0.4185330000
   22      C       7.3859480000    -0.9686790000    -0.9542430000
   23      C       8.1939260000    -2.1375000000    -0.3892710000
   24      S       9.9033860000    -2.1281110000    -1.0627980000
   25      C      10.5857090000    -3.6059070000    -0.2107650000
   26      C      12.0453660000    -3.8304790000    -0.6070110000
   27      C      12.6611290000    -5.0552340000     0.0822190000
   28      C      14.1254210000    -5.2940940000    -0.3039480000
   29      C      14.7482410000    -6.5152170000     0.3819760000
   30      C      16.2126430000    -6.7547650000    -0.0026660000
   31      C      16.8367040000    -7.9751140000     0.6836850000
   32      C      18.3010940000    -8.2146910000     0.2997690000
   33      C      18.9265220000    -9.4345670000     0.9858190000
   34      C      20.3895200000    -9.6654000000     0.5961140000
   35      H      -7.3855500000     4.5215020000     1.7570430000
   36      H      -9.1491290000     3.2045870000     0.5799620000
   37      H      -8.5559940000     1.8751990000    -1.4266740000
   38      H      -6.2047200000     1.8584970000    -2.2603410000
   39      H      -3.0193460000     5.7877590000     1.9765680000
   40      H      -1.1346480000     4.8238150000    -0.8087230000
   41      H      -1.6703210000     3.8016420000    -2.1514480000
   42      H      -1.3410100000     1.7679060000    -0.7411370000
   43      H      -0.8099550000     2.7745050000     0.6015890000
   44      H       1.1104790000     3.6057360000    -0.7891690000
   45      H       0.5807790000     2.5947620000    -2.1227990000
   46      H       0.9239070000     0.5486790000    -0.7089400000
   47      H       1.4495630000     1.5575380000     0.6264930000
   48      H       3.3700720000     2.3929120000    -0.7602410000
   49      H       2.8443280000     1.3852210000    -2.0958710000
   50      H       3.1842770000    -0.6642060000    -0.6839070000
   51      H       3.7100650000     0.3432610000     0.6520700000
   52      H       5.6305130000     1.1800120000    -0.7348240000
   53      H       5.1048020000     0.1727540000    -2.0707180000
   54      H       5.4458370000    -1.8770570000    -0.6609430000
   55      H       5.9703090000    -0.8694720000     0.6769560000
   56      H       7.8911480000    -0.0276350000    -0.7092950000
   57      H       7.3668120000    -1.0368610000    -2.0477520000
   58      H       7.7211460000    -3.0889800000    -0.6503430000
   59      H       8.2484790000    -2.0708740000     0.7014150000
   60      H       9.9794690000    -4.4756310000    -0.4810420000
   61      H      10.5033940000    -3.4545570000     0.8696660000
   62      H      12.6297860000    -2.9379750000    -0.3566370000
   63      H      12.1109920000    -3.9513010000    -1.6941570000
   64      H      12.0714970000    -5.9470020000    -0.1658990000
   65      H      12.5892830000    -4.9342740000     1.1706560000
   66      H      14.7141110000    -4.4010980000    -0.0578430000
   67      H      14.1970010000    -5.4143950000    -1.3925080000
   68      H      14.1590970000    -7.4081860000     0.1357780000
   69      H      14.6755800000    -6.3947110000     1.4706920000
   70      H      16.8014890000    -5.8614530000     0.2428140000
   71      H      16.2852940000    -6.8756740000    -1.0912900000
   72      H      16.2479510000    -8.8685500000     0.4380190000
   73      H      16.7637480000    -7.8541790000     1.7723830000
   74      H      18.8907610000    -7.3216420000     0.5451760000
   75      H      18.3750860000    -8.3363010000    -0.7889000000
   76      H      18.3382640000   -10.3272080000     0.7401790000
   77      H      18.8534040000    -9.3131950000     2.0735320000
   78      H      20.4911710000    -9.8253100000    -0.4820440000
   79      H      20.8051140000   -10.5414750000     1.1018830000
   80      H      21.0102060000    -8.8035630000     0.8612810000
 ----------------------------------------------------------------

   14   -1795.2234018112      9.87e-09  Convergence criterion met
 Total energy in the final basis set =    -1795.2575847893

                    Orbital Energies (a.u.)
 --------------------------------------------------------------

 Alpha MOs
 -- Occupied --
-88.8278 -19.1787 -19.1484 -19.1259 -10.2922 -10.2781 -10.2671 -10.2106
-10.2093 -10.2041 -10.2007 -10.1988 -10.1970 -10.1968 -10.1930 -10.1930
-10.1766 -10.1701 -10.1701 -10.1689 -10.1662 -10.1662 -10.1654 -10.1636
-10.1636 -10.1635 -10.1635 -10.1631 -10.1630 -10.1627 -10.1627 -10.1627
-10.1622 -10.1576  -7.9143  -5.8783  -5.8749  -5.8677  -1.1087  -1.0665
 -1.0592  -0.8920  -0.8445  -0.8237  -0.8171  -0.8111  -0.8042  -0.7938
 -0.7838  -0.7793  -0.7722  -0.7562  -0.7414  -0.7222  -0.7054  -0.6910
 -0.6753  -0.6588  -0.6508  -0.6351  -0.6187  -0.6059  -0.6016  -0.5883
 -0.5832  -0.5827  -0.5780  -0.5770  -0.5765  -0.5732  -0.5721  -0.5418
 -0.5177  -0.4967  -0.4911  -0.4896  -0.4806  -0.4784  -0.4758  -0.4719
 -0.4643  -0.4596  -0.4556  -0.4519  -0.4451  -0.4416  -0.4371  -0.4328
 -0.4305  -0.4302  -0.4267  -0.4240  -0.4220  -0.4140  -0.4115  -0.4058
 -0.4021  -0.4000  -0.3957  -0.3939  -0.3883  -0.3805  -0.3768  -0.3747
 -0.3703  -0.3693  -0.3682  -0.3642  -0.3598  -0.3510  -0.3464  -0.3463
 -0.3429  -0.3367  -0.3351  -0.3323  -0.3319  -0.3305  -0.3269  -0.3267
 -0.3256  -0.3249  -0.3239  -0.3238  -0.3112  -0.3031  -0.3013  -0.2967
 -0.2888  -0.2792  -0.2763  -0.2570  -0.2178

          Ground-State Mulliken Net Atomic Charges

     Atom                 Charge (a.u.)
  ----------------------------------------
      1 C                     0.403575
      2 C                     0.383882
      3 C                     0.414752
      4 C                     0.435111
      5 C                    -0.623434
      6 C                    -0.003406
      7 C                    -1.047324
      8 C                    -0.552342
      9 C                     1.418131
     10 C                    -1.498426
     11 O                    -0.293088
     12 O                    -0.283577
     13 O                    -0.196334
     14 C                    -0.165863
     15 C                    -0.659223
     16 C                    -0.124324
     17 C                    -0.087805
     18 C                    -0.095839
     19 C                    -0.225588
     20 C                    -0.167079
     21 C                    -0.023309
     22 C                    -0.371807
     23 C                    -0.472228
     24 S                    -0.533327
     25 C                    -0.432948
     26 C                    -0.255301
     27 C                     0.219303
     28 C                    -0.005080
     29 C                     0.108345
     30 C                    -0.042580
     31 C                    -0.200263
     32 C                    -0.507475
     33 C                    -0.319227
     34 C                    -0.669242
     35 H                     0.217474
     36 H                     0.328140
     37 H                     0.317362
     38 H                     0.183893
     39 H                     0.294021
     40 H                     0.228484
     41 H                     0.181584
     42 H                     0.115280
     43 H                     0.140087
     44 H                     0.104845
     45 H                     0.104676
     46 H                     0.105797
     47 H                     0.108412
     48 H                     0.112877
     49 H                     0.111872
     50 H                     0.111928
     51 H                     0.113029
     52 H                     0.113671
     53 H                     0.112798
     54 H                     0.123118
     55 H                     0.123435
     56 H                     0.091050
     57 H                     0.091131
     58 H                     0.171874
     59 H                     0.171826
     60 H                     0.175879
     61 H                     0.175893
     62 H                     0.094460
     63 H                     0.094582
     64 H                     0.122382
     65 H                     0.121896
     66 H                     0.113120
     67 H                     0.112953
     68 H                     0.111901
     69 H                     0.111493
     70 H                     0.112802
     71 H                     0.112560
     72 H                     0.113018
     73 H                     0.112632
     74 H                     0.104784
     75 H                     0.104525
     76 H                     0.128738
     77 H                     0.128518
     78 H                     0.141203
     79 H                     0.160088
     80 H                     0.141249
  ----------------------------------------
  Sum of atomic charges =    -0.000003

                    Cartesian Multipole Moments
 -----------------------------------------------------------------
    Charge (ESU x 10^10)
                -0.0000
    Dipole Moment (Debye)
         X      -3.6489      Y      -1.4677      Z       1.8452
       Tot       4.3443
    Quadrupole Moments (Debye-Ang)
        XX    -193.9841     XY     -15.2976     YY    -220.3276
        XZ      12.6640     YZ      -0.8365     ZZ    -230.3625

 Total job time:  6046.53s(wall), 33047.95s(cpu)
        *  Thank you very much for using Q-Chem.  Have a nice day.  *
