 Gaussian 16, Revision A.03,
 Gaussian 16:  ES64L-G16RevA.03 25-Dec-2016

 ----------------------------------------------------------------
 #P UB3LYP/6-311++G(d,p) SCRF=(PCM,Solvent=n,n-DiMethylFormamide)
 ----------------------------------------------------------------

 ------------------
 Quinone PCM in DMF
 ------------------
 Symbolic Z-matrix:
 Charge =  0 Multiplicity = 1

                         Standard orientation:
 ---------------------------------------------------------------------
 Center     Atomic      Atomic             Coordinates (Angstroms)
 Number     Number       Type             X           Y           Z
 ---------------------------------------------------------------------
      1          6           0        1.337597    2.390266    0.000184
      2          6           0        2.721273    2.297768    0.000275
      3          6           0        3.346925    1.055967    0.000039
      4          6           0        2.590295   -0.123707   -0.000269
      5          6           0        1.169319   -0.048923   -0.000189
      6          6           0        0.567143    1.226557   -0.000024
      7          6           0       -0.921909    1.404445   -0.000034
      8          6           0        0.312444   -1.265900    0.000084
      9          6           0       -1.770822    0.216732    0.000038
     10          6           0       -1.180916   -1.070527    0.000116
     11          6           0       -3.195019    0.331054   -0.000065
     12          6           0       -3.964696   -0.855081   -0.000115
     13          6           0       -3.359675   -2.095004    0.000013
     14          6           0       -1.965763   -2.213979    0.000155
     15          8           0       -1.384569    2.551132   -0.000144
     16          8           0        0.765627   -2.397847    0.000404
     17          7           0       -3.820260    1.536732    0.000016
     18          8           0        3.160524   -1.344512   -0.000714
     19          6           0        4.578696   -1.458812    0.000123
     20          1           0        0.831660    3.345885    0.000321
     21          1           0        3.326818    3.197283    0.000511
     22          1           0        4.426622    1.007902    0.000107
     23          1           0       -5.046966   -0.773880   -0.000307
     24          1           0       -3.975681   -2.987639   -0.000025
     25          1           0       -1.480119   -3.180175    0.000191
     26          1           0       -3.253117    2.374997   -0.000209
     27          1           0       -4.824279    1.584332   -0.000071
     28          1           0        4.779687   -2.528345    0.000146
     29          1           0        5.017028   -1.006473    0.895815
     30          1           0        5.018161   -1.006330   -0.894951
 ---------------------------------------------------------------------

 SCF Done:  E(UB3LYP) =  -858.899168222     A.U. after   14 cycles

 The electronic state is 1-A.
 Alpha  occ. eigenvalues --  -19.17091 -19.12315 -19.11895 -14.33432 -10.27694
 Alpha  occ. eigenvalues --  -10.27628 -10.26491 -10.24690 -10.22813 -10.20773
 Alpha  occ. eigenvalues --  -10.20632 -10.20305 -10.19843 -10.19832 -10.19567
 Alpha  occ. eigenvalues --  -10.19338 -10.18968 -10.18687 -10.18275  -1.09189
 Alpha  occ. eigenvalues --   -1.05762  -1.05535  -0.94399  -0.88555  -0.86497
 Alpha  occ. eigenvalues --   -0.80872  -0.78204  -0.76954  -0.75508  -0.71724
 Alpha  occ. eigenvalues --   -0.68525  -0.65948  -0.65021  -0.60852  -0.58440
 Alpha  occ. eigenvalues --   -0.57515  -0.55907  -0.53403  -0.51525  -0.51148
 Alpha  occ. eigenvalues --   -0.49406  -0.49116  -0.48467  -0.47314  -0.47067
 Alpha  occ. eigenvalues --   -0.45203  -0.45087  -0.45020  -0.43284  -0.42394
 Alpha  occ. eigenvalues --   -0.41605  -0.40210  -0.39940  -0.39005  -0.38326
 Alpha  occ. eigenvalues --   -0.38009  -0.37188  -0.35207  -0.34176  -0.33200
 Alpha  occ. eigenvalues --   -0.28743  -0.28057  -0.27498  -0.26310  -0.24728
 Alpha  occ. eigenvalues --   -0.22580
 Alpha virt. eigenvalues --   -0.11202  -0.05840  -0.03474  -0.00963  -0.00717
 Alpha virt. eigenvalues --   -0.00104   0.00618   0.01382   0.01528   0.03039
 Alpha virt. eigenvalues --    0.03211   0.03495   0.03649   0.03756   0.04568

  Beta  occ. eigenvalues --  -19.17091 -19.12315 -19.11895 -14.33432 -10.27694
  Beta  occ. eigenvalues --  -10.27628 -10.26491 -10.24690 -10.22813 -10.20773
  Beta  occ. eigenvalues --  -10.20632 -10.20305 -10.19843 -10.19832 -10.19567
  Beta  occ. eigenvalues --  -10.19338 -10.18968 -10.18687 -10.18275  -1.09189
  Beta  occ. eigenvalues --   -1.05762  -1.05535  -0.94399  -0.88555  -0.86497
  Beta  occ. eigenvalues --   -0.80872  -0.78204  -0.76954  -0.75508  -0.71724
  Beta  occ. eigenvalues --   -0.68525  -0.65948  -0.65021  -0.60852  -0.58440
  Beta  occ. eigenvalues --   -0.57515  -0.55907  -0.53403  -0.51525  -0.51148
  Beta  occ. eigenvalues --   -0.49406  -0.49116  -0.48467  -0.47314  -0.47067
  Beta  occ. eigenvalues --   -0.45203  -0.45087  -0.45020  -0.43284  -0.42394
  Beta  occ. eigenvalues --   -0.41605  -0.40210  -0.39940  -0.39005  -0.38326
  Beta  occ. eigenvalues --   -0.38009  -0.37188  -0.35207  -0.34176  -0.33200
  Beta  occ. eigenvalues --   -0.28743  -0.28057  -0.27498  -0.26310  -0.24728
  Beta  occ. eigenvalues --   -0.22580
  Beta virt. eigenvalues --   -0.11202  -0.05840  -0.03474  -0.00963  -0.00717
  Beta virt. eigenvalues --   -0.00104   0.00618   0.01382   0.01528   0.03039
  Beta virt. eigenvalues --    0.03211   0.03495   0.03649   0.03756   0.04568

 Mulliken charges and spin densities:
               1          2
     1  C   -0.177807   0.000000
     2  C   -0.419498  -0.000000
     3  C   -0.160758   0.000000
     4  C    0.042957  -0.000000
     5  C    0.225673  -0.000000
     6  C    0.291658  -0.000000
     7  C   -0.509685   0.000000
     8  C   -0.585063   0.000000
     9  C    0.102967   0.000000
    10  C    0.658084  -0.000000
    11  C    0.310583   0.000000
    12  C   -0.172859  -0.000000
    13  C   -0.452588   0.000000
    14  C   -0.018770  -0.000000
    15  O   -0.324014  -0.000000
    16  O   -0.294989  -0.000000
    17  N   -0.457246   0.000000
    18  O   -0.135192   0.000000
    19  C   -0.284596  -0.000000
    20  H    0.175274  -0.000000
    21  H    0.218623  -0.000000
    22  H    0.204472   0.000000
    23  H    0.184174   0.000000
    24  H    0.209667   0.000000
    25  H    0.175263   0.000000
    26  H    0.339497   0.000000
    27  H    0.316454   0.000000
    28  H    0.202906   0.000000
    29  H    0.167418  -0.000000
    30  H    0.167394  -0.000000
 Sum of Mulliken charges =  -0.00000   0.00000

 Dipole moment (field-independent basis, Debye):
    X=              0.2074    Y=              1.8057    Z=              0.0003  Tot=              1.8176
 Quadrupole moment (field-independent basis, Debye-Ang):
   XX=            -58.5630   YY=           -115.2519   ZZ=           -113.5517
   XY=              6.3374   XZ=              0.0070   YZ=              0.0011

 Normal termination of Gaussian 16 at Sun Jan 14 01:05:46 2024.
