 Gaussian 16, Revision A.03,
 Gaussian 16:  ES64L-G16RevA.03 25-Dec-2016

 --------------------------------------
 #P UB3LYP/6-311++G(d,p) nosym opt freq
 --------------------------------------

 -------
 Reduced
 -------
 Symbolic Z-matrix:
 Charge = -2 Multiplicity = 1

 SCF Done:  E(UB3LYP) =  -725.033480786     A.U. after   42 cycles
 Optimization completed.
    -- Stationary point found.
 Normal termination of Gaussian 16 at Sun Jan  7 20:19:59 2024.

 ----------------------------------------------------------------------
 #P Geom=AllCheck Guess=TCheck SCRF=Check GenChk UB3LYP/6-311++G(d,p) F
 req
 ----------------------------------------------------------------------

 Structure from the checkpoint file:  "259-an.chk"
 -------
 Reduced
 -------
 Charge = -2 Multiplicity = 1

                          Input orientation:
 ---------------------------------------------------------------------
 Center     Atomic      Atomic             Coordinates (Angstroms)
 Number     Number       Type             X           Y           Z
 ---------------------------------------------------------------------
      1          6           0       -1.207786    2.844726    0.017670
      2          6           0       -2.486854    2.346850   -0.037741
      3          6           0       -2.728496    0.956156   -0.053631
      4          6           0       -0.076300    1.985310    0.065436
      5          6           0       -0.310282    0.561642    0.060959
      6          6           0       -1.637888    0.099734   -0.001767
      7          6           0        1.246181    2.580319    0.115080
      8          6           0        2.297713    1.606537    0.164048
      9          6           0        2.084467    0.218476    0.165169
     10          6           0        0.799504   -0.390738    0.115304
     11          8           0        1.430114    3.854069    0.124738
     12          8           0        0.617179   -1.662953    0.110236
     13          1           0       -1.005268    3.914996    0.027002
     14          1           0       -1.775816   -0.977625   -0.008255
     15          8           0        3.580473    2.142401    0.255844
     16          8           0       -3.608875    3.196432   -0.084838
     17          1           0       -3.748628    0.586168   -0.100410
     18          1           0        2.927263   -0.463935    0.194771
     19          6           0        4.668116    1.320664   -0.090315
     20          1           0       -3.260559    4.093483   -0.065514
     21          1           0        5.560263    1.955036   -0.106349
     22          1           0        4.541318    0.861697   -1.085051
     23          1           0        4.836371    0.513704    0.635983
 ---------------------------------------------------------------------

 SCF Done:  E(UB3LYP) =  -725.033480786     A.U. after    3 cycles

 Alpha  occ. eigenvalues --  -18.93494 -18.89540 -18.78150 -18.77420  -9.99068
 Alpha  occ. eigenvalues --   -9.99025  -9.95253  -9.94176  -9.93388  -9.92922
 Alpha  occ. eigenvalues --   -9.92644  -9.91931  -9.90884  -9.90412  -9.88669
 Alpha  occ. eigenvalues --   -0.83436  -0.80614  -0.69612  -0.68733  -0.59907
 Alpha  occ. eigenvalues --   -0.53506  -0.49854  -0.48932  -0.45887  -0.40362
 Alpha  occ. eigenvalues --   -0.38330  -0.34904  -0.30715  -0.30407  -0.27054
 Alpha  occ. eigenvalues --   -0.24026  -0.22737  -0.21993  -0.21438  -0.18704
 Alpha  occ. eigenvalues --   -0.17995  -0.17875  -0.17230  -0.14301  -0.13394
 Alpha  occ. eigenvalues --   -0.13193  -0.11528  -0.10308  -0.09977  -0.08772
 Alpha  occ. eigenvalues --   -0.07367  -0.06895  -0.05001   0.00278   0.02084
 Alpha  occ. eigenvalues --    0.03443   0.04294   0.04910   0.13533
 Alpha virt. eigenvalues --    0.15313   0.16046   0.17485   0.19000   0.20276
 Alpha virt. eigenvalues --    0.20658   0.21781   0.22186   0.23273   0.24217
 Alpha virt. eigenvalues --    0.24468   0.25367   0.26364   0.26495   0.27397

  Beta  occ. eigenvalues --  -18.93494 -18.89540 -18.78150 -18.77420  -9.99068
  Beta  occ. eigenvalues --   -9.99025  -9.95253  -9.94176  -9.93388  -9.92922
  Beta  occ. eigenvalues --   -9.92644  -9.91931  -9.90884  -9.90412  -9.88669
  Beta  occ. eigenvalues --   -0.83436  -0.80614  -0.69612  -0.68733  -0.59907
  Beta  occ. eigenvalues --   -0.53506  -0.49854  -0.48932  -0.45887  -0.40362
  Beta  occ. eigenvalues --   -0.38330  -0.34904  -0.30715  -0.30407  -0.27054
  Beta  occ. eigenvalues --   -0.24026  -0.22737  -0.21993  -0.21438  -0.18704
  Beta  occ. eigenvalues --   -0.17995  -0.17875  -0.17230  -0.14301  -0.13394
  Beta  occ. eigenvalues --   -0.13193  -0.11528  -0.10308  -0.09977  -0.08772
  Beta  occ. eigenvalues --   -0.07367  -0.06895  -0.05001   0.00278   0.02084
  Beta  occ. eigenvalues --    0.03443   0.04294   0.04910   0.13533
  Beta virt. eigenvalues --    0.15313   0.16046   0.17485   0.19000   0.20276
  Beta virt. eigenvalues --    0.20658   0.21781   0.22186   0.23273   0.24217
  Beta virt. eigenvalues --    0.24468   0.25367   0.26364   0.26495   0.27397

 Mulliken charges and spin densities:
               1          2
     1  C    0.094165   0.000000
     2  C   -0.543446  -0.000000
     3  C   -0.081400   0.000000
     4  C    0.676960   0.000000
     5  C    0.187645  -0.000000
     6  C    0.168481  -0.000000
     7  C   -0.972801  -0.000000
     8  C   -1.005544  -0.000000
     9  C    1.153386   0.000000
    10  C   -0.602827  -0.000000
    11  O   -0.529196  -0.000000
    12  O   -0.520308  -0.000000
    13  H    0.088882  -0.000000
    14  H    0.130306  -0.000000
    15  O   -0.190210   0.000000
    16  O   -0.309035   0.000000
    17  H    0.108345   0.000000
    18  H    0.148639  -0.000000
    19  C    0.903920  -0.000000
    20  H    0.231968  -0.000000
    21  H   -0.987328   0.000000
    22  H   -0.038288   0.000000
    23  H   -0.112314   0.000000
 Sum of Mulliken charges =  -2.00000   0.00000

 Dipole moment (field-independent basis, Debye):
    X=            -12.1914    Y=            -12.6900    Z=             -0.6805  Tot=             17.6105
 Quadrupole moment (field-independent basis, Debye-Ang):
   XX=           -197.1001   YY=           -164.0562   ZZ=           -103.0413
   XY=            -27.2665   XZ=             -0.5030   YZ=             -1.1740

  Exact polarizability:1553.846  77.395 397.471 -27.724   6.858 231.019
 Approx polarizability:4368.505 221.942 505.783-173.852   1.005 250.248

                      1                      2                      3
                      A                      A                      A
 Frequencies --     43.0414                89.7874               110.3842
 Red. masses --      3.3518                 5.8260                 4.9672
 Frc consts  --      0.0037                 0.0277                 0.0357
 IR Inten    --      4.0700                 3.5270                 0.2831

                      4                      5                      6
                      A                      A                      A
 Frequencies --    162.5300               184.9186               210.2475
 Red. masses --      6.6408                 4.4316                 2.8763
 Frc consts  --      0.1034                 0.0893                 0.0749
 IR Inten    --      7.1935                 1.5681                25.0313

                      7                      8                      9
                      A                      A                      A
 Frequencies --    244.4783               263.4137               283.6901
 Red. masses --      3.7758                 1.2441                 1.5817
 Frc consts  --      0.1330                 0.0509                 0.0750
 IR Inten    --     14.8737                14.8475                99.4602

                     10                     11                     12
                      A                      A                      A
 Frequencies --    316.8034               329.2222               336.9365
 Red. masses --      4.3043                 9.6615                 5.7101
 Frc consts  --      0.2545                 0.6170                 0.3819
 IR Inten    --      2.3468                17.8119                35.6993

                     13                     14                     15
                      A                      A                      A
 Frequencies --    385.9901               392.5897               448.8551
 Red. masses --      5.9778                 6.3889                 5.3490
 Frc consts  --      0.5247                 0.5802                 0.6349
 IR Inten    --     10.7909                26.7808               377.9921

                     16                     17                     18
                      A                      A                      A
 Frequencies --    458.9995               473.2670               502.5430
 Red. masses --      4.1522                 6.3220                 7.3675
 Frc consts  --      0.5154                 0.8343                 1.0963
 IR Inten    --    105.4225                19.7330               194.1905

                     19                     20                     21
                      A                      A                      A
 Frequencies --    566.6220               630.2388               656.2028
 Red. masses --      4.8265                 2.6391                 7.1521
 Frc consts  --      0.9130                 0.6176                 1.8145
 IR Inten    --      5.3403                12.3222                12.0573

                     22                     23                     24
                      A                      A                      A
 Frequencies --    670.6373               697.6568               714.9610
 Red. masses --      5.7490                 2.3377                 5.7214
 Frc consts  --      1.5234                 0.6704                 1.7231
 IR Inten    --      1.3278                 9.5412                28.4482

                     25                     26                     27
                      A                      A                      A
 Frequencies --    737.2723               754.2852               772.0966
 Red. masses --      2.2895                 5.8696                 2.3605
 Frc consts  --      0.7332                 1.9676                 0.8291
 IR Inten    --     14.5803               165.5366                57.3955

                     28                     29                     30
                      A                      A                      A
 Frequencies --    819.6630               869.2565               883.6090
 Red. masses --      2.8781                 1.5065                 5.0547
 Frc consts  --      1.1393                 0.6707                 2.3252
 IR Inten    --     13.7063                26.0647                84.5652

                     31                     32                     33
                      A                      A                      A
 Frequencies --    953.4579               964.9153              1065.3552
 Red. masses --      1.3067                 3.7091                 2.9032
 Frc consts  --      0.6999                 2.0347                 1.9414
 IR Inten    --      2.2943               242.8995                19.2189

                     34                     35                     36
                      A                      A                      A
 Frequencies --   1091.1655              1123.5203              1138.9824
 Red. masses --      2.1563                 3.0737                 2.6705
 Frc consts  --      1.5127                 2.2860                 2.0412
 IR Inten    --     25.1964               726.3098                61.3484

                     37                     38                     39
                      A                      A                      A
 Frequencies --   1155.9004              1162.7057              1168.5187
 Red. masses --      1.8724                 1.5320                 1.7790
 Frc consts  --      1.4740                 1.2202                 1.4312
 IR Inten    --    103.2684                99.5731               370.4258

                     40                     41                     42
                      A                      A                      A
 Frequencies --   1189.7861              1219.4728              1244.1549
 Red. masses --      1.6545                 1.9247                 2.4520
 Frc consts  --      1.3799                 1.6864                 2.2363
 IR Inten    --    790.8030               125.5300               129.6429

                     43                     44                     45
                      A                      A                      A
 Frequencies --   1282.0410              1336.1066              1385.2228
 Red. masses --      2.0771                 7.8175                 4.2886
 Frc consts  --      2.0115                 8.2224                 4.8484
 IR Inten    --    274.9397               668.0355               293.4653

                     46                     47                     48
                      A                      A                      A
 Frequencies --   1403.0979              1425.9918              1445.8471
 Red. masses --      5.5383                 4.3258                 3.6422
 Frc consts  --      6.4239                 5.1827                 4.4860
 IR Inten    --    626.5593              1227.4340               237.7860

                     49                     50                     51
                      A                      A                      A
 Frequencies --   1453.6349              1479.8964              1495.8462
 Red. masses --      1.2154                 1.1173                 1.5570
 Frc consts  --      1.5131                 1.4417                 2.0527
 IR Inten    --    693.3337               421.5947               661.2989

                     52                     53                     54
                      A                      A                      A
 Frequencies --   1509.0845              1529.1725              1574.7152
 Red. masses --      1.9935                 4.4084                 6.2006
 Frc consts  --      2.6748                 6.0736                 9.0592
 IR Inten    --    308.4589               458.8429               399.8737

                     55                     56                     57
                      A                      A                      A
 Frequencies --   1612.1165              2930.9808              2987.2017
 Red. masses --      6.6958                 1.0428                 1.0936
 Frc consts  --     10.2529                 5.2781                 5.7497
 IR Inten    --   2159.4012                90.4523               123.9340

                     58                     59                     60
                      A                      A                      A
 Frequencies --   3046.3081              3115.3920              3136.4426
 Red. masses --      1.0967                 1.0882                 1.0855
 Frc consts  --      5.9961                 6.2227                 6.2913
 IR Inten    --    117.4532               112.8108                35.0923

                     61                     62                     63
                      A                      A                      A
 Frequencies --   3156.4889              3157.8591              3827.5198
 Red. masses --      1.0870                 1.0920                 1.0654
 Frc consts  --      6.3810                 6.4157                 9.1959
 IR Inten    --     25.9975               188.2058                 8.3327

 - Thermochemistry -
 -------------------
 Temperature   298.150 Kelvin.  Pressure   1.00000 Atm.
 Atom     1 has atomic number  6 and mass  12.00000

 Molecular mass:   204.04226 amu.
 Principal axes and moments of inertia in atomic units:
                           1         2         3
     Eigenvalues --  1664.692104187.251695829.60747
           X            0.99178   0.12594  -0.02278
           Y           -0.12588   0.99204   0.00395
           Z            0.02310  -0.00105   0.99973
 This molecule is an asymmetric top.
 Rotational symmetry number  1.
 Warning -- assumption of classical behavior for rotation
           may cause significant error
 Rotational temperatures (Kelvin)      0.05203     0.02069     0.01486
 Rotational constants (GHZ):           1.08413     0.43101     0.30958
 Zero-point vibrational energy     429334.4 (Joules/Mol)
                                  102.61338 (Kcal/Mol)
 Warning -- explicit consideration of  19 degrees of freedom as
           vibrations may cause significant error
 Vibrational temperatures:     61.93   129.18   158.82   233.84   266.06
          (Kelvin)            302.50   351.75   378.99   408.17   455.81
                              473.68   484.78   555.35   564.85   645.80
                              660.40   680.93   723.05   815.24   906.77
                              944.13   964.90  1003.77  1028.67  1060.77
                             1085.25  1110.87  1179.31  1250.67  1271.32
                             1371.81  1388.30  1532.81  1569.94  1616.50
                             1638.74  1663.08  1672.87  1681.24  1711.84
                             1754.55  1790.06  1844.57  1922.36  1993.03
                             2018.74  2051.68  2080.25  2091.46  2129.24
                             2152.19  2171.24  2200.14  2265.66  2319.48
                             4217.03  4297.92  4382.96  4482.35  4512.64
                             4541.48  4543.45  5506.95

 Zero-point correction=                           0.163525 (Hartree/Particle)
 Thermal correction to Energy=                    0.176260
 Thermal correction to Enthalpy=                  0.177204
 Thermal correction to Gibbs Free Energy=         0.124525
 Sum of electronic and zero-point Energies=           -724.869956
 Sum of electronic and thermal Energies=              -724.857220
 Sum of electronic and thermal Enthalpies=            -724.856276
 Sum of electronic and thermal Free Energies=         -724.908955

                     E (Thermal)             CV                S
                      KCal/Mol        Cal/Mol-Kelvin    Cal/Mol-Kelvin
 Total                  110.605             49.528            110.873
 Electronic               0.000              0.000              0.000
 Translational            0.889              2.981             41.844
 Rotational               0.889              2.981             32.075
 Vibrational            108.828             43.566             36.954
 Vibration     1          0.595              1.980              5.114
 Vibration     2          0.602              1.956              3.665
 Vibration     3          0.606              1.941              3.262
 Vibration     4          0.623              1.888              2.520
 Vibration     5          0.631              1.860              2.278
 Vibration     6          0.642              1.825              2.042
 Vibration     7          0.660              1.772              1.770
 Vibration     8          0.670              1.740              1.639
 Vibration     9          0.682              1.704              1.511
 Vibration    10          0.704              1.642              1.327
 Vibration    11          0.712              1.617              1.264
 Vibration    12          0.718              1.602              1.227
 Vibration    13          0.755              1.500              1.016
 Vibration    14          0.760              1.486              0.990
 Vibration    15          0.808              1.363              0.799
 Vibration    16          0.817              1.341              0.769
 Vibration    17          0.830              1.309              0.728
 Vibration    18          0.858              1.244              0.652
 Vibration    19          0.923              1.103              0.511

 Optimization completed.
    -- Stationary point found.
 Normal termination of Gaussian 16 at Sun Jan  7 20:54:52 2024.
