 Q-Chem 5.4, Q-Chem, Inc., Pleasanton, CA (2021)
 Q-Chem 5.4.0 for Intel X86 EM64T Linux

User input:
--------------------------------------------------------------
$molecule
-2 1
C                 -1.2077860000      2.8447260000      0.0176700000
C                 -2.4868540000      2.3468500000     -0.0377410000
C                 -2.7284960000      0.9561560000     -0.0536310000
C                 -0.0763000000      1.9853100000      0.0654360000
C                 -0.3102820000      0.5616420000      0.0609590000
C                 -1.6378880000      0.0997340000     -0.0017670000
C                  1.2461810000      2.5803190000      0.1150800000
C                  2.2977130000      1.6065370000      0.1640480000
C                  2.0844670000      0.2184760000      0.1651690000
C                  0.7995040000     -0.3907380000      0.1153040000
O                  1.4301140000      3.8540690000      0.1247380000
O                  0.6171790000     -1.6629530000      0.1102360000
H                 -1.0052680000      3.9149960000      0.0270020000
H                 -1.7758160000     -0.9776250000     -0.0082550000
O                  3.5804730000      2.1424010000      0.2558440000
O                 -3.6088750000      3.1964320000     -0.0848380000
H                 -3.7486280000      0.5861680000     -0.1004100000
H                  2.9272630000     -0.4639350000      0.1947710000
C                  4.6681160000      1.3206640000     -0.0903150000
H                 -3.2605590000      4.0934830000     -0.0655140000
H                  5.5602630000      1.9550360000     -0.1063490000
H                  4.5413180000      0.8616970000     -1.0850510000
H                  4.8363710000      0.5137040000      0.6359830000
$end

$rem
BASIS  =  6-311++G(d,p)
GUI  =  2
JOB_TYPE  =  SP
METHOD  =  B3LYP
SCF_CONVERGENCE  = 8
SOLVENT_METHOD = sm12
$end

$smx
solvent dimethylformamide
charges CM5
$end

--------------------------------------------------------------

             Standard Nuclear Orientation (Angstroms)
    I     Atom           X                Y                Z
 ----------------------------------------------------------------
    1      C      -1.2077860000     2.8447260000     0.0176700000
    2      C      -2.4868540000     2.3468500000    -0.0377410000
    3      C      -2.7284960000     0.9561560000    -0.0536310000
    4      C      -0.0763000000     1.9853100000     0.0654360000
    5      C      -0.3102820000     0.5616420000     0.0609590000
    6      C      -1.6378880000     0.0997340000    -0.0017670000
    7      C       1.2461810000     2.5803190000     0.1150800000
    8      C       2.2977130000     1.6065370000     0.1640480000
    9      C       2.0844670000     0.2184760000     0.1651690000
   10      C       0.7995040000    -0.3907380000     0.1153040000
   11      O       1.4301140000     3.8540690000     0.1247380000
   12      O       0.6171790000    -1.6629530000     0.1102360000
   13      H      -1.0052680000     3.9149960000     0.0270020000
   14      H      -1.7758160000    -0.9776250000    -0.0082550000
   15      O       3.5804730000     2.1424010000     0.2558440000
   16      O      -3.6088750000     3.1964320000    -0.0848380000
   17      H      -3.7486280000     0.5861680000    -0.1004100000
   18      H       2.9272630000    -0.4639350000     0.1947710000
   19      C       4.6681160000     1.3206640000    -0.0903150000
   20      H      -3.2605590000     4.0934830000    -0.0655140000
   21      H       5.5602630000     1.9550360000    -0.1063490000
   22      H       4.5413180000     0.8616970000    -1.0850510000
   23      H       4.8363710000     0.5137040000     0.6359830000
 ----------------------------------------------------------------

   18    -725.0203082120      4.59e-09  Convergence criterion met
 Total energy in the final basis set =     -725.3129746625

                    Orbital Energies (a.u.)
 --------------------------------------------------------------

 Alpha MOs
 -- Occupied --
-19.1518 -19.1300 -19.0240 -19.0105 -10.2246 -10.2165 -10.1915 -10.1843
-10.1705 -10.1702 -10.1669 -10.1572 -10.1487 -10.1461 -10.1315  -1.0515
 -1.0409  -0.9397  -0.9259  -0.8378  -0.7747  -0.7381  -0.7232  -0.6941
 -0.6418  -0.6170  -0.5850  -0.5476  -0.5341  -0.5060  -0.4785  -0.4540
 -0.4523  -0.4476  -0.4249  -0.4204  -0.4048  -0.4028  -0.3797  -0.3709
 -0.3698  -0.3570  -0.3429  -0.3362  -0.3270  -0.3134  -0.3072  -0.2860
 -0.2376  -0.2196  -0.2084  -0.2003  -0.1902  -0.1106

          Ground-State Mulliken Net Atomic Charges

     Atom                 Charge (a.u.)
  ----------------------------------------
      1 C                     0.126235
      2 C                     2.132667
      3 C                     1.266175
      4 C                    -0.902312
      5 C                    -2.064908
      6 C                    -0.268081
      7 C                    -1.991661
      8 C                     0.488760
      9 C                     0.276948
     10 C                    -2.134733
     11 O                    -0.430522
     12 O                    -0.394776
     13 H                     0.066833
     14 H                     0.072768
     15 O                    -0.059051
     16 O                    -0.051729
     17 H                     0.371760
     18 H                    -0.025738
     19 C                     0.399675
     20 H                     0.391922
     21 H                     0.399412
     22 H                     0.133800
     23 H                     0.196557
  ----------------------------------------
  Sum of atomic charges =    -2.000000

                    Cartesian Multipole Moments
 -----------------------------------------------------------------
    Charge (ESU x 10^10)
                -9.6064
    Dipole Moment (Debye)
         X      -4.5123      Y     -11.4542      Z      -1.2415
       Tot      12.3734
    Quadrupole Moments (Debye-Ang)
        XX    -125.9344     XY     -14.4958     YY    -162.2938
        XZ      -3.1923     YZ      -1.9590     ZZ     -99.8123

 Total job time:  436.39s(wall), 3374.97s(cpu)
        *  Thank you very much for using Q-Chem.  Have a nice day.  *
