 Gaussian 16, Revision A.03,
 Gaussian 16:  ES64L-G16RevA.03 25-Dec-2016

 --------------------------------------
 #P UB3LYP/6-311++G(d,p) nosym opt freq
 --------------------------------------

 -------
 Radical
 -------
 Symbolic Z-matrix:
 Charge = -1 Multiplicity = 2

 SCF Done:  E(UB3LYP) =  -845.467597521     A.U. after   22 cycles
 Optimization completed.
    -- Stationary point found.
 Normal termination of Gaussian 16 at Wed Jan 10 05:00:35 2024.

 ----------------------------------------------------------------------
 #P Geom=AllCheck Guess=TCheck SCRF=Check GenChk UB3LYP/6-311++G(d,p) F
 req
 ----------------------------------------------------------------------

 Structure from the checkpoint file:  "091-rad.chk"
 -------
 Radical
 -------
 Charge = -1 Multiplicity = 2

                          Input orientation:
 ---------------------------------------------------------------------
 Center     Atomic      Atomic             Coordinates (Angstroms)
 Number     Number       Type             X           Y           Z
 ---------------------------------------------------------------------
      1          6           0       -1.033883    2.634715    0.570965
      2          6           0        0.287295    2.773924   -0.022570
      3          6           0        0.946236    1.707473   -0.597959
      4          6           0        0.347215    0.378501   -0.637998
      5          6           0       -0.975004    0.240967   -0.042658
      6          6           0       -1.630533    1.308085    0.525675
      7          8           0       -1.644152    3.616694    1.087949
      8          8           0        0.940417   -0.616483   -1.148053
      9          8           0       -2.913874    1.129403    0.996855
     10          8           0       -1.556709   -1.007345    0.020862
     11          6           0       -3.085790    1.338312    2.395894
     12          6           0       -1.884696   -1.593749   -1.235580
     13          6           0        2.321118    1.843988   -1.207622
     14          6           0        0.888241    4.168825    0.026822
     15          6           0        1.669893    4.412280    1.293748
     16          6           0        2.918232    4.876043    1.443416
     17          6           0        3.833308    5.274712    0.311624
     18          6           0        3.523491    5.043209    2.817923
     19          1           0       -2.798147    2.354045    2.675621
     20          1           0       -2.500131    0.606498    2.968506
     21          1           0       -4.147669    1.181426    2.600374
     22          1           0       -2.309169   -2.575800   -1.013272
     23          1           0       -0.993730   -1.704560   -1.857319
     24          1           0       -2.638851   -0.988743   -1.756850
     25          1           0        3.035104    2.283107   -0.503201
     26          1           0        2.309616    2.484979   -2.099029
     27          1           0        2.677589    0.857600   -1.506012
     28          1           0        0.050935    4.875844    0.013162
     29          1           0        1.499976    4.353139   -0.858463
     30          1           0        1.112323    4.168849    2.196178
     31          1           0        3.390731    5.107322   -0.669869
     32          1           0        4.775611    4.713253    0.356156
     33          1           0        4.100756    6.337615    0.383759
     34          1           0        2.822726    4.749590    3.602613
     35          1           0        3.821640    6.084896    2.999488
     36          1           0        4.431606    4.435338    2.928525
 ---------------------------------------------------------------------

 SCF Done:  E(UB3LYP) =  -845.467597521     A.U. after    1 cycles

 Alpha  occ. eigenvalues --  -19.00670 -19.00637 -18.93957 -18.93947 -10.09053
 Alpha  occ. eigenvalues --  -10.09031 -10.08554 -10.08524 -10.08233 -10.08170
 Alpha  occ. eigenvalues --  -10.07520 -10.07433 -10.07385 -10.05834 -10.05018
 Alpha  occ. eigenvalues --  -10.04037 -10.03854 -10.03647  -0.93109  -0.91251
 Alpha  occ. eigenvalues --   -0.85989  -0.85743  -0.71841  -0.69685  -0.65133
 Alpha  occ. eigenvalues --   -0.62395  -0.60321  -0.58501  -0.57958  -0.55559
 Alpha  occ. eigenvalues --   -0.51797  -0.51243  -0.44022  -0.43375  -0.41488
 Alpha  occ. eigenvalues --   -0.38865  -0.37351  -0.36373  -0.35499  -0.34448
 Alpha  occ. eigenvalues --   -0.34271  -0.33717  -0.32452  -0.31847  -0.31236
 Alpha  occ. eigenvalues --   -0.29988  -0.29863  -0.29236  -0.28001  -0.27678
 Alpha  occ. eigenvalues --   -0.27170  -0.27029  -0.26440  -0.25450  -0.24034
 Alpha  occ. eigenvalues --   -0.23518  -0.23153  -0.22757  -0.22092  -0.21572
 Alpha  occ. eigenvalues --   -0.16023  -0.15737  -0.13930  -0.13205  -0.10350
 Alpha  occ. eigenvalues --   -0.10032  -0.09568  -0.02383
 Alpha virt. eigenvalues --    0.06581   0.08441   0.08938   0.09175   0.09655
 Alpha virt. eigenvalues --    0.10411   0.11352   0.11549   0.11809   0.12221
 Alpha virt. eigenvalues --    0.12787   0.12897   0.13186   0.13288   0.13975

  Beta  occ. eigenvalues --  -19.00657 -19.00623 -18.93281 -18.93236 -10.09048
  Beta  occ. eigenvalues --  -10.09026 -10.08406 -10.08382 -10.08143 -10.08080
  Beta  occ. eigenvalues --  -10.07520 -10.07433 -10.07383 -10.05825 -10.05027
  Beta  occ. eigenvalues --  -10.03903 -10.03747 -10.03659  -0.93020  -0.91155
  Beta  occ. eigenvalues --   -0.84820  -0.84547  -0.71776  -0.69251  -0.64967
  Beta  occ. eigenvalues --   -0.62237  -0.60319  -0.58280  -0.57829  -0.55397
  Beta  occ. eigenvalues --   -0.51410  -0.50777  -0.43745  -0.43078  -0.41435
  Beta  occ. eigenvalues --   -0.38751  -0.37243  -0.36204  -0.35372  -0.34392
  Beta  occ. eigenvalues --   -0.34072  -0.33671  -0.32349  -0.31754  -0.31025
  Beta  occ. eigenvalues --   -0.29910  -0.29696  -0.28966  -0.27979  -0.27627
  Beta  occ. eigenvalues --   -0.26967  -0.26424  -0.26149  -0.24483  -0.23724
  Beta  occ. eigenvalues --   -0.23100  -0.22811  -0.22060  -0.20942  -0.20351
  Beta  occ. eigenvalues --   -0.15715  -0.15463  -0.13684  -0.10439  -0.09773
  Beta  occ. eigenvalues --   -0.09413  -0.08907
  Beta virt. eigenvalues --    0.04724   0.06584   0.08439   0.08969   0.09193
  Beta virt. eigenvalues --    0.09667   0.10417   0.11396   0.11573   0.11856
  Beta virt. eigenvalues --    0.12229   0.12829   0.12995   0.13286   0.13386

 Mulliken charges and spin densities:
               1          2
     1  C   -0.603656   0.067778
     2  C    0.991311   0.083465
     3  C    0.779721   0.104072
     4  C   -0.847820   0.055918
     5  C   -0.288989   0.078314
     6  C   -0.124649   0.074751
     7  O   -0.386241   0.249248
     8  O   -0.404496   0.260818
     9  O   -0.143138  -0.000206
    10  O   -0.140265  -0.000213
    11  C   -0.256683   0.001081
    12  C   -0.270483   0.002129
    13  C   -0.677592   0.001328
    14  C    0.241751   0.012711
    15  C   -0.664227  -0.010117
    16  C    0.500141   0.009432
    17  C   -0.659653  -0.002680
    18  C   -0.607111   0.001586
    19  H    0.170673  -0.000655
    20  H    0.108573   0.001235
    21  H    0.113107   0.001179
    22  H    0.111922   0.001404
    23  H    0.178030  -0.000855
    24  H    0.109279   0.000751
    25  H    0.144972   0.004384
    26  H    0.130811   0.005403
    27  H    0.199855  -0.002342
    28  H    0.213171   0.002447
    29  H    0.136328   0.000197
    30  H    0.193269  -0.003645
    31  H    0.127780   0.000043
    32  H    0.122910   0.000469
    33  H    0.117212  -0.000116
    34  H    0.147963   0.000172
    35  H    0.111412   0.000032
    36  H    0.124812   0.000483
 Sum of Mulliken charges =  -1.00000   1.00000

 Dipole moment (field-independent basis, Debye):
    X=              1.9604    Y=             -7.0625    Z=             -0.7327  Tot=              7.3660
 Quadrupole moment (field-independent basis, Debye-Ang):
   XX=           -132.4999   YY=           -151.8991   ZZ=           -116.2496
   XY=              8.3932   XZ=              4.8652   YZ=            -10.2432

  Exact polarizability: 229.866  29.719 231.045 -20.596  36.875 171.130
 Approx polarizability: 326.472 -16.460 347.715 -43.475  56.459 250.693

                      1                      2                      3
                      A                      A                      A
 Frequencies --     20.3497                36.8445                49.5751
 Red. masses --      3.5287                 3.8631                 3.0331
 Frc consts  --      0.0009                 0.0031                 0.0044
 IR Inten    --      0.2385                 0.9164                 0.6231

                      4                      5                      6
                      A                      A                      A
 Frequencies --     75.0780                82.3710                86.1661
 Red. masses --      2.8405                 3.4909                 2.7587
 Frc consts  --      0.0094                 0.0140                 0.0121
 IR Inten    --      7.2236                 1.1531                 1.5338

                      7                      8                      9
                      A                      A                      A
 Frequencies --     95.6455               109.4193               132.4964
 Red. masses --      4.2835                 1.0813                 2.4519
 Frc consts  --      0.0231                 0.0076                 0.0254
 IR Inten    --      8.3286                 0.0758                 0.9226

                     10                     11                     12
                      A                      A                      A
 Frequencies --    147.1325               152.7131               157.0985
 Red. masses --      1.2151                 1.2252                 1.1254
 Frc consts  --      0.0155                 0.0168                 0.0164
 IR Inten    --      0.3231                 0.6132                 0.5971

                     13                     14                     15
                      A                      A                      A
 Frequencies --    184.9544               188.7493               212.0707
 Red. masses --      1.3848                 3.0878                 3.4403
 Frc consts  --      0.0279                 0.0648                 0.0912
 IR Inten    --      1.5414                 1.1576                 2.7681

                     16                     17                     18
                      A                      A                      A
 Frequencies --    246.0283               265.4858               284.3534
 Red. masses --      2.3863                 4.4425                 3.4476
 Frc consts  --      0.0851                 0.1845                 0.1642
 IR Inten    --      1.6205                 6.1158                 0.6000

                     19                     20                     21
                      A                      A                      A
 Frequencies --    332.4804               338.6176               341.1773
 Red. masses --      4.7636                 5.3592                 2.3424
 Frc consts  --      0.3103                 0.3621                 0.1606
 IR Inten    --      1.0271                 4.0604                 3.6304

                     22                     23                     24
                      A                      A                      A
 Frequencies --    353.7959               389.5713               400.1969
 Red. masses --      3.8624                 3.2455                 5.0596
 Frc consts  --      0.2849                 0.2902                 0.4774
 IR Inten    --      0.9973                 2.5847                 5.3101

                     25                     26                     27
                      A                      A                      A
 Frequencies --    403.7795               428.9798               447.9009
 Red. masses --      7.1195                 5.2744                 2.6758
 Frc consts  --      0.6839                 0.5719                 0.3163
 IR Inten    --      5.6284                 3.7052                 5.6992

                     28                     29                     30
                      A                      A                      A
 Frequencies --    472.5946               510.8256               523.3739
 Red. masses --      5.7107                 4.8480                 3.8333
 Frc consts  --      0.7515                 0.7454                 0.6187
 IR Inten    --      7.0880                 3.6341                 6.8327

                     31                     32                     33
                      A                      A                      A
 Frequencies --    579.0939               632.9975               660.1869
 Red. masses --      5.9808                 4.9367                 5.8548
 Frc consts  --      1.1817                 1.1654                 1.5035
 IR Inten    --      5.3319                19.0807                 2.8283

                     34                     35                     36
                      A                      A                      A
 Frequencies --    718.6141               738.1809               778.7044
 Red. masses --      3.2059                 7.9659                 5.9324
 Frc consts  --      0.9754                 2.5575                 2.1195
 IR Inten    --      0.8757                 7.1676                 0.4585

                     37                     38                     39
                      A                      A                      A
 Frequencies --    798.3955               857.0235               906.7985
 Red. masses --      2.9485                 1.9769                 2.5177
 Frc consts  --      1.1074                 0.8555                 1.2198
 IR Inten    --      2.5428                 8.5824                18.0476

                     40                     41                     42
                      A                      A                      A
 Frequencies --    929.8652               958.3813               963.7456
 Red. masses --      3.6253                 1.4300                 2.4613
 Frc consts  --      1.8469                 0.7739                 1.3469
 IR Inten    --     25.0109                 2.6231                30.6859

                     43                     44                     45
                      A                      A                      A
 Frequencies --    982.4010              1018.9025              1023.2470
 Red. masses --      4.4005                 1.7027                 1.5343
 Frc consts  --      2.5023                 1.0415                 0.9465
 IR Inten    --     23.4125                 1.3759                 1.6237

                     46                     47                     48
                      A                      A                      A
 Frequencies --   1043.8354              1048.4155              1084.5717
 Red. masses --      1.8905                 3.0706                 2.3754
 Frc consts  --      1.2136                 1.9885                 1.6463
 IR Inten    --     12.6395                35.6413                 7.2327

                     49                     50                     51
                      A                      A                      A
 Frequencies --   1098.7685              1120.8662              1122.9856
 Red. masses --      1.6374                 2.4443                 4.9095
 Frc consts  --      1.1647                 1.8093                 3.6478
 IR Inten    --      0.4716                39.4600               198.1937

                     52                     53                     54
                      A                      A                      A
 Frequencies --   1161.2782              1163.5132              1168.4371
 Red. masses --      1.2772                 1.2705                 2.7539
 Frc consts  --      1.0148                 1.0133                 2.2152
 IR Inten    --     22.1566                 8.5337                47.3299

                     55                     56                     57
                      A                      A                      A
 Frequencies --   1187.6505              1209.8707              1212.9547
 Red. masses --      2.1024                 1.5755                 2.6006
 Frc consts  --      1.7472                 1.3588                 2.2543
 IR Inten    --     74.4486                 1.6508                 3.3574

                     58                     59                     60
                      A                      A                      A
 Frequencies --   1239.3975              1261.4789              1291.5386
 Red. masses --      2.8290                 1.7505                 2.7128
 Frc consts  --      2.5604                 1.6412                 2.6662
 IR Inten    --    161.4254                37.5816                84.8504

                     61                     62                     63
                      A                      A                      A
 Frequencies --   1315.1127              1374.6570              1379.6011
 Red. masses --      1.6459                 1.3326                 1.3468
 Frc consts  --      1.6772                 1.4837                 1.5103
 IR Inten    --     38.0753                 4.8887                22.5789

                     64                     65                     66
                      A                      A                      A
 Frequencies --   1401.9149              1410.1142              1413.2558
 Red. masses --      1.3497                 2.8346                 1.3045
 Frc consts  --      1.5629                 3.3208                 1.5351
 IR Inten    --      9.3970                 9.3819                 0.6541

                     67                     68                     69
                      A                      A                      A
 Frequencies --   1445.2586              1453.6810              1462.7716
 Red. masses --      1.2028                 1.2632                 1.2417
 Frc consts  --      1.4802                 1.5727                 1.5654
 IR Inten    --      0.1747               118.1965                 9.4646

                     70                     71                     72
                      A                      A                      A
 Frequencies --   1472.5275              1476.8164              1479.3488
 Red. masses --      1.0586                 1.0887                 1.0817
 Frc consts  --      1.3524                 1.3990                 1.3948
 IR Inten    --      0.1171                 0.3367                 4.8340

                     73                     74                     75
                      A                      A                      A
 Frequencies --   1483.6310              1486.0842              1491.1928
 Red. masses --      1.1904                 1.0551                 1.0735
 Frc consts  --      1.5438                 1.3729                 1.4064
 IR Inten    --     19.6041                 5.3859                 6.8741

                     76                     77                     78
                      A                      A                      A
 Frequencies --   1494.6730              1501.8061              1511.4507
 Red. masses --      1.0813                 1.0701                 2.8528
 Frc consts  --      1.4232                 1.4219                 3.8398
 IR Inten    --      0.7672                10.1606                27.2938

                     79                     80                     81
                      A                      A                      A
 Frequencies --   1514.1991              1514.6958              1515.5376
 Red. masses --      1.1743                 1.2520                 3.2648
 Frc consts  --      1.5863                 1.6924                 4.4181
 IR Inten    --     17.1925                43.0231               357.9542

                     82                     83                     84
                      A                      A                      A
 Frequencies --   1540.8908              1630.7565              1718.1979
 Red. masses --      6.8911                 9.2045                 6.3541
 Frc consts  --      9.6401                14.4221                11.0522
 IR Inten    --     21.0017                13.6722                 1.8539

                     85                     86                     87
                      A                      A                      A
 Frequencies --   2981.0735              2981.2254              2982.0150
 Red. masses --      1.0404                 1.0426                 1.0432
 Frc consts  --      5.4477                 5.4596                 5.4654
 IR Inten    --     98.7662               132.2326               109.3278

                     88                     89                     90
                      A                      A                      A
 Frequencies --   2990.0458              2990.6872              3014.1524
 Red. masses --      1.0435                 1.0481                 1.0987
 Frc consts  --      5.4969                 5.5235                 5.8810
 IR Inten    --     78.1710               118.0424                36.6102

                     91                     92                     93
                      A                      A                      A
 Frequencies --   3019.3671              3020.0805              3041.7553
 Red. masses --      1.0688                 1.0926                 1.0892
 Frc consts  --      5.7408                 5.8713                 5.9376
 IR Inten    --     17.0178                57.4601                36.6559

                     94                     95                     96
                      A                      A                      A
 Frequencies --   3062.2016              3062.5793              3076.1426
 Red. masses --      1.0879                 1.0873                 1.0952
 Frc consts  --      6.0107                 6.0088                 6.1059
 IR Inten    --    100.0893                51.3104                15.3352

                     97                     98                     99
                      A                      A                      A
 Frequencies --   3088.1752              3097.9999              3098.2798
 Red. masses --      1.0959                 1.1057                 1.1057
 Frc consts  --      6.1576                 6.2525                 6.2536
 IR Inten    --     27.0044                 7.3291                38.0796

                    100                    101                    102
                      A                      A                      A
 Frequencies --   3109.6089              3116.7855              3126.9872
 Red. masses --      1.0958                 1.0918                 1.0882
 Frc consts  --      6.2430                 6.2492                 6.2689
 IR Inten    --      7.8917                21.0101                22.1261

 - Thermochemistry -
 -------------------
 Temperature   298.150 Kelvin.  Pressure   1.00000 Atm.
 Atom     1 has atomic number  6 and mass  12.00000

 Molecular mass:   250.12051 amu.
 Principal axes and moments of inertia in atomic units:
                           1         2         3
     Eigenvalues --  2707.574617236.072019095.29469
           X            0.67705   0.64172   0.36028
           Y            0.71780  -0.46781  -0.51567
           Z            0.16237  -0.60775   0.77735
 This molecule is an asymmetric top.
 Rotational symmetry number  1.
 Warning -- assumption of classical behavior for rotation
           may cause significant error
 Rotational temperatures (Kelvin)      0.03199     0.01197     0.00952
 Rotational constants (GHZ):           0.66655     0.24941     0.19843
 Zero-point vibrational energy     764289.7 (Joules/Mol)
                                  182.66963 (Kcal/Mol)
 Warning -- explicit consideration of  31 degrees of freedom as
           vibrations may cause significant error
 Vibrational temperatures:     29.28    53.01    71.33   108.02   118.51
          (Kelvin)            123.97   137.61   157.43   190.63   211.69
                              219.72   226.03   266.11   271.57   305.12
                              353.98   381.97   409.12   478.37   487.20
                              490.88   509.03   560.51   575.79   580.95
                              617.21   644.43   679.96   734.96   753.02
                              833.19   910.74   949.86  1033.93  1062.08
                             1120.38  1148.71  1233.07  1304.68  1337.87
                             1378.90  1386.62  1413.46  1465.97  1472.22
                             1501.85  1508.44  1560.46  1580.88  1612.68
                             1615.73  1670.82  1674.04  1681.12  1708.76
                             1740.73  1745.17  1783.22  1814.99  1858.24
                             1892.15  1977.82  1984.94  2017.04  2028.84
                             2033.36  2079.40  2091.52  2104.60  2118.64
                             2124.81  2128.45  2134.61  2138.14  2145.49
                             2150.50  2160.76  2174.64  2178.59  2179.31
                             2180.52  2217.00  2346.29  2472.10  4289.10
                             4289.32  4290.45  4302.01  4302.93  4336.69
                             4344.20  4345.22  4376.41  4405.83  4406.37
                             4425.88  4443.20  4457.33  4457.73  4474.03
                             4484.36  4499.04

 Zero-point correction=                           0.291103 (Hartree/Particle)
 Thermal correction to Energy=                    0.311245
 Thermal correction to Enthalpy=                  0.312189
 Thermal correction to Gibbs Free Energy=         0.240678
 Sum of electronic and zero-point Energies=           -845.176495
 Sum of electronic and thermal Energies=              -845.156353
 Sum of electronic and thermal Enthalpies=            -845.155408
 Sum of electronic and thermal Free Energies=         -845.226919

                     E (Thermal)             CV                S
                      KCal/Mol        Cal/Mol-Kelvin    Cal/Mol-Kelvin
 Total                  195.309             72.217            150.507
 Electronic               0.000              0.000              1.377
 Translational            0.889              2.981             42.451
 Rotational               0.889              2.981             33.543
 Vibrational            193.532             66.255             73.136
 Vibration     1          0.593              1.986              6.600
 Vibration     2          0.594              1.982              5.422
 Vibration     3          0.595              1.978              4.834
 Vibration     4          0.599              1.966              4.016
 Vibration     5          0.600              1.961              3.834
 Vibration     6          0.601              1.959              3.745
 Vibration     7          0.603              1.952              3.541
 Vibration     8          0.606              1.942              3.279
 Vibration     9          0.613              1.921              2.909
 Vibration    10          0.617              1.906              2.709
 Vibration    11          0.619              1.900              2.638
 Vibration    12          0.621              1.895              2.584
 Vibration    13          0.631              1.860              2.278
 Vibration    14          0.633              1.855              2.240
 Vibration    15          0.643              1.822              2.026
 Vibration    16          0.660              1.769              1.759
 Vibration    17          0.671              1.736              1.625
 Vibration    18          0.683              1.703              1.507
 Vibration    19          0.714              1.611              1.248
 Vibration    20          0.719              1.598              1.219
 Vibration    21          0.721              1.593              1.207
 Vibration    22          0.730              1.567              1.149
 Vibration    23          0.757              1.492              1.002
 Vibration    24          0.766              1.470              0.962
 Vibration    25          0.769              1.462              0.949
 Vibration    26          0.790              1.407              0.862
 Vibration    27          0.807              1.366              0.802
 Vibration    28          0.829              1.311              0.730
 Vibration    29          0.866              1.226              0.632
 Vibration    30          0.878              1.198              0.602
 Vibration    31          0.936              1.077              0.487

 Optimization completed.
    -- Stationary point found.
 Normal termination of Gaussian 16 at Wed Jan 10 06:41:34 2024.
