 Q-Chem 5.4, Q-Chem, Inc., Pleasanton, CA (2021)
 Q-Chem 5.4.0 for Intel X86 EM64T Linux

User input:
--------------------------------------------------------------
$molecule
-1 2
C                 -1.0338830000      2.6347150000      0.5709650000
C                  0.2872950000      2.7739240000     -0.0225700000
C                  0.9462360000      1.7074730000     -0.5979590000
C                  0.3472150000      0.3785010000     -0.6379980000
C                 -0.9750040000      0.2409670000     -0.0426580000
C                 -1.6305330000      1.3080850000      0.5256750000
O                 -1.6441520000      3.6166940000      1.0879490000
O                  0.9404170000     -0.6164830000     -1.1480530000
O                 -2.9138740000      1.1294030000      0.9968550000
O                 -1.5567090000     -1.0073450000      0.0208620000
C                 -3.0857900000      1.3383120000      2.3958940000
C                 -1.8846960000     -1.5937490000     -1.2355800000
C                  2.3211180000      1.8439880000     -1.2076220000
C                  0.8882410000      4.1688250000      0.0268220000
C                  1.6698930000      4.4122800000      1.2937480000
C                  2.9182320000      4.8760430000      1.4434160000
C                  3.8333080000      5.2747120000      0.3116240000
C                  3.5234910000      5.0432090000      2.8179230000
H                 -2.7981470000      2.3540450000      2.6756210000
H                 -2.5001310000      0.6064980000      2.9685060000
H                 -4.1476690000      1.1814260000      2.6003740000
H                 -2.3091690000     -2.5758000000     -1.0132720000
H                 -0.9937300000     -1.7045600000     -1.8573190000
H                 -2.6388510000     -0.9887430000     -1.7568500000
H                  3.0351040000      2.2831070000     -0.5032010000
H                  2.3096160000      2.4849790000     -2.0990290000
H                  2.6775890000      0.8576000000     -1.5060120000
H                  0.0509350000      4.8758440000      0.0131620000
H                  1.4999760000      4.3531390000     -0.8584630000
H                  1.1123230000      4.1688490000      2.1961780000
H                  3.3907310000      5.1073220000     -0.6698690000
H                  4.7756110000      4.7132530000      0.3561560000
H                  4.1007560000      6.3376150000      0.3837590000
H                  2.8227260000      4.7495900000      3.6026130000
H                  3.8216400000      6.0848960000      2.9994880000
H                  4.4316060000      4.4353380000      2.9285250000
$end

$rem
BASIS  =  6-311++G(d,p)
GUI  =  2
JOB_TYPE  =  SP
METHOD  =  B3LYP
SCF_CONVERGENCE  = 8
SOLVENT_METHOD = sm12
$end

$smx
solvent dimethylformamide
charges CM5
$end

--------------------------------------------------------------

             Standard Nuclear Orientation (Angstroms)
    I     Atom           X                Y                Z
 ----------------------------------------------------------------
    1      C      -1.0338830000     2.6347150000     0.5709650000
    2      C       0.2872950000     2.7739240000    -0.0225700000
    3      C       0.9462360000     1.7074730000    -0.5979590000
    4      C       0.3472150000     0.3785010000    -0.6379980000
    5      C      -0.9750040000     0.2409670000    -0.0426580000
    6      C      -1.6305330000     1.3080850000     0.5256750000
    7      O      -1.6441520000     3.6166940000     1.0879490000
    8      O       0.9404170000    -0.6164830000    -1.1480530000
    9      O      -2.9138740000     1.1294030000     0.9968550000
   10      O      -1.5567090000    -1.0073450000     0.0208620000
   11      C      -3.0857900000     1.3383120000     2.3958940000
   12      C      -1.8846960000    -1.5937490000    -1.2355800000
   13      C       2.3211180000     1.8439880000    -1.2076220000
   14      C       0.8882410000     4.1688250000     0.0268220000
   15      C       1.6698930000     4.4122800000     1.2937480000
   16      C       2.9182320000     4.8760430000     1.4434160000
   17      C       3.8333080000     5.2747120000     0.3116240000
   18      C       3.5234910000     5.0432090000     2.8179230000
   19      H      -2.7981470000     2.3540450000     2.6756210000
   20      H      -2.5001310000     0.6064980000     2.9685060000
   21      H      -4.1476690000     1.1814260000     2.6003740000
   22      H      -2.3091690000    -2.5758000000    -1.0132720000
   23      H      -0.9937300000    -1.7045600000    -1.8573190000
   24      H      -2.6388510000    -0.9887430000    -1.7568500000
   25      H       3.0351040000     2.2831070000    -0.5032010000
   26      H       2.3096160000     2.4849790000    -2.0990290000
   27      H       2.6775890000     0.8576000000    -1.5060120000
   28      H       0.0509350000     4.8758440000     0.0131620000
   29      H       1.4999760000     4.3531390000    -0.8584630000
   30      H       1.1123230000     4.1688490000     2.1961780000
   31      H       3.3907310000     5.1073220000    -0.6698690000
   32      H       4.7756110000     4.7132530000     0.3561560000
   33      H       4.1007560000     6.3376150000     0.3837590000
   34      H       2.8227260000     4.7495900000     3.6026130000
   35      H       3.8216400000     6.0848960000     2.9994880000
   36      H       4.4316060000     4.4353380000     2.9285250000
 ----------------------------------------------------------------

   17    -845.4640561324      3.11e-09  Convergence criterion met
 Total energy in the final basis set =     -845.5429893974

                    Orbital Energies (a.u.)
 --------------------------------------------------------------

 Alpha MOs
 -- Occupied --
-19.1306 -19.1304 -19.0703 -19.0699 -10.2154 -10.2148 -10.2108 -10.2102
-10.2071 -10.2069 -10.1779 -10.1690 -10.1683 -10.1665 -10.1661 -10.1655
-10.1650 -10.1606  -1.0554  -1.0368  -0.9901  -0.9877  -0.8317  -0.8120
 -0.7727  -0.7418  -0.7053  -0.7005  -0.6952  -0.6694  -0.6437  -0.6296
 -0.5637  -0.5591  -0.5228  -0.5115  -0.4942  -0.4856  -0.4651  -0.4602
 -0.4438  -0.4421  -0.4390  -0.4349  -0.4317  -0.4194  -0.4146  -0.4010
 -0.3933  -0.3889  -0.3860  -0.3829  -0.3744  -0.3723  -0.3626  -0.3595
 -0.3560  -0.3432  -0.3384  -0.3354  -0.2850  -0.2818  -0.2640  -0.2440
 -0.2329  -0.2283  -0.2225  -0.1542

 Beta MOs
 -- Occupied --
-19.1305 -19.1302 -19.0633 -19.0630 -10.2139 -10.2133 -10.2099 -10.2093
-10.2070 -10.2069 -10.1778 -10.1690 -10.1671 -10.1665 -10.1655 -10.1650
-10.1649 -10.1607  -1.0544  -1.0357  -0.9783  -0.9759  -0.8283  -0.8100
 -0.7711  -0.7400  -0.7029  -0.6992  -0.6951  -0.6673  -0.6382  -0.6276
 -0.5608  -0.5558  -0.5222  -0.5105  -0.4924  -0.4840  -0.4621  -0.4593
 -0.4427  -0.4408  -0.4379  -0.4336  -0.4302  -0.4173  -0.4118  -0.3941
 -0.3922  -0.3876  -0.3845  -0.3773  -0.3727  -0.3661  -0.3575  -0.3560
 -0.3436  -0.3360  -0.3344  -0.3307  -0.2819  -0.2787  -0.2453  -0.2325
 -0.2273  -0.2227  -0.2165

          Ground-State Mulliken Net Atomic Charges

     Atom                 Charge (a.u.)    Spin (a.u.)
  --------------------------------------------------------
      1 C                    -1.102721       0.062941
      2 C                     0.281229       0.088523
      3 C                     0.113032       0.093663
      4 C                    -1.499656       0.058271
      5 C                    -0.635580       0.080006
      6 C                    -0.376101       0.077797
      7 O                    -0.317108       0.254761
      8 O                    -0.348505       0.258691
      9 O                    -0.094358       0.000083
     10 O                    -0.097142       0.000135
     11 C                    -0.008138       0.000226
     12 C                    -0.022957       0.001188
     13 C                    -0.029117       0.003258
     14 C                     0.228434       0.013084
     15 C                    -2.419022      -0.007535
     16 C                     1.700526       0.008412
     17 C                     0.344734      -0.002933
     18 C                     0.203695       0.001215
     19 H                     0.125600      -0.000276
     20 H                     0.121228       0.000984
     21 H                     0.232207       0.000317
     22 H                     0.228381       0.000525
     23 H                     0.133880      -0.000432
     24 H                     0.122810       0.000605
     25 H                     0.159916       0.003803
     26 H                     0.217376       0.005012
     27 H                     0.169264      -0.002294
     28 H                     0.184033       0.002396
     29 H                     0.019504       0.000077
     30 H                     0.026158      -0.002958
     31 H                     0.304797       0.000098
     32 H                     0.167085       0.000164
     33 H                     0.212902      -0.000133
     34 H                     0.255094       0.000082
     35 H                     0.201935       0.000017
     36 H                     0.196586       0.000230
  --------------------------------------------------------
  Sum of atomic charges =    -1.000000

                    Cartesian Multipole Moments
 -----------------------------------------------------------------
    Charge (ESU x 10^10)
                -4.8032
    Dipole Moment (Debye)
         X       2.6794      Y      -6.5311      Z      -0.3141
       Tot       7.0663
    Quadrupole Moments (Debye-Ang)
        XX    -126.2163     XY      14.9587     YY    -146.3328
        XZ       6.0487     YZ      -8.2917     ZZ    -114.5309

 Total job time:  1200.31s(wall), 9393.18s(cpu)
        *  Thank you very much for using Q-Chem.  Have a nice day.  *
