 Q-Chem 5.4, Q-Chem, Inc., Pleasanton, CA (2021)
 Q-Chem 5.4.0 for Intel X86 EM64T Linux

User input:
--------------------------------------------------------------
$molecule
-2 1
C                  5.7051420000     -5.3442820000      1.2083130000
C                  6.6563850000     -5.1900880000      0.2082670000
C                  6.5888210000     -4.1242060000     -0.7255060000
C                  4.6119060000     -4.4178610000      1.3284790000
C                  4.5519530000     -3.3241670000      0.3615690000
C                  5.5517970000     -3.2215940000     -0.6343910000
C                  3.5939540000     -4.5464520000      2.3657580000
C                  2.5802630000     -3.5460450000      2.3445400000
C                  2.5447670000     -2.5012980000      1.4009120000
C                  3.4966070000     -2.3160260000      0.3707990000
O                  3.5829390000     -5.4939300000      3.2611760000
O                  3.4510610000     -1.3474710000     -0.4926210000
C                  5.8744420000     -6.5206730000      2.1520610000
H                  7.4724540000     -5.9103060000      0.1452650000
C                  1.5099450000     -3.6448970000      3.4013990000
H                  1.7335580000     -1.7717820000      1.4503140000
H                  5.4514290000     -2.3873240000     -1.3226580000
H                  7.3489910000     -4.0271160000     -1.5003570000
H                  6.7750410000     -7.0895280000      1.8728530000
H                  5.0031210000     -7.1787350000      2.1342310000
H                  5.9519590000     -6.1945640000      3.1913160000
H                  1.9393230000     -3.6112550000      4.4143920000
H                  0.9785210000     -4.6074110000      3.3483920000
H                  0.7792610000     -2.8315790000      3.2998990000
$end

$rem
BASIS  =  6-311++G(d,p)
GUI  =  2
JOB_TYPE  =  SP
METHOD  =  B3LYP
SCF_CONVERGENCE  = 8
SOLVENT_METHOD = sm12
$end

$smx
solvent dimethylformamide
charges CM5
$end

--------------------------------------------------------------

             Standard Nuclear Orientation (Angstroms)
    I     Atom           X                Y                Z
 ----------------------------------------------------------------
    1      C       5.7051420000    -5.3442820000     1.2083130000
    2      C       6.6563850000    -5.1900880000     0.2082670000
    3      C       6.5888210000    -4.1242060000    -0.7255060000
    4      C       4.6119060000    -4.4178610000     1.3284790000
    5      C       4.5519530000    -3.3241670000     0.3615690000
    6      C       5.5517970000    -3.2215940000    -0.6343910000
    7      C       3.5939540000    -4.5464520000     2.3657580000
    8      C       2.5802630000    -3.5460450000     2.3445400000
    9      C       2.5447670000    -2.5012980000     1.4009120000
   10      C       3.4966070000    -2.3160260000     0.3707990000
   11      O       3.5829390000    -5.4939300000     3.2611760000
   12      O       3.4510610000    -1.3474710000    -0.4926210000
   13      C       5.8744420000    -6.5206730000     2.1520610000
   14      H       7.4724540000    -5.9103060000     0.1452650000
   15      C       1.5099450000    -3.6448970000     3.4013990000
   16      H       1.7335580000    -1.7717820000     1.4503140000
   17      H       5.4514290000    -2.3873240000    -1.3226580000
   18      H       7.3489910000    -4.0271160000    -1.5003570000
   19      H       6.7750410000    -7.0895280000     1.8728530000
   20      H       5.0031210000    -7.1787350000     2.1342310000
   21      H       5.9519590000    -6.1945640000     3.1913160000
   22      H       1.9393230000    -3.6112550000     4.4143920000
   23      H       0.9785210000    -4.6074110000     3.3483920000
   24      H       0.7792610000    -2.8315790000     3.2998990000
 ----------------------------------------------------------------

   18    -613.8711002216      4.01e-09  Convergence criterion met
 Total energy in the final basis set =     -614.1635461792

                    Orbital Energies (a.u.)
 --------------------------------------------------------------

 Alpha MOs
 -- Occupied --
-19.0242 -19.0211 -10.1842 -10.1834 -10.1830 -10.1731 -10.1693 -10.1674
-10.1657 -10.1656 -10.1626 -10.1560 -10.1462 -10.1396  -0.9363  -0.9329
 -0.8458  -0.7911  -0.7674  -0.7421  -0.6894  -0.6842  -0.6427  -0.5978
 -0.5822  -0.5278  -0.4965  -0.4824  -0.4570  -0.4382  -0.4207  -0.4179
 -0.4101  -0.4007  -0.3912  -0.3784  -0.3735  -0.3706  -0.3604  -0.3501
 -0.3320  -0.3255  -0.3185  -0.3175  -0.2430  -0.2345  -0.2262  -0.2009
 -0.1962  -0.1225

          Ground-State Mulliken Net Atomic Charges

     Atom                 Charge (a.u.)
  ----------------------------------------
      1 C                    -0.617080
      2 C                     1.047017
      3 C                     1.848769
      4 C                    -0.267639
      5 C                    -1.964266
      6 C                    -0.336619
      7 C                    -2.341062
      8 C                     0.139302
      9 C                    -1.488199
     10 C                    -2.147417
     11 O                    -0.271902
     12 O                    -0.384118
     13 C                     1.501083
     14 H                     0.294132
     15 C                     1.343618
     16 H                    -0.085262
     17 H                     0.073701
     18 H                     0.444963
     19 H                     0.321132
     20 H                     0.113444
     21 H                     0.113422
     22 H                     0.183089
     23 H                     0.182797
     24 H                     0.297094
  ----------------------------------------
  Sum of atomic charges =    -2.000000

                    Cartesian Multipole Moments
 -----------------------------------------------------------------
    Charge (ESU x 10^10)
                -9.6064
    Dipole Moment (Debye)
         X     -36.5758      Y      33.5740      Z     -11.4458
       Tot      50.9511
    Quadrupole Moments (Debye-Ang)
        XX    -249.5867     XY     134.3705     YY    -245.4098
        XZ     -36.9851     YZ      63.8434     ZZ    -138.0789

 Total job time:  556.02s(wall), 3560.51s(cpu)
        *  Thank you very much for using Q-Chem.  Have a nice day.  *
