 Gaussian 16, Revision A.03,
 Gaussian 16:  ES64L-G16RevA.03 25-Dec-2016

 ----------------------------------------------------------------------
 #P UB3LYP/6-311++G(d,p) nosym opt freq SCRF=(PCM,Solvent=n,n-DiMethylF
 ormamide)
 ----------------------------------------------------------------------

 -------
 Reduced
 -------
 Symbolic Z-matrix:
 Charge = -2 Multiplicity = 1

 SCF Done:  E(UB3LYP) =  -1279.56295673     A.U. after   20 cycles
 SCF Done:  E(UB3LYP) =  -1279.56166770     A.U. after   18 cycles
 SCF Done:  E(UB3LYP) =  -1279.56442687     A.U. after   15 cycles
 SCF Done:  E(UB3LYP) =  -1279.56499204     A.U. after   18 cycles
 SCF Done:  E(UB3LYP) =  -1279.56526074     A.U. after   18 cycles
 SCF Done:  E(UB3LYP) =  -1279.56575753     A.U. after   18 cycles
 SCF Done:  E(UB3LYP) =  -1279.56565625     A.U. after   18 cycles
 SCF Done:  E(UB3LYP) =  -1279.56623059     A.U. after   15 cycles
 SCF Done:  E(UB3LYP) =  -1279.56644145     A.U. after   15 cycles
 SCF Done:  E(UB3LYP) =  -1279.56648421     A.U. after   14 cycles
 SCF Done:  E(UB3LYP) =  -1279.56662872     A.U. after    5 cycles
 SCF Done:  E(UB3LYP) =  -1279.56632194     A.U. after   14 cycles
 SCF Done:  E(UB3LYP) =  -1279.56661020     A.U. after   13 cycles
 SCF Done:  E(UB3LYP) =  -1279.56662775     A.U. after   12 cycles
 SCF Done:  E(UB3LYP) =  -1279.56662874     A.U. after   11 cycles
 SCF Done:  E(UB3LYP) =  -1279.56662474     A.U. after   12 cycles
 SCF Done:  E(UB3LYP) =  -1279.56662952     A.U. after   12 cycles
 SCF Done:  E(UB3LYP) =  -1279.56663046     A.U. after   12 cycles
 SCF Done:  E(UB3LYP) =  -1279.56662990     A.U. after   12 cycles
 Optimization completed.
    -- Stationary point found.
 Normal termination of Gaussian 16 at Sat Feb 10 20:47:11 2024.

 ----------------------------------------------------------------------
 #P Geom=AllCheck Guess=TCheck SCRF=Check GenChk UB3LYP/6-311++G(d,p) F
 req
 ----------------------------------------------------------------------

 Structure from the checkpoint file:  "071-an.chk"
 -------
 Reduced
 -------
 Charge = -2 Multiplicity = 1

                          Input orientation:
 ---------------------------------------------------------------------
 Center     Atomic      Atomic             Coordinates (Angstroms)
 Number     Number       Type             X           Y           Z
 ---------------------------------------------------------------------
      1          6           0        1.249370    1.600237   -0.501078
      2          6           0        0.084338    1.125342    0.197408
      3          6           0       -0.283610   -0.218464    0.169073
      4          6           0        0.473643   -1.224446   -0.540061
      5          6           0        1.617853   -0.786364   -1.260007
      6          6           0        1.998517    0.588251   -1.179580
      7          8           0        1.604256    2.847573   -0.506857
      8          8           0        0.097094   -2.482941   -0.530399
      9         16           0        3.509445    1.190018   -1.889615
     10          6           0        4.357299    2.183172   -0.622244
     11          6           0        4.883173    3.423450   -0.966789
     12          6           0        4.605410    1.616907    0.625892
     13          6           0        5.370218    2.321234    1.554168
     14          6           0        5.657022    4.117751   -0.036584
     15          6           0        5.897454    3.571367    1.224588
     16          8           0        3.297642    2.078507   -3.067575
     17          8           0        4.451012    0.061515   -2.144518
     18          1           0        4.675661    3.840638   -1.943791
     19          1           0        4.195592    0.645405    0.875957
     20          1           0        6.066371    5.087624   -0.296286
     21          1           0        5.556700    1.892136    2.532210
     22          6           0       -1.529437   -0.676409    0.892049
     23          6           0       -0.734046    2.143505    0.959962
     24          1           0        6.494337    4.115798    1.947550
     25          1           0       -2.349896    0.040217    0.793373
     26          1           0       -1.353237   -0.807262    1.969011
     27          1           0       -1.844073   -1.643731    0.499235
     28          1           0       -1.714410    2.320362    0.497489
     29          1           0       -0.202427    3.095146    0.979304
     30          1           0       -0.928084    1.828503    1.991317
     31          6           0        2.306323   -1.816144   -2.125472
     32          1           0        1.582677   -2.603137   -2.348977
     33          1           0        3.159396   -2.294772   -1.627836
     34          1           0        2.688278   -1.396609   -3.056615
 ---------------------------------------------------------------------

 SCF Done:  E(UB3LYP) =  -1279.56662990     A.U. after    2 cycles

 Alpha  occ. eigenvalues --  -89.02625 -19.09308 -19.08960 -19.02209 -19.00898
 Alpha  occ. eigenvalues --  -10.20135 -10.18308 -10.18295 -10.18122 -10.18066
 Alpha  occ. eigenvalues --  -10.18028 -10.17965 -10.16569 -10.15545 -10.13940
 Alpha  occ. eigenvalues --  -10.13819 -10.13810 -10.13697 -10.13345 -10.13283
 Alpha  occ. eigenvalues --   -8.08999  -6.05296  -6.05187  -6.05056  -1.07870
 Alpha  occ. eigenvalues --   -0.97138  -0.93938  -0.91829  -0.86651  -0.79814
 Alpha  occ. eigenvalues --   -0.77252  -0.75771  -0.75483  -0.70484  -0.69928
 Alpha  occ. eigenvalues --   -0.67044  -0.62859  -0.61370  -0.61118  -0.58437
 Alpha  occ. eigenvalues --   -0.54417  -0.51948  -0.51126  -0.47716  -0.46756
 Alpha  occ. eigenvalues --   -0.46302  -0.44915  -0.44669  -0.43112  -0.42907
 Alpha  occ. eigenvalues --   -0.41060  -0.40488  -0.38776  -0.38354  -0.38126
 Alpha  occ. eigenvalues --   -0.37639  -0.36966  -0.36815  -0.36313  -0.35524
 Alpha  occ. eigenvalues --   -0.35362  -0.34655  -0.33908  -0.32578  -0.31217
 Alpha  occ. eigenvalues --   -0.31133  -0.30623  -0.30017  -0.28671  -0.27248
 Alpha  occ. eigenvalues --   -0.26292  -0.25636  -0.22520  -0.20551  -0.20098
 Alpha  occ. eigenvalues --   -0.18917  -0.12306
 Alpha virt. eigenvalues --   -0.02939  -0.01883  -0.00383   0.00229   0.00547
 Alpha virt. eigenvalues --    0.01165   0.01770   0.02344   0.02872   0.03527
 Alpha virt. eigenvalues --    0.03792   0.04080   0.04352   0.04942   0.05310

  Beta  occ. eigenvalues --  -89.02625 -19.09308 -19.08960 -19.02209 -19.00898
  Beta  occ. eigenvalues --  -10.20135 -10.18308 -10.18295 -10.18122 -10.18066
  Beta  occ. eigenvalues --  -10.18028 -10.17965 -10.16569 -10.15545 -10.13940
  Beta  occ. eigenvalues --  -10.13819 -10.13810 -10.13697 -10.13345 -10.13283
  Beta  occ. eigenvalues --   -8.08999  -6.05296  -6.05187  -6.05056  -1.07870
  Beta  occ. eigenvalues --   -0.97138  -0.93938  -0.91829  -0.86651  -0.79814
  Beta  occ. eigenvalues --   -0.77252  -0.75771  -0.75483  -0.70484  -0.69928
  Beta  occ. eigenvalues --   -0.67044  -0.62859  -0.61370  -0.61118  -0.58437
  Beta  occ. eigenvalues --   -0.54417  -0.51948  -0.51126  -0.47716  -0.46756
  Beta  occ. eigenvalues --   -0.46302  -0.44915  -0.44669  -0.43112  -0.42907
  Beta  occ. eigenvalues --   -0.41060  -0.40488  -0.38776  -0.38354  -0.38126
  Beta  occ. eigenvalues --   -0.37639  -0.36966  -0.36815  -0.36313  -0.35524
  Beta  occ. eigenvalues --   -0.35362  -0.34655  -0.33908  -0.32578  -0.31217
  Beta  occ. eigenvalues --   -0.31133  -0.30623  -0.30017  -0.28671  -0.27248
  Beta  occ. eigenvalues --   -0.26292  -0.25636  -0.22520  -0.20551  -0.20098
  Beta  occ. eigenvalues --   -0.18917  -0.12306
  Beta virt. eigenvalues --   -0.02939  -0.01883  -0.00383   0.00229   0.00547
  Beta virt. eigenvalues --    0.01165   0.01770   0.02344   0.02872   0.03527
  Beta virt. eigenvalues --    0.03792   0.04080   0.04352   0.04942   0.05310

 Mulliken charges and spin densities:
               1          2
     1  C   -0.627379   0.000000
     2  C    0.204560   0.000000
     3  C    0.686371  -0.000000
     4  C   -1.221138   0.000000
     5  C    0.797676  -0.000000
     6  C   -0.053249   0.000000
     7  O   -0.516961  -0.000000
     8  O   -0.697221  -0.000000
     9  S    0.394204  -0.000000
    10  C    0.250757   0.000000
    11  C    0.220412  -0.000000
    12  C   -0.391891  -0.000000
    13  C   -0.459008  -0.000000
    14  C   -0.353714   0.000000
    15  C   -0.360900  -0.000000
    16  O   -0.291805  -0.000000
    17  O   -0.263749  -0.000000
    18  H    0.233624   0.000000
    19  H    0.211720  -0.000000
    20  H    0.204070  -0.000000
    21  H    0.214046   0.000000
    22  C   -0.550840  -0.000000
    23  C   -0.598477   0.000000
    24  H    0.183681  -0.000000
    25  H    0.135144  -0.000000
    26  H    0.151972  -0.000000
    27  H    0.166848   0.000000
    28  H    0.144641   0.000000
    29  H    0.165445  -0.000000
    30  H    0.143864   0.000000
    31  C   -0.595753  -0.000000
    32  H    0.145207  -0.000000
    33  H    0.164943   0.000000
    34  H    0.162900  -0.000000
 Sum of Mulliken charges =  -2.00000   0.00000

 Dipole moment (field-independent basis, Debye):
    X=            -14.7165    Y=             -1.0149    Z=             12.8673  Tot=             19.5748
 Quadrupole moment (field-independent basis, Debye-Ang):
   XX=           -179.6894   YY=           -184.5190   ZZ=           -158.8421
   XY=            -11.1785   XZ=             40.8030   YZ=              9.3659

  Exact polarizability: 341.520  47.357 370.941 -33.722  17.076 295.617
 Approx polarizability: 354.410  36.341 422.746 -35.528   8.537 336.766

                      1                      2                      3
                      A                      A                      A
 Frequencies --     31.4643                36.5122                47.9938
 Red. masses --      3.9770                 6.0620                 4.2960
 Frc consts  --      0.0023                 0.0048                 0.0058
 IR Inten    --      0.5737                 2.4922                 3.3959

                      4                      5                      6
                      A                      A                      A
 Frequencies --     86.3419                95.1241               112.6268
 Red. masses --      1.2427                 3.0384                 2.6355
 Frc consts  --      0.0055                 0.0162                 0.0197
 IR Inten    --      0.5985                 0.1955                16.2023

                      7                      8                      9
                      A                      A                      A
 Frequencies --    145.9048               153.9863               161.9477
 Red. masses --      2.7269                 1.4235                 1.7963
 Frc consts  --      0.0342                 0.0199                 0.0278
 IR Inten    --      5.4406                 9.3109                 0.3617

                     10                     11                     12
                      A                      A                      A
 Frequencies --    177.5333               189.3619               199.3969
 Red. masses --      4.8776                 2.2121                 5.1545
 Frc consts  --      0.0906                 0.0467                 0.1207
 IR Inten    --      5.8343                 7.1919                10.4363

                     13                     14                     15
                      A                      A                      A
 Frequencies --    228.1367               252.1023               267.5041
 Red. masses --      5.4779                 5.8674                 9.2398
 Frc consts  --      0.1680                 0.2197                 0.3896
 IR Inten    --      2.7323                 5.0509                 4.6874

                     16                     17                     18
                      A                      A                      A
 Frequencies --    303.2260               324.3441               326.3423
 Red. masses --      5.6071                 3.9522                 4.0051
 Frc consts  --      0.3038                 0.2450                 0.2513
 IR Inten    --      4.5776                18.6779                 4.5927

                     19                     20                     21
                      A                      A                      A
 Frequencies --    339.6932               356.8017               364.6537
 Red. masses --      2.5096                 3.9381                 7.5677
 Frc consts  --      0.1706                 0.2954                 0.5929
 IR Inten    --      8.9997                 3.1208                 3.0372

                     22                     23                     24
                      A                      A                      A
 Frequencies --    383.8205               411.3594               415.4206
 Red. masses --      6.0999                 3.3159                 5.5454
 Frc consts  --      0.5295                 0.3306                 0.5638
 IR Inten    --     26.2984                 2.8259                 0.7946

                     25                     26                     27
                      A                      A                      A
 Frequencies --    448.4804               481.2859               506.7949
 Red. masses --      5.8506                 5.5764                 6.4138
 Frc consts  --      0.6933                 0.7610                 0.9706
 IR Inten    --     21.9531                27.9933                13.5664

                     28                     29                     30
                      A                      A                      A
 Frequencies --    517.3493               549.2903               568.6284
 Red. masses --      7.6204                 5.7763                 6.3608
 Frc consts  --      1.2017                 1.0268                 1.2118
 IR Inten    --     76.0944                84.0431                88.8652

                     31                     32                     33
                      A                      A                      A
 Frequencies --    594.7558               627.2114               684.4424
 Red. masses --      6.4814                 6.4610                 3.6162
 Frc consts  --      1.3508                 1.4975                 0.9981
 IR Inten    --    309.2459                 3.5642                11.4508

                     34                     35                     36
                      A                      A                      A
 Frequencies --    699.3873               707.4465               715.6858
 Red. masses --      2.5240                 5.0885                 5.6545
 Frc consts  --      0.7274                 1.5005                 1.7064
 IR Inten    --     57.6156                29.4874                73.9606

                     37                     38                     39
                      A                      A                      A
 Frequencies --    754.2953               757.1989               780.8950
 Red. masses --      6.0598                 1.6538                 5.6022
 Frc consts  --      2.0314                 0.5587                 2.0128
 IR Inten    --      4.7695                79.9518                48.8098

                     40                     41                     42
                      A                      A                      A
 Frequencies --    853.5698               884.3255               932.0257
 Red. masses --      1.2505                 2.3941                 1.3556
 Frc consts  --      0.5368                 1.1031                 0.6938
 IR Inten    --      0.0932                18.9731                 0.9655

                     43                     44                     45
                      A                      A                      A
 Frequencies --    941.6228               991.9981               997.8969
 Red. masses --      2.2925                 1.3885                 3.6895
 Frc consts  --      1.1976                 0.8050                 2.1647
 IR Inten    --     27.5740                 3.7675               228.3639

                     46                     47                     48
                      A                      A                      A
 Frequencies --   1007.8606              1012.3210              1017.4654
 Red. masses --      1.3072                 4.1798                 3.2868
 Frc consts  --      0.7823                 2.5237                 2.0047
 IR Inten    --      0.0663                49.6388               313.9027

                     49                     50                     51
                      A                      A                      A
 Frequencies --   1027.1697              1031.9716              1042.4259
 Red. masses --      1.5205                 2.4816                 2.2272
 Frc consts  --      0.9452                 1.5571                 1.4259
 IR Inten    --     36.3479                65.4681                62.8628

                     52                     53                     54
                      A                      A                      A
 Frequencies --   1043.5032              1056.2527              1091.3179
 Red. masses --      1.5918                 1.5404                 2.5375
 Frc consts  --      1.0212                 1.0125                 1.7805
 IR Inten    --      4.9493                 5.6756               167.6254

                     55                     56                     57
                      A                      A                      A
 Frequencies --   1092.3798              1097.6978              1131.6930
 Red. masses --      1.6916                 2.8414                 5.7295
 Frc consts  --      1.1893                 2.0172                 4.3234
 IR Inten    --     32.9126                69.8697                65.9535

                     58                     59                     60
                      A                      A                      A
 Frequencies --   1137.9566              1174.9110              1189.8581
 Red. masses --     12.6650                 1.1141                 1.1523
 Frc consts  --      9.6629                 0.9062                 0.9612
 IR Inten    --    351.2709                 0.3288                 5.3878

                     61                     62                     63
                      A                      A                      A
 Frequencies --   1211.7465              1257.3895              1323.2998
 Red. masses --      6.4876                 5.1277                 3.0830
 Frc consts  --      5.6125                 4.7766                 3.1808
 IR Inten    --    238.4153               191.4659                 3.4362

                     64                     65                     66
                      A                      A                      A
 Frequencies --   1338.6896              1341.6148              1356.1016
 Red. masses --      1.7914                 4.2041                 2.7047
 Frc consts  --      1.8915                 4.4584                 2.9306
 IR Inten    --     10.0071                54.1492               916.5266

                     67                     68                     69
                      A                      A                      A
 Frequencies --   1381.0877              1383.8370              1404.4763
 Red. masses --      1.3154                 1.5704                 1.7690
 Frc consts  --      1.4782                 1.7718                 2.0559
 IR Inten    --     59.6067                79.8759               481.2336

                     70                     71                     72
                      A                      A                      A
 Frequencies --   1434.9767              1446.0573              1456.3718
 Red. masses --      3.6901                 1.4000                 1.1579
 Frc consts  --      4.4770                 1.7248                 1.4470
 IR Inten    --    315.7439                53.2984                62.5573

                     73                     74                     75
                      A                      A                      A
 Frequencies --   1470.1641              1470.9136              1485.3005
 Red. masses --      1.0847                 2.1055                 1.0949
 Frc consts  --      1.3812                 2.6839                 1.4231
 IR Inten    --      7.4744                25.8524                56.1339

                     76                     77                     78
                      A                      A                      A
 Frequencies --   1490.1688              1496.8901              1504.2805
 Red. masses --      1.3708                 1.4000                 1.3998
 Frc consts  --      1.7935                 1.8483                 1.8663
 IR Inten    --      1.4990                23.5868                24.0959

                     79                     80                     81
                      A                      A                      A
 Frequencies --   1505.1353              1583.9848              1617.9651
 Red. masses --      1.8539                 6.6834                 5.4519
 Frc consts  --      2.4746                 9.8799                 8.4088
 IR Inten    --     16.2949                21.6836                 7.9055

                     82                     83                     84
                      A                      A                      A
 Frequencies --   1621.6801              2984.7764              2986.6415
 Red. masses --      5.9343                 1.0549                 1.0480
 Frc consts  --      9.1950                 5.5372                 5.5080
 IR Inten    --      1.6380               143.0047               167.9388

                     85                     86                     87
                      A                      A                      A
 Frequencies --   2992.4650              3028.7412              3047.6552
 Red. masses --      1.0542                 1.0910                 1.0812
 Frc consts  --      5.5621                 5.8967                 5.9169
 IR Inten    --    113.6205                77.9078                69.4503

                     88                     89                     90
                      A                      A                      A
 Frequencies --   3055.0656              3101.5180              3102.5278
 Red. masses --      1.0785                 1.1014                 1.0953
 Frc consts  --      5.9307                 6.2420                 6.2116
 IR Inten    --     72.7497                33.4811                19.8601

                     91                     92                     93
                      A                      A                      A
 Frequencies --   3107.4541              3165.2313              3173.5266
 Red. masses --      1.0972                 1.0858                 1.0889
 Frc consts  --      6.2424                 6.4094                 6.4613
 IR Inten    --     17.1739                 0.4058                15.2909

                     94                     95                     96
                      A                      A                      A
 Frequencies --   3183.2341              3190.7747              3201.8027
 Red. masses --      1.0925                 1.0965                 1.0933
 Frc consts  --      6.5226                 6.5772                 6.6034
 IR Inten    --     21.2659                21.0421                11.5387

 - Thermochemistry -
 -------------------
 Temperature   298.150 Kelvin.  Pressure   1.00000 Atm.
 Atom     1 has atomic number  6 and mass  12.00000

 Molecular mass:   290.06128 amu.
 Principal axes and moments of inertia in atomic units:
                           1         2         3
     Eigenvalues --  3357.662357772.232169169.93252
           X            0.82118  -0.40057   0.40646
           Y            0.57057   0.58974  -0.57155
           Z           -0.01076   0.70126   0.71283
 This molecule is an asymmetric top.
 Rotational symmetry number  1.
 Warning -- assumption of classical behavior for rotation
           may cause significant error
 Rotational temperatures (Kelvin)      0.02580     0.01114     0.00945
 Rotational constants (GHZ):           0.53750     0.23220     0.19681
 Zero-point vibrational energy     666705.9 (Joules/Mol)
                                  159.34652 (Kcal/Mol)
 Warning -- explicit consideration of  31 degrees of freedom as
           vibrations may cause significant error
 Vibrational temperatures:     45.27    52.53    69.05   124.23   136.86
          (Kelvin)            162.04   209.92   221.55   233.01   255.43
                              272.45   286.89   328.24   362.72   384.88
                              436.27   466.66   469.53   488.74   513.36
                              524.66   552.23   591.85   597.70   645.26
                              692.46   729.16   744.35   790.31   818.13
                              855.72   902.42   984.76  1006.26  1017.86
                             1029.71  1085.26  1089.44  1123.53  1228.10
                             1272.35  1340.98  1354.79  1427.26  1435.75
                             1450.09  1456.50  1463.91  1477.87  1484.78
                             1499.82  1501.37  1519.71  1570.16  1571.69
                             1579.34  1628.25  1637.27  1690.43  1711.94
                             1743.43  1809.10  1903.93  1926.08  1930.28
                             1951.13  1987.08  1991.03  2020.73  2064.61
                             2080.55  2095.39  2115.24  2116.32  2137.02
                             2144.02  2153.69  2164.32  2165.55  2279.00
                             2327.89  2333.24  4294.43  4297.11  4305.49
                             4357.68  4384.90  4395.56  4462.39  4463.85
                             4470.93  4554.06  4566.00  4579.96  4590.81
                             4606.68

 Zero-point correction=                           0.253935 (Hartree/Particle)
 Thermal correction to Energy=                    0.273047
 Thermal correction to Enthalpy=                  0.273991
 Thermal correction to Gibbs Free Energy=         0.206426
 Sum of electronic and zero-point Energies=          -1279.312695
 Sum of electronic and thermal Energies=             -1279.293583
 Sum of electronic and thermal Enthalpies=           -1279.292639
 Sum of electronic and thermal Free Energies=        -1279.360204

                     E (Thermal)             CV                S
                      KCal/Mol        Cal/Mol-Kelvin    Cal/Mol-Kelvin
 Total                  171.340             72.617            142.202
 Electronic               0.000              0.000              0.000
 Translational            0.889              2.981             42.892
 Rotational               0.889              2.981             33.836
 Vibrational            169.562             66.656             65.474
 Vibration     1          0.594              1.983              5.735
 Vibration     2          0.594              1.982              5.440
 Vibration     3          0.595              1.978              4.898
 Vibration     4          0.601              1.959              3.741
 Vibration     5          0.603              1.953              3.552
 Vibration     6          0.607              1.939              3.223
 Vibration     7          0.617              1.907              2.725
 Vibration     8          0.620              1.898              2.622
 Vibration     9          0.622              1.889              2.527
 Vibration    10          0.628              1.870              2.354
 Vibration    11          0.633              1.855              2.234
 Vibration    12          0.638              1.841              2.139
 Vibration    13          0.651              1.798              1.894
 Vibration    14          0.664              1.759              1.716
 Vibration    15          0.673              1.733              1.612
 Vibration    16          0.695              1.668              1.399
 Vibration    17          0.709              1.627              1.288
 Vibration    18          0.710              1.623              1.278
 Vibration    19          0.720              1.596              1.214
 Vibration    20          0.732              1.561              1.136
 Vibration    21          0.738              1.545              1.102
 Vibration    22          0.753              1.505              1.024
 Vibration    23          0.775              1.446              0.922
 Vibration    24          0.779              1.437              0.908
 Vibration    25          0.807              1.364              0.800
 Vibration    26          0.838              1.292              0.707
 Vibration    27          0.862              1.235              0.641
 Vibration    28          0.872              1.212              0.616
 Vibration    29          0.905              1.141              0.546
 Vibration    30          0.925              1.099              0.507
 Vibration    31          0.952              1.043              0.459

                           ! Non-Optimized Parameters !
 Normal termination of Gaussian 16 at Sat Feb 10 23:27:01 2024.
