 Q-Chem 5.4, Q-Chem, Inc., Pleasanton, CA (2021)
 Q-Chem 5.4.0 for Intel X86 EM64T Linux

User input:
--------------------------------------------------------------
$molecule
-2 1
C                 -1.7894770000      2.7982670000     -0.7363230000
C                 -2.9009600000      2.0042240000     -0.5225050000
C                 -2.7325970000      0.6324350000     -0.1747330000
C                 -0.4640430000      2.3129230000     -0.6147360000
C                 -0.3026750000      0.9276690000     -0.1858950000
C                 -1.4601330000      0.1204860000     -0.0179900000
C                  0.6542900000      3.2037620000     -0.8905600000
C                  2.0312630000      2.6358990000     -0.7068030000
C                  2.1038900000      1.2704800000     -0.2576470000
C                  1.0063570000      0.4600130000      0.0007470000
O                  0.4809500000      4.4025170000     -1.2668260000
O                  3.0770330000      3.3242810000     -0.9149960000
H                 -1.8945500000      3.8422480000     -1.0177260000
H                 -3.9022210000      2.4164650000     -0.6363130000
H                 -3.6019980000     -0.0099800000     -0.0404550000
H                 -1.3203490000     -0.9231660000      0.2497970000
H                  3.1069780000      0.8878200000     -0.0640540000
O                  1.1898400000     -0.8734060000      0.4265620000
H                  2.0003500000     -1.1945670000      0.0058920000
$end
$rem
MAX_SCF_CYCLES=200
BASIS  =  6-311++G(d,p)
GUI  =  2
JOB_TYPE  =  SP
METHOD  =  B3LYP
SOLVENT_METHOD = PCM
$end
$pcm
theory = CPCM
$end
$solvent
dielectric 37.219
opticaldielectric 1.43
$end

--------------------------------------------------------------

             Standard Nuclear Orientation (Angstroms)
    I     Atom           X                Y                Z
 ----------------------------------------------------------------
    1      C      -1.7894770000     2.7982670000    -0.7363230000
    2      C      -2.9009600000     2.0042240000    -0.5225050000
    3      C      -2.7325970000     0.6324350000    -0.1747330000
    4      C      -0.4640430000     2.3129230000    -0.6147360000
    5      C      -0.3026750000     0.9276690000    -0.1858950000
    6      C      -1.4601330000     0.1204860000    -0.0179900000
    7      C       0.6542900000     3.2037620000    -0.8905600000
    8      C       2.0312630000     2.6358990000    -0.7068030000
    9      C       2.1038900000     1.2704800000    -0.2576470000
   10      C       1.0063570000     0.4600130000     0.0007470000
   11      O       0.4809500000     4.4025170000    -1.2668260000
   12      O       3.0770330000     3.3242810000    -0.9149960000
   13      H      -1.8945500000     3.8422480000    -1.0177260000
   14      H      -3.9022210000     2.4164650000    -0.6363130000
   15      H      -3.6019980000    -0.0099800000    -0.0404550000
   16      H      -1.3203490000    -0.9231660000     0.2497970000
   17      H       3.1069780000     0.8878200000    -0.0640540000
   18      O       1.1898400000    -0.8734060000     0.4265620000
   19      H       2.0003500000    -1.1945670000     0.0058920000
 ----------------------------------------------------------------

    9    -610.7633754957      6.42e-06  Convergence criterion met
 Total energy in the final basis set =     -610.7633754957

                    Orbital Energies (a.u.)
 --------------------------------------------------------------

 Alpha MOs
 -- Occupied --
-19.1233 -19.0243 -19.0214 -10.1853 -10.1724 -10.1676 -10.1492 -10.1451
-10.1445 -10.1427 -10.1410 -10.1327 -10.1250  -1.0214  -0.9566  -0.9297
 -0.8260  -0.7642  -0.7238  -0.6923  -0.6433  -0.5885  -0.5604  -0.5496
 -0.4930  -0.4769  -0.4672  -0.4195  -0.4123  -0.3990  -0.3920  -0.3849
 -0.3710  -0.3613  -0.3505  -0.3392  -0.3315  -0.3145  -0.3072  -0.2894
 -0.2522  -0.2291  -0.2162  -0.1879  -0.1858  -0.1109

          Ground-State Mulliken Net Atomic Charges

     Atom                 Charge (a.u.)
  ----------------------------------------
      1 C                     0.061453
      2 C                    -0.425141
      3 C                    -0.388695
      4 C                     0.126212
      5 C                    -0.079744
      6 C                     0.064315
      7 C                    -0.354520
      8 C                    -0.140221
      9 C                     0.350580
     10 C                    -0.475251
     11 O                    -0.710864
     12 O                    -0.714597
     13 H                     0.135973
     14 H                     0.167232
     15 H                     0.169157
     16 H                     0.160315
     17 H                     0.142482
     18 O                    -0.387718
     19 H                     0.299033
  ----------------------------------------
  Sum of atomic charges =    -2.000000

                    Cartesian Multipole Moments
 -----------------------------------------------------------------
    Charge (ESU x 10^10)
                -9.6064
    Dipole Moment (Debye)
         X      -9.4537      Y     -29.7797      Z       7.2015
       Tot      32.0634
    Quadrupole Moments (Debye-Ang)
        XX    -119.4586     XY     -43.0938     YY    -195.4731
        XZ      10.2123     YZ      32.4748     ZZ     -95.7772

 Total job time:  27.24s(wall), 150.34s(cpu)
        *  Thank you very much for using Q-Chem.  Have a nice day.  *
