 Q-Chem 5.4, Q-Chem, Inc., Pleasanton, CA (2021)
 Q-Chem 5.4.0 for Intel X86 EM64T Linux

User input:
--------------------------------------------------------------
$molecule
-2 1
C                  4.9835460000     -2.5049780000      0.2006080000
C                  5.6807970000     -1.6654050000     -0.6486890000
C                  4.9619140000     -0.7990650000     -1.5116530000
C                  3.5719880000     -2.5289260000      0.2383430000
C                  2.8397560000     -1.6503950000     -0.6355910000
C                  3.5817190000     -0.8012100000     -1.4958280000
C                  2.9014290000     -3.4430900000      1.1627750000
C                  1.4417800000     -3.3878330000      1.1226390000
C                  0.7238390000     -2.4890570000      0.2268880000
C                  1.3810850000     -1.5949030000     -0.6754630000
C                  0.7118630000     -4.2236340000      1.9722870000
C                 -0.7029910000     -2.5278930000      0.2752120000
C                 -1.3981950000     -3.3558850000      1.1145350000
O                  3.5517800000     -4.2135330000      1.9303120000
O                  0.7638610000     -0.7964380000     -1.4706990000
H                  5.4988040000     -3.1818340000      0.8750460000
H                 -2.4817260000     -3.3522140000      1.1215060000
H                  3.0024890000     -0.1505780000     -2.1432220000
H                  1.2708940000     -4.8810080000      2.6284200000
H                 -1.2232910000     -1.8551070000     -0.3992720000
C                 -0.6900940000     -4.2430040000      2.0075890000
H                  5.4996510000     -0.1337200000     -2.1851840000
C                 -1.3587560000     -5.1443860000      2.9160920000
O                 -0.8671160000     -5.9241640000      3.7306060000
O                 -2.7569010000     -5.0847370000      2.7977330000
C                 -3.4766310000     -5.8790230000      3.7241440000
H                 -4.5317770000     -5.7764210000      3.4577420000
H                 -3.3264140000     -5.5374340000      4.7568160000
H                 -3.1801480000     -6.9305000000      3.6723810000
H                  6.7688060000     -1.6685680000     -0.6563120000
$end
$rem
MAX_SCF_CYCLES=200
BASIS  =  6-311++G(d,p)
GUI  =  2
JOB_TYPE  =  SP
METHOD  =  B3LYP
SOLVENT_METHOD = COSMO
$end
$solvent
dielectric 37.219
opticaldielectric 1.43
$end

--------------------------------------------------------------

             Standard Nuclear Orientation (Angstroms)
    I     Atom           X                Y                Z
 ----------------------------------------------------------------
    1      C       3.5400133871    -1.6913978435    -0.0021321001
    2      C       4.8427023206    -1.2273484044     0.0004821288
    3      C       5.0807625662     0.1709945560     0.0034676104
    4      C       2.4323578255    -0.8152744253    -0.0015514546
    5      C       2.6707546848     0.6041949475     0.0022817131
    6      C       4.0170070804     1.0505494653     0.0043029714
    7      C       1.0818660584    -1.3774891642    -0.0040590829
    8      C       0.0089870264    -0.3854371636    -0.0023713289
    9      C       0.2774839598     1.0475695336     0.0005670845
   10      C       1.5986076810     1.5956014423     0.0043284404
   11      C      -1.3171466114    -0.8265872813    -0.0022678998
   12      C      -0.8534345423     1.9197528309    -0.0020654453
   13      C      -2.1447466072     1.4660418635    -0.0034658744
   14      O       0.8785576256    -2.6282134472    -0.0065760109
   15      O       1.8526335155     2.8551145393     0.0074512810
   16      H       3.3184415861    -2.7541260721    -0.0046052287
   17      H      -2.9749305139     2.1623864597    -0.0028467288
   18      H       4.1653843702     2.1256896334     0.0067894220
   19      H      -1.4880345409    -1.8970836631    -0.0035171633
   20      H      -0.6375297404     2.9835510462    -0.0025468098
   21      C      -2.4142773025     0.0471428570    -0.0000884776
   22      H       6.1020050252     0.5485527768     0.0051071032
   23      C      -3.7502212441    -0.5007698954    -0.0047233400
   24      O      -4.1007597203    -1.6796651810     0.0181973365
   25      O      -4.7380311872     0.4962857421    -0.0546018846
   26      C      -6.0730677791     0.0295832485     0.0290936605
   27      H      -6.7109928971     0.9088648353    -0.0923382642
   28      H      -6.2804137274    -0.4400811478     0.9997030898
   29      H      -6.2958624492    -0.7027355138    -0.7520959607
   30      H       5.6768399971    -1.9259509816    -0.0002068680
 ----------------------------------------------------------------

   19    -916.8977441253      6.53e-06  Convergence criterion met
 Total energy in the final basis set =     -916.8977441253
    6    -917.1616842686      5.53e-06  Convergence criterion met
 Total energy in the final basis set =     -917.1616842686

                    Orbital Energies (a.u.)
 --------------------------------------------------------------

 Alpha MOs
 -- Occupied --
-19.1497 -19.0982 -19.0470 -19.0288 -10.2863 -10.2073 -10.2009 -10.1824
-10.1659 -10.1641 -10.1595 -10.1569 -10.1560 -10.1537 -10.1528 -10.1518
-10.1507 -10.1500 -10.1495 -10.1406  -1.0832  -1.0001  -0.9709  -0.9480
 -0.8397  -0.8327  -0.7700  -0.7403  -0.7323  -0.7294  -0.6989  -0.6504
 -0.6259  -0.6035  -0.5730  -0.5562  -0.5379  -0.5222  -0.5095  -0.4746
 -0.4687  -0.4668  -0.4470  -0.4396  -0.4320  -0.4206  -0.4093  -0.4064
 -0.3977  -0.3884  -0.3869  -0.3852  -0.3796  -0.3657  -0.3489  -0.3448
 -0.3431  -0.3323  -0.3231  -0.3113  -0.3093  -0.2955  -0.2756  -0.2449
 -0.2405  -0.2348  -0.2274  -0.2219  -0.2080  -0.1193

          Ground-State Mulliken Net Atomic Charges

     Atom                 Charge (a.u.)
  ----------------------------------------
      1 C                     0.012071
      2 C                    -0.510776
      3 C                    -0.492446
      4 C                     0.438173
      5 C                     0.351811
      6 C                    -0.037087
      7 C                    -0.560598
      8 C                     0.240424
      9 C                     0.219002
     10 C                    -0.637929
     11 C                    -0.025706
     12 C                    -0.208317
     13 C                    -0.650266
     14 O                    -0.601085
     15 O                    -0.690412
     16 H                     0.162333
     17 H                     0.191843
     18 H                     0.164626
     19 H                     0.154988
     20 H                     0.162387
     21 C                     0.118819
     22 H                     0.189294
     23 C                     0.170340
     24 O                    -0.424972
     25 O                    -0.187670
     26 C                    -0.260125
     27 H                     0.163975
     28 H                     0.181517
     29 H                     0.177312
     30 H                     0.188474
  ----------------------------------------
  Sum of atomic charges =    -2.000000

                    Cartesian Multipole Moments
 -----------------------------------------------------------------
    Charge (ESU x 10^10)
                -9.6064
    Dipole Moment (Debye)
         X      -5.8571      Y      -0.0970      Z       0.0757
       Tot       5.8584
    Quadrupole Moments (Debye-Ang)
        XX    -157.4672     XY     -21.4412     YY    -180.1778
        XZ      -0.5156     YZ       0.1008     ZZ    -126.2468

 Total job time:  117.32s(wall), 902.74s(cpu)
        *  Thank you very much for using Q-Chem.  Have a nice day.  *
