 Gaussian 16, Revision A.03,
 Gaussian 16:  ES64L-G16RevA.03 25-Dec-2016

 ----------------------------------------------------------------
 #P UB3LYP/6-311++G(d,p) SCRF=(PCM,Solvent=n,n-DiMethylFormamide)
 ----------------------------------------------------------------

 -------
 Reduced
 -------
 Symbolic Z-matrix:
 Charge = -2 Multiplicity = 1

                         Standard orientation:
 ---------------------------------------------------------------------
 Center     Atomic      Atomic             Coordinates (Angstroms)
 Number     Number       Type             X           Y           Z
 ---------------------------------------------------------------------
      1          7           0        3.747444    1.560034    0.189566
      2          6           0        3.121345    0.307645    0.057735
      3          6           0        3.881849   -0.852338   -0.004721
      4          6           0        3.257090   -2.124161   -0.062789
      5          6           0        1.884934   -2.218580   -0.047142
      6          6           0        1.059937   -1.061701   -0.001818
      7          6           0       -0.382340   -1.277172   -0.018226
      8          8           0       -0.865394   -2.459048   -0.051278
      9          6           0       -1.186015   -0.068910   -0.003458
     10          6           0       -2.611970   -0.039120    0.005940
     11         17           0       -3.601612   -1.543928    0.066654
     12          6           0       -3.372020    1.109817   -0.015012
     13          6           0       -2.722998    2.375049   -0.046607
     14          6           0       -1.351421    2.425753   -0.044993
     15          6           0       -0.545500    1.256137   -0.016458
     16          6           0        0.877401    1.444014   -0.007831
     17          8           0        1.392155    2.650094   -0.050835
     18          6           0        1.676693    0.245867    0.032348
     19          1           0        4.596165    1.638507   -0.355200
     20          1           0        3.037292    2.304109    0.028255
     21          1           0        4.967689   -0.771040    0.034644
     22          1           0        3.871495   -3.022605   -0.106457
     23          1           0        1.372895   -3.173552   -0.077895
     24          1           0       -4.453451    1.035775   -0.001354
     25          1           0       -3.318583    3.285547   -0.065023
     26          1           0       -0.814207    3.367635   -0.061953
 ---------------------------------------------------------------------

 SCF Done:  E(UB3LYP) =  -1204.18470877     A.U. after   18 cycles

 The electronic state is 1-A.
 Alpha  occ. eigenvalues -- -101.52852 -19.02599 -19.01760 -14.27756 -10.21457
 Alpha  occ. eigenvalues --  -10.18874 -10.18163 -10.17905 -10.15606 -10.15299
 Alpha  occ. eigenvalues --  -10.15295 -10.14791 -10.14712 -10.14400 -10.14258
 Alpha  occ. eigenvalues --  -10.13793 -10.13757 -10.13371  -9.44322  -7.20748
 Alpha  occ. eigenvalues --   -7.19857  -7.19758  -0.94468  -0.94097  -0.88066
 Alpha  occ. eigenvalues --   -0.85701  -0.81249  -0.80117  -0.75454  -0.71285
 Alpha  occ. eigenvalues --   -0.71032  -0.69985  -0.63909  -0.60820  -0.59850
 Alpha  occ. eigenvalues --   -0.55068  -0.52313  -0.51971  -0.49849  -0.46852
 Alpha  occ. eigenvalues --   -0.44803  -0.44297  -0.44022  -0.42003  -0.41002
 Alpha  occ. eigenvalues --   -0.40287  -0.39016  -0.38257  -0.37160  -0.36388
 Alpha  occ. eigenvalues --   -0.36068  -0.35514  -0.33236  -0.33153  -0.32550
 Alpha  occ. eigenvalues --   -0.32166  -0.31092  -0.29959  -0.29437  -0.27973
 Alpha  occ. eigenvalues --   -0.23077  -0.22521  -0.21920  -0.20763  -0.19267
 Alpha  occ. eigenvalues --   -0.18730  -0.10788
 Alpha virt. eigenvalues --   -0.02561  -0.00229   0.00140   0.00789   0.01223
 Alpha virt. eigenvalues --    0.01861   0.02299   0.02555   0.03376   0.04454
 Alpha virt. eigenvalues --    0.04700   0.04903   0.05641   0.06046   0.06788

  Beta  occ. eigenvalues -- -101.52852 -19.02599 -19.01760 -14.27756 -10.21457
  Beta  occ. eigenvalues --  -10.18874 -10.18163 -10.17905 -10.15606 -10.15299
  Beta  occ. eigenvalues --  -10.15295 -10.14791 -10.14712 -10.14400 -10.14258
  Beta  occ. eigenvalues --  -10.13793 -10.13757 -10.13371  -9.44322  -7.20748
  Beta  occ. eigenvalues --   -7.19857  -7.19758  -0.94468  -0.94097  -0.88066
  Beta  occ. eigenvalues --   -0.85701  -0.81249  -0.80117  -0.75454  -0.71285
  Beta  occ. eigenvalues --   -0.71032  -0.69985  -0.63909  -0.60820  -0.59850
  Beta  occ. eigenvalues --   -0.55068  -0.52313  -0.51971  -0.49849  -0.46852
  Beta  occ. eigenvalues --   -0.44803  -0.44297  -0.44022  -0.42003  -0.41002
  Beta  occ. eigenvalues --   -0.40287  -0.39016  -0.38257  -0.37160  -0.36388
  Beta  occ. eigenvalues --   -0.36068  -0.35514  -0.33236  -0.33153  -0.32550
  Beta  occ. eigenvalues --   -0.32166  -0.31092  -0.29959  -0.29437  -0.27973
  Beta  occ. eigenvalues --   -0.23077  -0.22521  -0.21920  -0.20763  -0.19267
  Beta  occ. eigenvalues --   -0.18730  -0.10788
  Beta virt. eigenvalues --   -0.02561  -0.00229   0.00140   0.00789   0.01223
  Beta virt. eigenvalues --    0.01861   0.02299   0.02555   0.03376   0.04454
  Beta virt. eigenvalues --    0.04700   0.04903   0.05641   0.06046   0.06788

 Mulliken charges and spin densities:
               1          2
     1  N   -0.459290   0.000000
     2  C   -0.056027  -0.000000
     3  C   -0.257157   0.000000
     4  C   -0.497396   0.000000
     5  C   -0.074544  -0.000000
     6  C    0.369496   0.000000
     7  C   -1.489549  -0.000000
     8  O   -0.524785  -0.000000
     9  C   -0.234371  -0.000000
    10  C    0.892618   0.000000
    11  Cl   0.289452   0.000000
    12  C   -0.130566   0.000000
    13  C   -0.716567  -0.000000
    14  C    0.372948   0.000000
    15  C    0.301420   0.000000
    16  C   -0.892377  -0.000000
    17  O   -0.614762   0.000000
    18  C    0.224178  -0.000000
    19  H    0.240988  -0.000000
    20  H    0.316292   0.000000
    21  H    0.144126   0.000000
    22  H    0.157933  -0.000000
    23  H    0.143592  -0.000000
    24  H    0.174107   0.000000
    25  H    0.159491  -0.000000
    26  H    0.160749   0.000000
 Sum of Mulliken charges =  -2.00000   0.00000

 Dipole moment (field-independent basis, Debye):
    X=             -0.3137    Y=              1.8798    Z=             -1.0176  Tot=              2.1605
 Quadrupole moment (field-independent basis, Debye-Ang):
   XX=           -151.8849   YY=           -165.6569   ZZ=           -124.9715
   XY=            -17.3005   XZ=             -5.4567   YZ=             -2.2492

 Normal termination of Gaussian 16 at Sun Jan 14 01:27:44 2024.
