 Gaussian 16, Revision A.03,
 Gaussian 16:  ES64L-G16RevA.03 25-Dec-2016

 ----------------------------------------------------------------
 #P UB3LYP/6-311++G(d,p) SCRF=(PCM,Solvent=n,n-DiMethylFormamide)
 ----------------------------------------------------------------

 ------------------
 Quinone PCM in DMF
 ------------------
 Symbolic Z-matrix:
 Charge =  0 Multiplicity = 1

                         Standard orientation:
 ---------------------------------------------------------------------
 Center     Atomic      Atomic             Coordinates (Angstroms)
 Number     Number       Type             X           Y           Z
 ---------------------------------------------------------------------
      1          6           0        0.780762    1.198780   -0.000095
      2          6           0       -0.701791    1.217700   -0.000044
      3          6           0       -1.488898    0.126526   -0.000071
      4          6           0       -0.780787   -1.198705   -0.000084
      5          6           0        0.701770   -1.217636   -0.000265
      6          6           0        1.488900   -0.126477   -0.000101
      7          8           0        1.379724    2.264684   -0.000077
      8          8           0       -1.379773   -2.264597    0.000084
      9          6           0        3.018578   -0.178502    0.000014
     10          6           0        3.564188    0.525699   -1.267657
     11          6           0        3.563792    0.525639    1.267921
     12          6           0        3.530741   -1.630575    0.000077
     13          6           0       -3.018585    0.178464    0.000008
     14          6           0       -3.530864    1.630524    0.000085
     15          6           0       -3.563897   -0.525741    1.267810
     16          6           0       -3.563891   -0.525711   -1.267800
     17          1           0       -1.106750    2.221705    0.000032
     18          1           0        1.106713   -2.221650   -0.000402
     19          1           0        3.188957    0.041654   -2.174257
     20          1           0        4.655829    0.456292   -1.279507
     21          1           0        3.286470    1.578293   -1.293038
     22          1           0        3.285901    1.578191    1.293375
     23          1           0        4.655461    0.456530    1.279960
     24          1           0        3.188504    0.041352    2.174353
     25          1           0        4.623450   -1.624897    0.000180
     26          1           0        3.204660   -2.180968    0.887021
     27          1           0        3.204845   -2.181025   -0.886902
     28          1           0       -3.205145    2.180959   -0.886966
     29          1           0       -3.204683    2.180962    0.886964
     30          1           0       -4.623569    1.624733    0.000341
     31          1           0       -3.188656   -0.041503    2.174296
     32          1           0       -3.285991   -1.578289    1.293290
     33          1           0       -4.655557   -0.456591    1.279776
     34          1           0       -3.188638   -0.041490   -2.174290
     35          1           0       -4.655555   -0.456608   -1.279810
     36          1           0       -3.285970   -1.578261   -1.293250
 ---------------------------------------------------------------------

 SCF Done:  E(UB3LYP) =  -696.166519127     A.U. after   13 cycles

 The electronic state is 1-A.
 Alpha  occ. eigenvalues --  -19.13839 -19.13839 -10.28452 -10.28451 -10.21538
 Alpha  occ. eigenvalues --  -10.21537 -10.20368 -10.20368 -10.20087 -10.20086
 Alpha  occ. eigenvalues --  -10.16243 -10.16243 -10.16046 -10.16046 -10.16046
 Alpha  occ. eigenvalues --  -10.16046  -1.07090  -1.06908  -0.87100  -0.84585
 Alpha  occ. eigenvalues --   -0.80897  -0.76442  -0.70551  -0.69471  -0.69032
 Alpha  occ. eigenvalues --   -0.69025  -0.68783  -0.64283  -0.60836  -0.56792
 Alpha  occ. eigenvalues --   -0.54624  -0.52464  -0.49567  -0.48069  -0.47465
 Alpha  occ. eigenvalues --   -0.45778  -0.45305  -0.44573  -0.44180  -0.44003
 Alpha  occ. eigenvalues --   -0.43930  -0.42818  -0.42623  -0.39759  -0.38940
 Alpha  occ. eigenvalues --   -0.38827  -0.38740  -0.38243  -0.37037  -0.36960
 Alpha  occ. eigenvalues --   -0.36107  -0.35654  -0.34439  -0.34305  -0.34254
 Alpha  occ. eigenvalues --   -0.33575  -0.30177  -0.28432  -0.28224  -0.27070
 Alpha virt. eigenvalues --   -0.13096  -0.02348  -0.00893  -0.00535  -0.00039
 Alpha virt. eigenvalues --    0.01017   0.01632   0.01839   0.02168   0.02395
 Alpha virt. eigenvalues --    0.03267   0.03464   0.03486   0.04201   0.04731

  Beta  occ. eigenvalues --  -19.13839 -19.13839 -10.28452 -10.28451 -10.21538
  Beta  occ. eigenvalues --  -10.21537 -10.20368 -10.20368 -10.20087 -10.20086
  Beta  occ. eigenvalues --  -10.16243 -10.16243 -10.16046 -10.16046 -10.16046
  Beta  occ. eigenvalues --  -10.16046  -1.07090  -1.06908  -0.87100  -0.84585
  Beta  occ. eigenvalues --   -0.80897  -0.76442  -0.70551  -0.69471  -0.69032
  Beta  occ. eigenvalues --   -0.69025  -0.68783  -0.64283  -0.60836  -0.56792
  Beta  occ. eigenvalues --   -0.54624  -0.52464  -0.49567  -0.48069  -0.47465
  Beta  occ. eigenvalues --   -0.45778  -0.45305  -0.44573  -0.44180  -0.44003
  Beta  occ. eigenvalues --   -0.43930  -0.42818  -0.42623  -0.39759  -0.38940
  Beta  occ. eigenvalues --   -0.38827  -0.38740  -0.38243  -0.37037  -0.36960
  Beta  occ. eigenvalues --   -0.36107  -0.35654  -0.34439  -0.34305  -0.34254
  Beta  occ. eigenvalues --   -0.33575  -0.30177  -0.28432  -0.28224  -0.27070
  Beta virt. eigenvalues --   -0.13096  -0.02348  -0.00893  -0.00535  -0.00039
  Beta virt. eigenvalues --    0.01017   0.01632   0.01839   0.02168   0.02395
  Beta virt. eigenvalues --    0.03267   0.03464   0.03486   0.04201   0.04731

 Mulliken charges and spin densities:
               1          2
     1  C   -0.958524   0.000000
     2  C   -0.422763  -0.000000
     3  C    1.319601  -0.000000
     4  C   -0.958528   0.000000
     5  C   -0.422617   0.000000
     6  C    1.319441  -0.000000
     7  O   -0.243667  -0.000000
     8  O   -0.243665  -0.000000
     9  C    0.521510   0.000000
    10  C   -0.697666   0.000000
    11  C   -0.697698   0.000000
    12  C   -0.521642   0.000000
    13  C    0.521429   0.000000
    14  C   -0.521625  -0.000000
    15  C   -0.697647   0.000000
    16  C   -0.697744  -0.000000
    17  H    0.242567   0.000000
    18  H    0.242569  -0.000000
    19  H    0.149850  -0.000000
    20  H    0.168521  -0.000000
    21  H    0.176008   0.000000
    22  H    0.176015   0.000000
    23  H    0.168519  -0.000000
    24  H    0.149831  -0.000000
    25  H    0.183801   0.000000
    26  H    0.142900  -0.000000
    27  H    0.142892   0.000000
    28  H    0.142914   0.000000
    29  H    0.142875   0.000000
    30  H    0.183796  -0.000000
    31  H    0.149844  -0.000000
    32  H    0.176017   0.000000
    33  H    0.168510  -0.000000
    34  H    0.149836  -0.000000
    35  H    0.168525   0.000000
    36  H    0.176017   0.000000
 Sum of Mulliken charges =  -0.00000  -0.00000

 Dipole moment (field-independent basis, Debye):
    X=              0.0001    Y=             -0.0001    Z=             -0.0003  Tot=              0.0003
 Quadrupole moment (field-independent basis, Debye-Ang):
   XX=            -90.9160   YY=           -112.8057   ZZ=            -98.9878
   XY=            -12.2241   XZ=              0.0004   YZ=              0.0014

 Normal termination of Gaussian 16 at Sun Jan 21 07:04:56 2024.
