 Gaussian 16, Revision A.03,
 Gaussian 16:  ES64L-G16RevA.03 25-Dec-2016

 --------------------------------------
 #P UB3LYP/6-311++G(d,p) nosym opt freq
 --------------------------------------

 --------
 Oxidized
 --------
 Symbolic Z-matrix:
 Charge =  0 Multiplicity = 1

 SCF Done:  E(UB3LYP) =  -473.814611420     A.U. after   15 cycles
 SCF Done:  E(UB3LYP) =  -473.818985273     A.U. after   15 cycles
 SCF Done:  E(UB3LYP) =  -473.819104768     A.U. after   13 cycles
 SCF Done:  E(UB3LYP) =  -473.819106763     A.U. after   14 cycles
 SCF Done:  E(UB3LYP) =  -473.819310871     A.U. after   13 cycles
 SCF Done:  E(UB3LYP) =  -473.819312237     A.U. after   11 cycles
 SCF Done:  E(UB3LYP) =  -473.819315466     A.U. after   11 cycles
 SCF Done:  E(UB3LYP) =  -473.819315519     A.U. after    8 cycles
 Optimization completed.
    -- Stationary point found.
 Normal termination of Gaussian 16 at Sun Dec 17 20:59:24 2023.

 ----------------------------------------------------------------------
 #P Geom=AllCheck Guess=TCheck SCRF=Check GenChk UB3LYP/6-311++G(d,p) F
 req
 ----------------------------------------------------------------------

 Structure from the checkpoint file:  "000.chk"
 --------
 Oxidized
 --------
 Charge =  0 Multiplicity = 1

                          Input orientation:
 ---------------------------------------------------------------------
 Center     Atomic      Atomic             Coordinates (Angstroms)
 Number     Number       Type             X           Y           Z
 ---------------------------------------------------------------------
      1          6           0       -0.300043    1.145325   -0.270754
      2          6           0       -1.403939    0.285518   -0.759858
      3          6           0       -1.355251   -1.050360   -0.676022
      4          6           0       -0.185641   -1.742617   -0.085277
      5          6           0        0.932523   -0.900162    0.411117
      6          6           0        0.890402    0.444303    0.330006
      7          8           0       -0.348058    2.355126   -0.348169
      8          8           0       -0.131169   -2.957022   -0.004030
      9          6           0        1.963297    1.258831    0.805946
     10          7           0        2.838911    1.902504    1.195255
     11          1           0       -2.248040    0.814765   -1.187475
     12          1           0       -2.157190   -1.688083   -1.030615
     13          1           0        1.777316   -1.427458    0.838917
 ---------------------------------------------------------------------

 SCF Done:  E(UB3LYP) =  -473.819315519     A.U. after    2 cycles

 Alpha  occ. eigenvalues --  -19.17071 -19.16924 -14.34819 -10.32034 -10.31559
 Alpha  occ. eigenvalues --  -10.27717 -10.25668 -10.24504 -10.24400 -10.24213
 Alpha  occ. eigenvalues --   -1.10375  -1.09869  -0.94592  -0.90262  -0.84134
 Alpha  occ. eigenvalues --   -0.75266  -0.69865  -0.65645  -0.57781  -0.55941
 Alpha  occ. eigenvalues --   -0.53485  -0.50844  -0.48609  -0.48004  -0.46413
 Alpha  occ. eigenvalues --   -0.44964  -0.44612  -0.40468  -0.39677  -0.37173
 Alpha  occ. eigenvalues --   -0.34086  -0.32783  -0.31784  -0.30922
 Alpha virt. eigenvalues --   -0.16902  -0.08707  -0.03635  -0.01927  -0.00485
 Alpha virt. eigenvalues --   -0.00222   0.01228   0.02295   0.03123   0.03249
 Alpha virt. eigenvalues --    0.03783   0.05499   0.06069   0.07254   0.07568

  Beta  occ. eigenvalues --  -19.17071 -19.16924 -14.34819 -10.32034 -10.31559
  Beta  occ. eigenvalues --  -10.27717 -10.25668 -10.24504 -10.24400 -10.24213
  Beta  occ. eigenvalues --   -1.10375  -1.09869  -0.94592  -0.90262  -0.84134
  Beta  occ. eigenvalues --   -0.75266  -0.69865  -0.65645  -0.57781  -0.55941
  Beta  occ. eigenvalues --   -0.53485  -0.50844  -0.48609  -0.48004  -0.46413
  Beta  occ. eigenvalues --   -0.44964  -0.44612  -0.40468  -0.39677  -0.37173
  Beta  occ. eigenvalues --   -0.34086  -0.32783  -0.31784  -0.30922
  Beta virt. eigenvalues --   -0.16902  -0.08707  -0.03635  -0.01927  -0.00485
  Beta virt. eigenvalues --   -0.00222   0.01228   0.02295   0.03123   0.03249
  Beta virt. eigenvalues --    0.03783   0.05499   0.06069   0.07254   0.07568

 Mulliken charges and spin densities:
               1          2
     1  C   -1.114774   0.000000
     2  C    0.237848  -0.000000
     3  C    0.124663   0.000000
     4  C   -0.349578  -0.000000
     5  C   -0.482992   0.000000
     6  C    2.140361  -0.000000
     7  O   -0.179589  -0.000000
     8  O   -0.209387   0.000000
     9  C   -0.718956   0.000000
    10  N   -0.160703  -0.000000
    11  H    0.236946  -0.000000
    12  H    0.234540   0.000000
    13  H    0.241621   0.000000
 Sum of Mulliken charges =  -0.00000  -0.00000

 Dipole moment (field-independent basis, Debye):
    X=             -2.9398    Y=             -2.1438    Z=             -1.3091  Tot=              3.8668
 Quadrupole moment (field-independent basis, Debye-Ang):
   XX=            -58.7110   YY=            -75.8380   ZZ=            -55.6421
   XY=             -6.4158   XZ=             -1.1175   YZ=             -1.9748

  Exact polarizability:  85.355  14.590 134.235  18.451   2.949  54.062
 Approx polarizability: 119.271  23.897 281.360  23.294   1.769  79.333

                      1                      2                      3
                      A                      A                      A
 Frequencies --     78.0874               127.1662               144.0199
 Red. masses --      7.7716                 7.3710                12.1373
 Frc consts  --      0.0279                 0.0702                 0.1483
 IR Inten    --      6.8524                11.5401                 3.1587

                      4                      5                      6
                      A                      A                      A
 Frequencies --    236.5581               329.8983               360.4805
 Red. masses --      5.8420                 4.5040                12.4679
 Frc consts  --      0.1926                 0.2888                 0.9546
 IR Inten    --      0.4430                 0.2294                 6.2860

                      7                      8                      9
                      A                      A                      A
 Frequencies --    427.9149               439.6114               478.0583
 Red. masses --      7.7988                11.9704                 3.6363
 Frc consts  --      0.8414                 1.3630                 0.4896
 IR Inten    --     14.1945                 0.5339                 3.2004

                     10                     11                     12
                      A                      A                      A
 Frequencies --    495.2414               605.9643               629.7093
 Red. masses --     10.9326                 5.3752                 3.1023
 Frc consts  --      1.5798                 1.1629                 0.7248
 IR Inten    --      2.7141                 3.9354                 0.7061

                     13                     14                     15
                      A                      A                      A
 Frequencies --    666.5075               780.1005               797.9864
 Red. masses --      7.4714                 4.6446                 5.4643
 Frc consts  --      1.9555                 1.6653                 2.0501
 IR Inten    --      2.5329                 0.2670                 1.6052

                     16                     17                     18
                      A                      A                      A
 Frequencies --    848.9639               873.8008               943.6241
 Red. masses --      1.9821                 4.1615                 1.5248
 Frc consts  --      0.8417                 1.8721                 0.7999
 IR Inten    --     22.3588                 7.7805                40.5050

                     19                     20                     21
                      A                      A                      A
 Frequencies --   1013.0051              1080.2715              1137.6443
 Red. masses --      1.2482                 3.1199                 1.7866
 Frc consts  --      0.7547                 2.1452                 1.3624
 IR Inten    --      0.0677                57.0653                16.0663

                     22                     23                     24
                      A                      A                      A
 Frequencies --   1224.4226              1288.7385              1345.7157
 Red. masses --      1.6637                 3.1366                 2.2917
 Frc consts  --      1.4695                 3.0693                 2.4452
 IR Inten    --      2.0805               100.9633                22.0926

                     25                     26                     27
                      A                      A                      A
 Frequencies --   1390.7878              1636.5011              1674.7470
 Red. masses --      1.9265                 8.2990                 8.3353
 Frc consts  --      2.1955                13.0952                13.7743
 IR Inten    --      1.3729                24.2947                 2.0890

                     28                     29                     30
                      A                      A                      A
 Frequencies --   1728.0870              1742.7707              2342.4142
 Red. masses --      9.9299                11.9070                12.6799
 Frc consts  --     17.4713                21.3076                40.9916
 IR Inten    --    181.4476               237.5727                 0.1525

                     31                     32                     33
                      A                      A                      A
 Frequencies --   3181.4664              3196.1188              3198.1412
 Red. masses --      1.0878                 1.0943                 1.0987
 Frc consts  --      6.4869                 6.5861                 6.6213
 IR Inten    --      0.1289                 0.2708                 0.4570

 - Thermochemistry -
 -------------------
 Temperature   298.150 Kelvin.  Pressure   1.00000 Atm.
 Atom     1 has atomic number  6 and mass  12.00000

 Molecular mass:   133.01638 amu.
 Principal axes and moments of inertia in atomic units:
                           1         2         3
     Eigenvalues --   763.802261603.496452367.29867
           X            0.49472   0.75468  -0.43093
           Y            0.84616  -0.53137   0.04083
           Z            0.19817   0.38484   0.90146
 This molecule is an asymmetric top.
 Rotational symmetry number  1.
 Warning -- assumption of classical behavior for rotation
           may cause significant error
 Rotational temperatures (Kelvin)      0.11340     0.05402     0.03659
 Rotational constants (GHZ):           2.36284     1.12550     0.76236
 Zero-point vibrational energy     217986.7 (Joules/Mol)
                                   52.10006 (Kcal/Mol)
 Warning -- explicit consideration of  11 degrees of freedom as
           vibrations may cause significant error
 Vibrational temperatures:    112.35   182.96   207.21   340.35   474.65
          (Kelvin)            518.65   615.67   632.50   687.82   712.54
                              871.85   906.01   958.96  1122.39  1148.12
                             1221.47  1257.20  1357.66  1457.49  1554.27
                             1636.82  1761.67  1854.21  1936.18  2001.03
                             2354.56  2409.59  2486.33  2507.46  3370.21
                             4577.42  4598.50  4601.41

 Zero-point correction=                           0.083027 (Hartree/Particle)
 Thermal correction to Energy=                    0.091137
 Thermal correction to Enthalpy=                  0.092081
 Thermal correction to Gibbs Free Energy=         0.049610
 Sum of electronic and zero-point Energies=           -473.736289
 Sum of electronic and thermal Energies=              -473.728179
 Sum of electronic and thermal Enthalpies=            -473.727235
 Sum of electronic and thermal Free Energies=         -473.769706

                     E (Thermal)             CV                S
                      KCal/Mol        Cal/Mol-Kelvin    Cal/Mol-Kelvin
 Total                   57.189             29.485             89.388
 Electronic               0.000              0.000              0.000
 Translational            0.889              2.981             40.568
 Rotational               0.889              2.981             29.451
 Vibrational             55.412             23.524             19.368
 Vibration     1          0.599              1.964              3.938
 Vibration     2          0.611              1.926              2.988
 Vibration     3          0.616              1.909              2.750
 Vibration     4          0.655              1.785              1.829
 Vibration     5          0.713              1.616              1.261
 Vibration     6          0.735              1.554              1.120
 Vibration     7          0.789              1.409              0.865
 Vibration     8          0.800              1.384              0.828
 Vibration     9          0.835              1.299              0.715
 Vibration    10          0.851              1.261              0.670
 Vibration    11          0.965              1.019              0.440

 Optimization completed.
    -- Stationary point found.
 Normal termination of Gaussian 16 at Sun Dec 17 21:05:10 2023.
