 Q-Chem 5.4, Q-Chem, Inc., Pleasanton, CA (2021)
 Q-Chem 5.4.0 for Intel X86 EM64T Linux

User input:
--------------------------------------------------------------
$molecule
-2 2
O                  1.5113960000     -2.8846050000     -0.5579250000
C                  1.4723840000     -1.5444020000     -0.2744440000
C                  2.7126640000     -0.9154410000     -0.1188330000
O                  3.8080610000     -1.7229460000     -0.2690180000
C                  2.7905880000      0.4637650000      0.1489500000
C                  1.6204950000      1.1908370000      0.2624550000
C                  0.3597240000      0.5826680000      0.1224960000
C                 -0.8256250000      1.4419930000      0.2614820000
O                 -0.7353920000      2.6737160000      0.4990220000
C                 -2.1214060000      0.7908180000      0.1063420000
C                 -3.3042630000      1.5565120000      0.2211450000
C                 -4.5517500000      0.9817580000      0.0820660000
C                 -4.6580350000     -0.4063650000     -0.1820240000
C                 -3.5151340000     -1.1724640000     -0.2981190000
C                 -2.2262810000     -0.6068290000     -0.1606490000
C                 -1.0538840000     -1.4776500000     -0.2954580000
O                 -1.1994780000     -2.7048950000     -0.5217260000
C                  0.2574740000     -0.8259450000     -0.1496950000
S                  4.4131860000      1.2544020000      0.4158660000
O                  5.3641330000      0.3009930000     -0.2879370000
O                  4.3651190000      2.5855080000     -0.2245920000
O                  4.6425650000      1.2818930000      1.8800470000
H                  2.4568930000     -3.0909500000     -0.6153890000
H                  4.6021120000     -1.1094000000     -0.3074350000
H                  1.6517650000      2.2548660000      0.4568520000
H                 -3.1867530000      2.6154850000      0.4241770000
H                 -5.4485880000      1.5894950000      0.1743360000
H                 -5.6373650000     -0.8658490000     -0.2926290000
H                 -3.5646040000     -2.2369680000     -0.4993680000
$end
$rem
MAX_SCF_CYCLES=200
BASIS  =  6-311++G(d,p)
GUI  =  2
JOB_TYPE  =  SP
METHOD  =  B3LYP
SOLVENT_METHOD = PCM
$end
$pcm
theory = CPCM
$end
$solvent
dielectric 37.219
opticaldielectric 1.43
$end

--------------------------------------------------------------

             Standard Nuclear Orientation (Angstroms)
    I     Atom           X                Y                Z
 ----------------------------------------------------------------
    1      O       1.5113960000    -2.8846050000    -0.5579250000
    2      C       1.4723840000    -1.5444020000    -0.2744440000
    3      C       2.7126640000    -0.9154410000    -0.1188330000
    4      O       3.8080610000    -1.7229460000    -0.2690180000
    5      C       2.7905880000     0.4637650000     0.1489500000
    6      C       1.6204950000     1.1908370000     0.2624550000
    7      C       0.3597240000     0.5826680000     0.1224960000
    8      C      -0.8256250000     1.4419930000     0.2614820000
    9      O      -0.7353920000     2.6737160000     0.4990220000
   10      C      -2.1214060000     0.7908180000     0.1063420000
   11      C      -3.3042630000     1.5565120000     0.2211450000
   12      C      -4.5517500000     0.9817580000     0.0820660000
   13      C      -4.6580350000    -0.4063650000    -0.1820240000
   14      C      -3.5151340000    -1.1724640000    -0.2981190000
   15      C      -2.2262810000    -0.6068290000    -0.1606490000
   16      C      -1.0538840000    -1.4776500000    -0.2954580000
   17      O      -1.1994780000    -2.7048950000    -0.5217260000
   18      C       0.2574740000    -0.8259450000    -0.1496950000
   19      S       4.4131860000     1.2544020000     0.4158660000
   20      O       5.3641330000     0.3009930000    -0.2879370000
   21      O       4.3651190000     2.5855080000    -0.2245920000
   22      O       4.6425650000     1.2818930000     1.8800470000
   23      H       2.4568930000    -3.0909500000    -0.6153890000
   24      H       4.6021120000    -1.1094000000    -0.3074350000
   25      H       1.6517650000     2.2548660000     0.4568520000
   26      H      -3.1867530000     2.6154850000     0.4241770000
   27      H      -5.4485880000     1.5894950000     0.1743360000
   28      H      -5.6373650000    -0.8658490000    -0.2926290000
   29      H      -3.5646040000    -2.2369680000    -0.4993680000
 ----------------------------------------------------------------

    8   -1463.0685437943      8.67e-06  Convergence criterion met
 Total energy in the final basis set =    -1463.0685437943

                    Orbital Energies (a.u.)
 --------------------------------------------------------------

 Alpha MOs
 -- Occupied --
-89.0582 -19.1490 -19.1453 -19.1043 -19.1028 -19.1007 -19.0747 -19.0724
-10.2391 -10.2372 -10.2267 -10.2259 -10.2001 -10.1828 -10.1765 -10.1760
-10.1714 -10.1709 -10.1707 -10.1703 -10.1680 -10.1671  -8.1170  -6.0799
 -6.0795  -6.0786  -1.1208  -1.0772  -1.0431  -1.0022  -0.9993  -0.9866
 -0.9807  -0.8621  -0.8504  -0.7880  -0.7534  -0.7477  -0.7387  -0.6794
 -0.6516  -0.6347  -0.6021  -0.5942  -0.5740  -0.5586  -0.5350  -0.5131
 -0.4992  -0.4900  -0.4765  -0.4665  -0.4618  -0.4608  -0.4425  -0.4308
 -0.4262  -0.4196  -0.4181  -0.4119  -0.4083  -0.3930  -0.3839  -0.3822
 -0.3691  -0.3653  -0.3529  -0.3525  -0.3459  -0.3447  -0.3340  -0.3306
 -0.3100  -0.3060  -0.2998  -0.2685  -0.2635  -0.2550  -0.2452  -0.2449
 -0.2343  -0.2240  -0.1378

 Beta MOs
 -- Occupied --
-89.0582 -19.1488 -19.1449 -19.1043 -19.1027 -19.1007 -19.0702 -19.0671
-10.2380 -10.2369 -10.2248 -10.2240 -10.2000 -10.1822 -10.1761 -10.1756
-10.1706 -10.1704 -10.1699 -10.1698 -10.1680 -10.1671  -8.1170  -6.0799
 -6.0795  -6.0786  -1.1207  -1.0763  -1.0423  -0.9938  -0.9899  -0.9865
 -0.9806  -0.8598  -0.8490  -0.7845  -0.7511  -0.7458  -0.7368  -0.6747
 -0.6485  -0.6320  -0.6014  -0.5934  -0.5721  -0.5565  -0.5337  -0.5124
 -0.4976  -0.4881  -0.4757  -0.4660  -0.4614  -0.4590  -0.4382  -0.4286
 -0.4247  -0.4189  -0.4167  -0.4041  -0.3998  -0.3910  -0.3823  -0.3721
 -0.3663  -0.3568  -0.3513  -0.3464  -0.3446  -0.3435  -0.3328  -0.3248
 -0.3098  -0.3011  -0.2993  -0.2684  -0.2493  -0.2458  -0.2406  -0.2403
 -0.2296  -0.2155

          Ground-State Mulliken Net Atomic Charges

     Atom                 Charge (a.u.)    Spin (a.u.)
  --------------------------------------------------------
      1 O                    -0.289368       0.004696
      2 C                    -0.311705       0.039397
      3 C                    -0.627004       0.075973
      4 O                    -0.442749       0.012016
      5 C                    -0.317013       0.014457
      6 C                    -0.223720       0.029101
      7 C                     0.694224       0.017071
      8 C                    -0.533486       0.104032
      9 O                    -0.470891       0.176576
     10 C                     0.303311       0.035818
     11 C                     0.030826       0.024974
     12 C                    -0.535731       0.040334
     13 C                    -0.569105       0.038144
     14 C                     0.077425       0.030446
     15 C                     0.024439       0.035936
     16 C                    -0.359253       0.095354
     17 O                    -0.478804       0.208001
     18 C                     0.604792       0.026374
     19 S                     0.909773       0.002542
     20 O                    -0.490434      -0.000304
     21 O                    -0.350845       0.001095
     22 O                    -0.300710       0.000567
     23 H                     0.326615      -0.000392
     24 H                     0.415972      -0.000380
     25 H                     0.183459      -0.002800
     26 H                     0.165663      -0.001158
     27 H                     0.198383      -0.003228
     28 H                     0.197120      -0.003201
     29 H                     0.168814      -0.001440
  --------------------------------------------------------
  Sum of atomic charges =    -2.000001

                    Cartesian Multipole Moments
 -----------------------------------------------------------------
    Charge (ESU x 10^10)
                -9.6064
    Dipole Moment (Debye)
         X     -17.8688      Y      -4.8790      Z      -2.1610
       Tot      18.6486
    Quadrupole Moments (Debye-Ang)
        XX    -248.2205     XY     -34.9356     YY    -194.2683
        XZ     -12.2963     YZ      -9.2948     ZZ    -151.1724

 Total job time:  72.31s(wall), 520.40s(cpu)
        *  Thank you very much for using Q-Chem.  Have a nice day.  *
