 Gaussian 16, Revision A.03,
 Gaussian 16:  ES64L-G16RevA.03 25-Dec-2016

 ----------------------------------------------------------------
 #P UB3LYP/6-311++G(d,p) SCRF=(PCM,Solvent=n,n-DiMethylFormamide)
 ----------------------------------------------------------------

 ------------------
 Radical PCM in DMF
 ------------------
 Symbolic Z-matrix:
 Charge = -2 Multiplicity = 2

                         Standard orientation:
 ---------------------------------------------------------------------
 Center     Atomic      Atomic             Coordinates (Angstroms)
 Number     Number       Type             X           Y           Z
 ---------------------------------------------------------------------
      1          8           0       -0.439721    3.101636   -0.026630
      2          6           0       -0.535839    1.734662   -0.013517
      3          6           0       -1.834023    1.212372   -0.019210
      4          8           0       -2.843369    2.137282   -0.035832
      5          6           0       -2.049299   -0.178122   -0.032365
      6          6           0       -0.956647   -1.024729   -0.033720
      7          6           0        0.359312   -0.527791   -0.016262
      8          6           0        1.453940   -1.509929   -0.018458
      9          8           0        1.241224   -2.749391   -0.032340
     10          6           0        2.809336   -0.971503   -0.006403
     11          6           0        3.911112   -1.857309   -0.013798
     12          6           0        5.210776   -1.391848   -0.002460
     13          6           0        5.454908    0.003843    0.016847
     14          6           0        4.392976    0.886371    0.024135
     15          6           0        3.053065    0.434186    0.011912
     16          6           0        1.972176    1.425457    0.020829
     17          8           0        2.239041    2.652916    0.046361
     18          6           0        0.601665    0.889870   -0.000938
     19         16           0       -3.747621   -0.842318    0.028629
     20          8           0       -4.574633    0.318616   -0.497595
     21          8           0       -3.791581   -2.021357   -0.861469
     22          8           0       -4.045380   -1.131778    1.451566
     23          1           0       -1.358892    3.407079   -0.067538
     24          1           0       -3.687355    1.623991   -0.216532
     25          1           0       -1.093473   -2.097926   -0.055037
     26          1           0        3.688559   -2.918781   -0.027979
     27          1           0        6.043425   -2.091017   -0.008337
     28          1           0        6.476017    0.377605    0.025996
     29          1           0        4.548264    1.959578    0.039324
 ---------------------------------------------------------------------

 SCF Done:  E(UB3LYP) =  -1463.06085504     A.U. after   20 cycles

 The electronic state is 2-A.
 Alpha  occ. eigenvalues --  -89.05494 -19.14800 -19.14451 -19.10151 -19.09924
 Alpha  occ. eigenvalues --  -19.09720 -19.07254 -19.06989 -10.23779 -10.23553
 Alpha  occ. eigenvalues --  -10.22400 -10.22319 -10.19851 -10.18072 -10.17496
 Alpha  occ. eigenvalues --  -10.17424 -10.17148 -10.17090 -10.17014 -10.16936
 Alpha  occ. eigenvalues --  -10.16796 -10.16704  -8.11368  -6.07660  -6.07620
 Alpha  occ. eigenvalues --   -6.07534  -1.11739  -1.07627  -1.04215  -0.99967
 Alpha  occ. eigenvalues --   -0.99659  -0.98280  -0.97740  -0.86058  -0.84957
 Alpha  occ. eigenvalues --   -0.78660  -0.75211  -0.74717  -0.73761  -0.67751
 Alpha  occ. eigenvalues --   -0.65022  -0.63382  -0.60008  -0.59341  -0.57318
 Alpha  occ. eigenvalues --   -0.55742  -0.53391  -0.51097  -0.49810  -0.48844
 Alpha  occ. eigenvalues --   -0.47505  -0.46349  -0.45951  -0.45832  -0.44090
 Alpha  occ. eigenvalues --   -0.42970  -0.42504  -0.41931  -0.41692  -0.41003
 Alpha  occ. eigenvalues --   -0.40536  -0.39136  -0.38183  -0.38014  -0.36776
 Alpha  occ. eigenvalues --   -0.36386  -0.35224  -0.35164  -0.34269  -0.34076
 Alpha  occ. eigenvalues --   -0.33358  -0.32840  -0.30663  -0.30272  -0.29686
 Alpha  occ. eigenvalues --   -0.26463  -0.26193  -0.25433  -0.24380  -0.24201
 Alpha  occ. eigenvalues --   -0.23143  -0.22250  -0.13595
 Alpha virt. eigenvalues --   -0.05178  -0.02181  -0.00150   0.00143   0.00454
 Alpha virt. eigenvalues --    0.01337   0.02318   0.02445   0.04217   0.04366
 Alpha virt. eigenvalues --    0.04476   0.04785   0.04981   0.05693   0.06019

  Beta  occ. eigenvalues --  -89.05494 -19.14781 -19.14410 -19.10150 -19.09921
  Beta  occ. eigenvalues --  -19.09714 -19.06759 -19.06409 -10.23677 -10.23527
  Beta  occ. eigenvalues --  -10.22232 -10.22145 -10.19834 -10.18007 -10.17479
  Beta  occ. eigenvalues --  -10.17381 -10.17099 -10.17041 -10.16929 -10.16858
  Beta  occ. eigenvalues --  -10.16791 -10.16705  -8.11369  -6.07660  -6.07620
  Beta  occ. eigenvalues --   -6.07535  -1.11733  -1.07550  -1.04145  -0.99080
  Beta  occ. eigenvalues --   -0.98658  -0.98272  -0.97732  -0.85825  -0.84826
  Beta  occ. eigenvalues --   -0.78309  -0.74979  -0.74533  -0.73569  -0.67279
  Beta  occ. eigenvalues --   -0.64717  -0.63108  -0.59941  -0.59272  -0.57125
  Beta  occ. eigenvalues --   -0.55535  -0.53266  -0.51021  -0.49653  -0.48651
  Beta  occ. eigenvalues --   -0.47425  -0.46289  -0.45795  -0.45776  -0.43687
  Beta  occ. eigenvalues --   -0.42758  -0.42356  -0.41863  -0.41549  -0.40092
  Beta  occ. eigenvalues --   -0.39796  -0.38928  -0.38038  -0.37060  -0.36499
  Beta  occ. eigenvalues --   -0.35488  -0.35094  -0.34379  -0.34104  -0.34061
  Beta  occ. eigenvalues --   -0.33225  -0.32243  -0.30649  -0.29791  -0.29643
  Beta  occ. eigenvalues --   -0.26449  -0.24849  -0.24341  -0.23899  -0.23731
  Beta  occ. eigenvalues --   -0.22631  -0.21412
  Beta virt. eigenvalues --   -0.07899  -0.04205  -0.01210  -0.00130   0.00463
  Beta virt. eigenvalues --    0.00508   0.01348   0.02323   0.02458   0.04230
  Beta virt. eigenvalues --    0.04432   0.04498   0.04825   0.05476   0.05956

 Mulliken charges and spin densities:
               1          2
     1  O   -0.274246   0.004148
     2  C   -0.319286   0.038115
     3  C   -0.649411   0.074487
     4  O   -0.436361   0.011331
     5  C   -0.298408   0.014725
     6  C   -0.211778   0.026106
     7  C    0.699557   0.019734
     8  C   -0.584065   0.095733
     9  O   -0.451681   0.184561
    10  C    0.326974   0.038479
    11  C    0.027295   0.023472
    12  C   -0.513097   0.040423
    13  C   -0.557020   0.038739
    14  C    0.077798   0.028872
    15  C    0.045635   0.039760
    16  C   -0.408351   0.083214
    17  O   -0.458631   0.217814
    18  C    0.621451   0.028701
    19  S    0.889919   0.002347
    20  O   -0.478534  -0.000288
    21  O   -0.336531   0.001097
    22  O   -0.287023   0.000595
    23  H    0.312314  -0.000393
    24  H    0.405719  -0.000342
    25  H    0.175882  -0.002516
    26  H    0.158516  -0.001094
    27  H    0.181526  -0.003223
    28  H    0.180231  -0.003197
    29  H    0.161606  -0.001398
 Sum of Mulliken charges =  -2.00000   1.00000

 Dipole moment (field-independent basis, Debye):
    X=             10.6388    Y=              3.1228    Z=             -0.5438  Tot=             11.1010
 Quadrupole moment (field-independent basis, Debye-Ang):
   XX=           -234.6093   YY=           -189.0240   ZZ=           -149.0094
   XY=            -26.8799   XZ=              1.6663   YZ=             -1.0494

 Normal termination of Gaussian 16 at Tue Jan 16 06:44:50 2024.
