 Q-Chem 5.4, Q-Chem, Inc., Pleasanton, CA (2021)
 Q-Chem 5.4.0 for Intel X86 EM64T Linux

User input:
--------------------------------------------------------------
$molecule
0 1
O                 -2.2273630000     -2.0396930000      0.2040590000
C                 -1.6508020000     -0.8383400000      0.0995620000
C                 -2.4956560000      0.2961980000      0.0305500000
C                 -1.9700210000      1.5587960000     -0.0774920000
C                 -0.5689460000      1.7603920000     -0.1227990000
O                 -0.1226550000      3.0158320000     -0.2285220000
C                  0.2868640000      0.6504760000     -0.0559700000
C                  1.7336750000      0.8445570000     -0.1017420000
O                  2.2466250000      1.9716410000     -0.1988980000
C                  2.5923560000     -0.3521660000     -0.0284920000
C                  2.0780160000     -1.5877770000      0.0772240000
C                  0.6230440000     -1.8234390000      0.1264960000
O                  0.1846660000     -2.9814900000      0.2245460000
C                 -0.2594490000     -0.6618400000      0.0563310000
H                 -1.5011520000     -2.7104970000      0.2401320000
H                 -3.5664890000      0.1359620000      0.0656540000
H                 -2.6113770000      2.4302490000     -0.1306560000
H                  0.8655980000      2.9741990000     -0.2463300000
H                  3.6607120000     -0.1704080000     -0.0652950000
H                  2.7023510000     -2.4726510000      0.1316440000
$end
$rem
MAX_SCF_CYCLES=200
BASIS  =  6-311++G(d,p)
GUI  =  2
JOB_TYPE  =  SP
METHOD  =  B3LYP
SOLVENT_METHOD = COSMO
$end
$solvent
dielectric 37.219
opticaldielectric 1.43
$end

--------------------------------------------------------------

             Standard Nuclear Orientation (Angstroms)
    I     Atom           X                Y                Z
 ----------------------------------------------------------------
    1      O       2.7468822482     1.2986229038    -0.0001314037
    2      C       1.4120994638     1.2282940462    -0.0000287918
    3      C       0.6864267059     2.4444833607     0.0000736151
    4      C      -0.6854766728     2.4447167613     0.0001151560
    5      C      -1.4115975040     1.2288000865     0.0000417911
    6      O      -2.7463184830     1.2995285121     0.0000081130
    7      C      -0.7129547466     0.0119645618     0.0000009966
    8      C      -1.4497270453    -1.2490632571    -0.0000085782
    9      O      -2.6912028043    -1.2892284029    -0.0001948659
   10      C      -0.6717940228    -2.5019258820     0.0001210872
   11      C       0.6707617379    -2.5022095178     0.0000957950
   12      C       1.4492031244    -1.2496374360    -0.0000328826
   13      O       2.6906635446    -1.2902232931     0.0000402502
   14      C       0.7129634214     0.0117032629    -0.0000471682
   15      H       3.0886807971     0.3702719967    -0.0003031040
   16      H       1.2471003132     3.3714333506     0.0001254977
   17      H      -1.2457954289     3.3718829532     0.0001867756
   18      H      -3.0882050336     0.3711923674    -0.0001032753
   19      H      -1.2514578377    -3.4183127180     0.0001712400
   20      H       1.2500543745    -3.4188216285     0.0001599960
 ----------------------------------------------------------------

    9    -685.7759988457      7.14e-06  Convergence criterion met
 Total energy in the final basis set =     -685.7759988457
    5    -685.7910348184      3.84e-06  Convergence criterion met
 Total energy in the final basis set =     -685.7910348184

                    Orbital Energies (a.u.)
 --------------------------------------------------------------

 Alpha MOs
 -- Occupied --
-19.1709 -19.1709 -19.1442 -19.1442 -10.2902 -10.2902 -10.2722 -10.2722
-10.2141 -10.2133 -10.2113 -10.2109 -10.2066 -10.2060  -1.0986  -1.0971
 -1.0660  -1.0647  -0.8922  -0.8453  -0.7885  -0.7719  -0.7124  -0.6712
 -0.6582  -0.6272  -0.5607  -0.5510  -0.5492  -0.5401  -0.5065  -0.4789
 -0.4728  -0.4727  -0.4434  -0.4433  -0.4422  -0.4396  -0.4259  -0.4178
 -0.4083  -0.3919  -0.3905  -0.3390  -0.3128  -0.3019  -0.2905  -0.2872
 -0.2389

          Ground-State Mulliken Net Atomic Charges

     Atom                 Charge (a.u.)
  ----------------------------------------
      1 O                    -0.332239
      2 C                    -0.195591
      3 C                     0.004879
      4 C                     0.004783
      5 C                    -0.195504
      6 O                    -0.332254
      7 C                     0.498949
      8 C                    -0.310377
      9 O                    -0.378705
     10 C                    -0.162351
     11 C                    -0.162555
     12 C                    -0.309701
     13 O                    -0.378782
     14 C                     0.498388
     15 H                     0.365552
     16 H                     0.252871
     17 H                     0.252847
     18 H                     0.365567
     19 H                     0.257119
     20 H                     0.257105
  ----------------------------------------
  Sum of atomic charges =     0.000000

                    Cartesian Multipole Moments
 -----------------------------------------------------------------
    Charge (ESU x 10^10)
                 0.0000
    Dipole Moment (Debye)
         X       0.0012      Y      -0.2002      Z       0.0000
       Tot       0.2002
    Quadrupole Moments (Debye-Ang)
        XX    -100.6870     XY       0.0066     YY     -66.1320
        XZ      -0.0030     YZ      -0.0001     ZZ     -80.6165

 Total job time:  31.91s(wall), 233.65s(cpu)
        *  Thank you very much for using Q-Chem.  Have a nice day.  *
