 Q-Chem 5.4, Q-Chem, Inc., Pleasanton, CA (2021)
 Q-Chem 5.4.0 for Intel X86 EM64T Linux

User input:
--------------------------------------------------------------
$molecule
-1 2
O                  5.0511370000     -0.1786150000     -0.4374710000
C                  3.7184520000      0.1518860000     -0.2502880000
C                  3.4325920000      1.4960340000      0.0665770000
C                  2.1217630000      1.8766300000      0.2629940000
C                  1.0551240000      0.9568730000      0.1555730000
C                 -0.3149000000      1.4156050000      0.3741080000
O                 -0.5877510000      2.6111750000      0.6576600000
C                 -1.3572650000      0.3978230000      0.2431480000
C                 -2.7047680000      0.7730850000      0.4415400000
C                 -3.7184320000     -0.1519400000      0.3282570000
O                 -5.0511760000      0.1785820000      0.5154680000
C                 -3.4326120000     -1.4960450000      0.0113350000
C                 -2.1217520000     -1.8766370000     -0.1850170000
C                 -1.0551420000     -0.9568850000     -0.0775470000
C                  0.3149110000     -1.4156360000     -0.2960660000
O                  0.5877620000     -2.6111600000     -0.5796240000
C                  1.3572730000     -0.3978150000     -0.1651180000
C                  2.7047670000     -0.7731190000     -0.3634740000
H                  5.0960700000     -1.1174060000     -0.6458780000
H                  4.2494320000      2.2044310000      0.1496620000
H                  1.8707500000      2.9023610000      0.5076750000
H                 -2.9030360000      1.8134590000      0.6848630000
H                 -5.0961370000      1.1176130000      0.7227670000
H                 -4.2494240000     -2.2044480000     -0.0719200000
H                 -1.8706680000     -2.9023450000     -0.4297410000
H                  2.9030320000     -1.8135080000     -0.6067330000
$end
$rem
MAX_SCF_CYCLES=200
BASIS  =  6-311++G(d,p)
GUI  =  2
JOB_TYPE  =  SP
METHOD  =  B3LYP
SOLVENT_METHOD = COSMO
$end
$solvent
dielectric 37.219
opticaldielectric 1.43
$end

--------------------------------------------------------------

             Standard Nuclear Orientation (Angstroms)
    I     Atom           X                Y                Z
 ----------------------------------------------------------------
    1      O       5.0452061125    -0.5646327417     0.0001154143
    2      C       3.7306474636    -0.1261658325    -0.0000389583
    3      C       3.5230522914     1.2687382676    -0.0001373299
    4      C       2.2332785078     1.7567845783    -0.0000595212
    5      C       1.1119581421     0.8978016923     0.0000148903
    6      C      -0.2324996706     1.4701578209     0.0000952353
    7      O      -0.4357606997     2.7123019284     0.0001063385
    8      C      -1.3352412144     0.5091601104     0.0000464348
    9      C      -2.6620302220     0.9945220549     0.0000815590
   10      C      -3.7306271785     0.1261214930     0.0000335123
   11      O      -5.0452449397     0.5646182934    -0.0001030206
   12      C      -3.5230646295    -1.2687507825     0.0000639065
   13      C      -2.2332642751    -1.7567808673     0.0000511571
   14      C      -1.1119765670    -0.8977905825     0.0000230677
   15      C       0.2325075722    -1.4701634087    -0.0000352294
   16      O       0.4357724113    -2.7122639870    -0.0000619113
   17      C       1.3352498471    -0.5091301210    -0.0000066212
   18      C       2.6620242801    -0.9945246811     0.0000014379
   19      H       5.0353743101    -1.5272770934    -0.0003107887
   20      H       4.3820076896     1.9306692487    -0.0002498935
   21      H       2.0419586402     2.8237415167    -0.0001055440
   22      H      -2.7997048031     2.0724552863     0.0000647767
   23      H      -5.0353455290     1.5272579401    -0.0008088312
   24      H      -4.3819806810    -1.9307260561     0.0000145750
   25      H      -2.0418690630    -2.8237287504     0.0000564342
   26      H       2.7996902788    -2.0724584865     0.0000834583
 ----------------------------------------------------------------

   10    -839.5180974255      4.27e-06  Convergence criterion met
 Total energy in the final basis set =     -839.5180974255
    5    -839.6096784311      5.10e-06  Convergence criterion met
 Total energy in the final basis set =     -839.6096784311

                    Orbital Energies (a.u.)
 --------------------------------------------------------------

 Alpha MOs
 -- Occupied --
-19.1560 -19.1560 -19.0789 -19.0788 -10.2373 -10.2373 -10.2264 -10.2264
-10.1774 -10.1774 -10.1753 -10.1753 -10.1734 -10.1734 -10.1714 -10.1714
-10.1693 -10.1693  -1.0621  -1.0620  -1.0061  -1.0037  -0.8635  -0.8522
 -0.7852  -0.7563  -0.7519  -0.7385  -0.6689  -0.6558  -0.6176  -0.6143
 -0.5617  -0.5577  -0.5392  -0.5371  -0.4822  -0.4701  -0.4684  -0.4658
 -0.4314  -0.4307  -0.4274  -0.4195  -0.4175  -0.4150  -0.4012  -0.4005
 -0.4003  -0.3841  -0.3813  -0.3596  -0.3541  -0.3400  -0.3393  -0.3219
 -0.2670  -0.2590  -0.2513  -0.2468  -0.2420  -0.2300  -0.1428

 Beta MOs
 -- Occupied --
-19.1558 -19.1558 -19.0736 -19.0736 -10.2368 -10.2368 -10.2245 -10.2244
-10.1764 -10.1764 -10.1752 -10.1752 -10.1732 -10.1732 -10.1711 -10.1711
-10.1690 -10.1690  -1.0615  -1.0615  -0.9968  -0.9941  -0.8608  -0.8511
 -0.7815  -0.7534  -0.7504  -0.7370  -0.6612  -0.6543  -0.6154  -0.6134
 -0.5588  -0.5569  -0.5385  -0.5352  -0.4796  -0.4683  -0.4667  -0.4652
 -0.4303  -0.4269  -0.4228  -0.4151  -0.4144  -0.4124  -0.4003  -0.3985
 -0.3912  -0.3806  -0.3610  -0.3579  -0.3536  -0.3377  -0.3371  -0.3097
 -0.2568  -0.2500  -0.2464  -0.2371  -0.2359  -0.2246

          Ground-State Mulliken Net Atomic Charges

     Atom                 Charge (a.u.)    Spin (a.u.)
  --------------------------------------------------------
      1 O                    -0.316838       0.005616
      2 C                    -0.669124       0.034514
      3 C                    -0.219731       0.018932
      4 C                     0.111500       0.028781
      5 C                     0.161226       0.006334
      6 C                    -0.529327       0.120105
      7 O                    -0.502175       0.194390
      8 C                     0.342079       0.054279
      9 C                     0.220101       0.043935
     10 C                    -0.669429       0.034483
     11 O                    -0.316865       0.005610
     12 C                    -0.220517       0.018972
     13 C                     0.111682       0.028747
     14 C                     0.162567       0.006341
     15 C                    -0.529151       0.120064
     16 O                    -0.502136       0.194381
     17 C                     0.342734       0.054314
     18 C                     0.219831       0.043903
     19 H                     0.322489      -0.000223
     20 H                     0.229002      -0.002047
     21 H                     0.185008      -0.001589
     22 H                     0.165295      -0.002994
     23 H                     0.322479      -0.000223
     24 H                     0.229005      -0.002049
     25 H                     0.185000      -0.001587
     26 H                     0.165295      -0.002992
  --------------------------------------------------------
  Sum of atomic charges =    -1.000000

                    Cartesian Multipole Moments
 -----------------------------------------------------------------
    Charge (ESU x 10^10)
                -4.8032
    Dipole Moment (Debye)
         X       0.0011      Y      -0.0017      Z      -0.0040
       Tot       0.0045
    Quadrupole Moments (Debye-Ang)
        XX    -117.5463     XY      -7.7363     YY    -130.5565
        XZ       0.0032     YZ      -0.0032     ZZ    -110.3381

 Total job time:  77.86s(wall), 574.76s(cpu)
        *  Thank you very much for using Q-Chem.  Have a nice day.  *
