 Q-Chem 5.4, Q-Chem, Inc., Pleasanton, CA (2021)
 Q-Chem 5.4.0 for Intel X86 EM64T Linux

User input:
--------------------------------------------------------------
$molecule
-1 2
C                 -6.3714900000      0.9794560000     -1.8663630000
C                 -6.4511220000      1.2446440000     -3.2208810000
C                 -5.4585690000      0.7572700000     -4.0949580000
C                 -5.3033370000      0.2217460000     -1.3393040000
C                 -4.2990550000     -0.2711750000     -2.2210590000
C                 -4.4031320000      0.0125230000     -3.5939310000
C                 -5.2213900000     -0.0556640000      0.0793320000
C                 -4.0922890000     -0.8394020000      0.5240280000
C                 -3.1082290000     -1.3384400000     -0.3031150000
C                 -3.1580860000     -1.0689760000     -1.7237940000
O                 -6.0624910000      0.3349690000      0.9538810000
O                 -2.2729110000     -1.4953010000     -2.5108980000
O                 -4.0794630000     -1.0596470000      1.8707270000
C                 -1.9613750000     -2.1528680000      0.2350100000
H                 -7.1226360000      1.3433930000     -1.1744110000
H                 -7.2787010000      1.8290610000     -3.6125920000
H                 -5.5219380000      0.9661590000     -5.1587270000
H                 -3.6253300000     -0.3738970000     -4.2428460000
H                 -4.8962700000     -0.5949950000      2.1591950000
C                 -0.6994850000     -1.3128290000      0.5086600000
C                  0.4818420000     -2.1745290000      0.9974430000
C                  1.7382750000     -1.3810330000      1.2675810000
C                  2.6158070000     -1.0396020000      0.2300960000
C                  2.0555190000     -0.9284670000      2.5516180000
C                  3.2004700000     -0.1683240000      2.7893170000
C                  4.0763660000      0.1710790000      1.7543820000
C                  3.7589310000     -0.2815820000      0.4669400000
C                  5.3210340000      0.9965520000      2.0300020000
C                  6.6247750000      0.2249040000      1.7273410000
C                  5.3162650000      2.3494980000      1.2844120000
C                  6.5659830000      3.1843390000      1.5991700000
C                  7.8747240000      1.0597010000      2.0414270000
C                  7.8565490000      2.4068250000      1.3057830000
H                 -1.7097450000     -2.9194780000     -0.5053620000
H                 -2.2673360000     -2.6537100000      1.1592070000
H                 -0.9246520000     -0.5452540000      1.2570740000
H                 -0.4159410000     -0.7928140000     -0.4111060000
H                  0.6908390000     -2.9412330000      0.2423620000
H                  0.1847040000     -2.7054370000      1.9092740000
H                  2.3946900000     -1.3714730000     -0.7797700000
H                  1.3952730000     -1.1728650000      3.3783980000
H                  3.4164180000      0.1670970000      3.8000430000
H                  4.4103430000     -0.0414300000     -0.3677360000
H                  5.3238540000      1.2223780000      3.1054260000
H                  6.6358000000     -0.0604890000      0.6680250000
H                  6.6364760000     -0.7090550000      2.2985030000
H                  4.4101440000      2.9056570000      1.5440930000
H                  5.2661190000      2.1654120000      0.2041380000
H                  6.5515840000      3.4707290000      2.6594400000
H                  6.5467980000      4.1179580000      1.0263720000
H                  8.7776100000      0.4964880000      1.7802660000
H                  7.9246270000      1.2416510000      3.1234840000
H                  7.9309500000      2.2277070000      0.2248940000
H                  8.7323570000      3.0038680000      1.5836050000
$end
$rem
MAX_SCF_CYCLES=200
BASIS  =  6-311++G(d,p)
GUI  =  2
JOB_TYPE  =  SP
SCF_CONVERGENCE  = 6
METHOD  =  B3LYP
SOLVENT_METHOD = COSMO
$end
$solvent
dielectric 37.219
opticaldielectric 1.43
$end

--------------------------------------------------------------

             Standard Nuclear Orientation (Angstroms)
    I     Atom           X                Y                Z
 ----------------------------------------------------------------
    1      C       6.5287949517     1.2119369496    -1.2075857558
    2      C       6.9532008158     2.4055715962    -0.6539604891
    3      C       6.2988340749     2.9302155376     0.4788494591
    4      C       5.4414683523     0.5032769836    -0.6522584795
    5      C       4.7786108493     1.0322136502     0.4922463310
    6      C       5.2295252189     2.2476299546     1.0358763006
    7      C       4.9983271395    -0.7468813830    -1.2327148891
    8      C       3.8783767862    -1.3988451500    -0.5943393680
    9      C       3.2203087056    -0.9188481578     0.5183725624
   10      C       3.6342003177     0.3329543116     1.1142833777
   11      O       5.5180226087    -1.3082699181    -2.2523425261
   12      O       3.0518631414     0.8118355026     2.1224384804
   13      O       3.5152508119    -2.5690114222    -1.1952727962
   14      C       2.0606700125    -1.6589204591     1.1312972482
   15      H       7.0160610887     0.7884300176    -2.0786090700
   16      H       7.7912904787     2.9401910394    -1.0917452611
   17      H       6.6328683201     3.8678924989     0.9129436531
   18      H       4.7072013463     2.6282551718     1.9063297807
   19      H       4.1667250687    -2.6300259894    -1.9288581414
   20      C       0.6919102335    -1.1519733019     0.6389381683
   21      C      -0.4820182714    -1.8780378618     1.3257360369
   22      C      -1.8397337144    -1.3980952285     0.8702163675
   23      C      -2.4253959046    -0.2518767241     1.4235658079
   24      C      -2.5464086379    -2.0555282259    -0.1410220631
   25      C      -3.7851713888    -1.5886852828    -0.5800613565
   26      C      -4.3697674396    -0.4459399088    -0.0270160410
   27      C      -3.6619549126     0.2140229017     0.9862087016
   28      C      -5.7211067038     0.0477788597    -0.5135285888
   29      C      -6.8016229726     0.0052396607     0.5898570742
   30      C      -5.6507772344     1.4591812316    -1.1375375475
   31      C      -7.0187823810     1.9293972276    -1.6525967766
   32      C      -8.1696575752     0.4759811375     0.0752773064
   33      C      -8.0886788030     1.8740370131    -0.5533145358
   34      H       2.1059151952    -1.5256415844     2.2172755456
   35      H       2.1485676773    -2.7278046699     0.9113984493
   36      H       0.6190594329    -1.2867156002    -0.4457425902
   37      H       0.6221896465    -0.0781022585     0.8357180372
   38      H      -0.3919650770    -1.7401477231     2.4094974580
   39      H      -0.3959755108    -2.9546779450     1.1385654126
   40      H      -1.8992344350     0.2845196011     2.2073345980
   41      H      -2.1198884636    -2.9457051671    -0.5936652842
   42      H      -4.3070057127    -2.1243473454    -1.3683905555
   43      H      -4.0774033414     1.1062632910     1.4444709546
   44      H      -6.0459249239    -0.6387847454    -1.3076731943
   45      H      -6.4882813868     0.6446434370     1.4245432213
   46      H      -6.8738799621    -1.0111884082     0.9902259861
   47      H      -4.9155668514     1.4631212008    -1.9482486496
   48      H      -5.2837725626     2.1679790550    -0.3850035562
   49      H      -7.3292706848     1.2893522931    -2.4894590899
   50      H      -6.9388884637     2.9457066736    -2.0536480477
   51      H      -8.9006313890     0.4683020704     0.8915097461
   52      H      -8.5367022266    -0.2355499304    -0.6766836144
   53      H      -7.8409649978     2.6057908761     0.2271429914
   54      H      -9.0645238717     2.1669788530    -0.9565471495
 ----------------------------------------------------------------

   14   -1194.4196063531      4.34e-07  Convergence criterion met
 Total energy in the final basis set =    -1194.4196063531
    6   -1194.5027404485      8.67e-07  Convergence criterion met
 Total energy in the final basis set =    -1194.5027404485

                    Orbital Energies (a.u.)
 --------------------------------------------------------------

 Alpha MOs
 -- Occupied --
-19.1450 -19.0892 -19.0773 -10.2257 -10.2237 -10.2231 -10.1765 -10.1758
-10.1755 -10.1736 -10.1722 -10.1712 -10.1709 -10.1705 -10.1696 -10.1689
-10.1685 -10.1683 -10.1679 -10.1641 -10.1639 -10.1597 -10.1587 -10.1581
-10.1579 -10.1569 -10.1568 -10.1560  -1.0651  -1.0030  -0.9994  -0.8626
 -0.8594  -0.8284  -0.8135  -0.7908  -0.7666  -0.7516  -0.7433  -0.7418
 -0.7354  -0.7158  -0.6842  -0.6603  -0.6251  -0.6150  -0.6079  -0.6042
 -0.5971  -0.5791  -0.5699  -0.5666  -0.5453  -0.5378  -0.5064  -0.4984
 -0.4853  -0.4756  -0.4652  -0.4614  -0.4529  -0.4468  -0.4398  -0.4373
 -0.4327  -0.4293  -0.4267  -0.4223  -0.4196  -0.4141  -0.4097  -0.4018
 -0.3972  -0.3905  -0.3872  -0.3818  -0.3728  -0.3720  -0.3687  -0.3650
 -0.3541  -0.3493  -0.3456  -0.3423  -0.3395  -0.3384  -0.3339  -0.3294
 -0.3286  -0.3215  -0.3108  -0.2978  -0.2961  -0.2693  -0.2634  -0.2588
 -0.2545  -0.2434  -0.2381  -0.2271  -0.1536

 Beta MOs
 -- Occupied --
-19.1445 -19.0830 -19.0721 -10.2243 -10.2222 -10.2206 -10.1765 -10.1757
-10.1755 -10.1725 -10.1721 -10.1705 -10.1705 -10.1704 -10.1698 -10.1689
-10.1685 -10.1683 -10.1679 -10.1639 -10.1633 -10.1596 -10.1587 -10.1581
-10.1579 -10.1569 -10.1568 -10.1560  -1.0629  -0.9938  -0.9890  -0.8625
 -0.8570  -0.8283  -0.8110  -0.7895  -0.7652  -0.7494  -0.7433  -0.7409
 -0.7354  -0.7150  -0.6796  -0.6553  -0.6240  -0.6136  -0.6075  -0.6042
 -0.5960  -0.5780  -0.5678  -0.5661  -0.5453  -0.5360  -0.5043  -0.4980
 -0.4831  -0.4749  -0.4649  -0.4602  -0.4521  -0.4466  -0.4380  -0.4328
 -0.4297  -0.4276  -0.4251  -0.4219  -0.4155  -0.4131  -0.4058  -0.3990
 -0.3962  -0.3873  -0.3804  -0.3789  -0.3728  -0.3702  -0.3652  -0.3589
 -0.3515  -0.3459  -0.3426  -0.3387  -0.3384  -0.3326  -0.3310  -0.3281
 -0.3280  -0.3204  -0.3108  -0.2978  -0.2961  -0.2580  -0.2545  -0.2520
 -0.2497  -0.2395  -0.2360  -0.2195

          Ground-State Mulliken Net Atomic Charges

     Atom                 Charge (a.u.)    Spin (a.u.)
  --------------------------------------------------------
      1 C                     0.151070       0.078368
      2 C                    -0.407624      -0.000932
      3 C                    -0.495947       0.071515
      4 C                     0.213699      -0.011700
      5 C                     0.232467       0.067441
      6 C                     0.103044       0.004233
      7 C                    -0.828353       0.188438
      8 C                    -0.686037       0.046434
      9 C                     1.785668       0.036845
     10 C                    -0.843104       0.085523
     11 O                    -0.546483       0.222523
     12 O                    -0.477759       0.192065
     13 O                    -0.298434       0.016732
     14 C                    -0.338092       0.011305
     15 H                     0.185970      -0.003782
     16 H                     0.199887      -0.000573
     17 H                     0.200570      -0.005094
     18 H                     0.180577      -0.000124
     19 H                     0.309094      -0.003112
     20 C                    -0.443202      -0.003748
     21 C                    -0.666797       0.007039
     22 C                     1.008701      -0.002134
     23 C                    -0.323683      -0.000366
     24 C                    -0.575469       0.000054
     25 C                    -0.445037       0.000075
     26 C                     0.509562       0.000117
     27 C                    -0.514882      -0.000190
     28 C                     0.239614       0.000242
     29 C                    -0.429374      -0.000013
     30 C                    -0.428174      -0.000164
     31 C                    -0.422291      -0.000011
     32 C                    -0.439732      -0.000011
     33 C                    -0.407199       0.000006
     34 H                     0.189689       0.002553
     35 H                     0.218236      -0.000795
     36 H                     0.182050       0.001566
     37 H                     0.193675      -0.001002
     38 H                     0.171535       0.000717
     39 H                     0.157133      -0.000036
     40 H                     0.206342      -0.000073
     41 H                     0.201875       0.000028
     42 H                     0.193958      -0.000006
     43 H                     0.200617       0.000027
     44 H                     0.190887       0.000012
     45 H                     0.147177       0.000001
     46 H                     0.181635       0.000007
     47 H                     0.179144      -0.000004
     48 H                     0.145445       0.000000
     49 H                     0.136310       0.000000
     50 H                     0.180851       0.000001
     51 H                     0.178947       0.000003
     52 H                     0.138192      -0.000001
     53 H                     0.122519      -0.000001
     54 H                     0.181462       0.000000
  --------------------------------------------------------
  Sum of atomic charges =    -1.000070

                    Cartesian Multipole Moments
 -----------------------------------------------------------------
    Charge (ESU x 10^10)
                -4.8035
    Dipole Moment (Debye)
         X     -19.6076      Y       2.0746      Z      -0.2699
       Tot      19.7188
    Quadrupole Moments (Debye-Ang)
        XX    -252.9005     XY      10.4924     YY    -175.8100
        XZ      13.0139     YZ      -6.2468     ZZ    -191.8876

 Total job time:  473.43s(wall), 3495.87s(cpu)
        *  Thank you very much for using Q-Chem.  Have a nice day.  *
