 Q-Chem 5.4, Q-Chem, Inc., Pleasanton, CA (2021)
 Q-Chem 5.4.0 for Intel X86 EM64T Linux

User input:
--------------------------------------------------------------
$molecule
-2 1
C                 -2.1784800000     -3.9145440000      1.1110960000
C                 -0.7649990000     -3.8387700000      1.3860580000
C                 -0.0712750000     -2.6745710000      1.6689390000
C                 -0.6869860000     -1.3781810000      1.7158260000
C                 -2.1087360000     -1.4155680000      1.4580030000
C                 -2.7794830000     -2.6202910000      1.1655950000
O                 -2.7857930000     -5.0222360000      0.8666290000
O                 -0.0320230000     -0.2894970000      1.9254480000
Cl                -4.5650130000     -2.5645240000      0.9129400000
C                 -2.8030690000     -0.1079590000      1.4601070000
O                 -3.2392040000      0.5118670000      0.5094410000
O                 -2.9142810000      0.4050780000      2.7293050000
C                 -3.3774950000      1.7498140000      2.8131470000
H                 -0.2393440000     -4.7936220000      1.3662270000
H                  1.0005100000     -2.7077130000      1.8635500000
H                 -3.3810010000      2.0055210000      3.8759890000
H                 -4.3864980000      1.8534950000      2.4014020000
H                 -2.7082000000      2.4266620000      2.2721980000
$end
$rem
MAX_SCF_CYCLES=200
BASIS  =  6-311++G(d,p)
GUI  =  2
JOB_TYPE  =  SP
METHOD  =  B3LYP
SOLVENT_METHOD = PCM
$end
$pcm
theory = CPCM
$end
$solvent
dielectric 37.219
opticaldielectric 1.43
$end

--------------------------------------------------------------

             Standard Nuclear Orientation (Angstroms)
    I     Atom           X                Y                Z
 ----------------------------------------------------------------
    1      C      -2.1784800000    -3.9145440000     1.1110960000
    2      C      -0.7649990000    -3.8387700000     1.3860580000
    3      C      -0.0712750000    -2.6745710000     1.6689390000
    4      C      -0.6869860000    -1.3781810000     1.7158260000
    5      C      -2.1087360000    -1.4155680000     1.4580030000
    6      C      -2.7794830000    -2.6202910000     1.1655950000
    7      O      -2.7857930000    -5.0222360000     0.8666290000
    8      O      -0.0320230000    -0.2894970000     1.9254480000
    9      Cl     -4.5650130000    -2.5645240000     0.9129400000
   10      C      -2.8030690000    -0.1079590000     1.4601070000
   11      O      -3.2392040000     0.5118670000     0.5094410000
   12      O      -2.9142810000     0.4050780000     2.7293050000
   13      C      -3.3774950000     1.7498140000     2.8131470000
   14      H      -0.2393440000    -4.7936220000     1.3662270000
   15      H       1.0005100000    -2.7077130000     1.8635500000
   16      H      -3.3810010000     2.0055210000     3.8759890000
   17      H      -4.3864980000     1.8534950000     2.4014020000
   18      H      -2.7082000000     2.4266620000     2.2721980000
 ----------------------------------------------------------------

    9   -1069.4166701214      7.16e-06  Convergence criterion met
 Total energy in the final basis set =    -1069.4166701214

                    Orbital Energies (a.u.)
 --------------------------------------------------------------

 Alpha MOs
 -- Occupied --
******** -19.1575 -19.1106 -19.0289 -19.0274 -10.2976 -10.2098 -10.1954
-10.1905 -10.1879 -10.1536 -10.1394 -10.1354  -9.4450  -7.2087  -7.2004
 -7.2000  -1.0979  -1.0127  -0.9480  -0.9443  -0.8417  -0.7850  -0.7422
 -0.6954  -0.6607  -0.6016  -0.5505  -0.5445  -0.4923  -0.4761  -0.4748
 -0.4450  -0.4370  -0.4186  -0.3957  -0.3842  -0.3784  -0.3734  -0.3565
 -0.3475  -0.3399  -0.3339  -0.3135  -0.3025  -0.2950  -0.2816  -0.2383
 -0.2244  -0.2108  -0.2091  -0.1328

          Ground-State Mulliken Net Atomic Charges

     Atom                 Charge (a.u.)
  ----------------------------------------
      1 C                    -0.584987
      2 C                    -0.118093
      3 C                     0.074919
      4 C                    -0.709480
      5 C                     0.825164
      6 C                     0.303867
      7 O                    -0.691755
      8 O                    -0.676178
      9 Cl                    0.300495
     10 C                    -0.933232
     11 O                    -0.305409
     12 O                    -0.067191
     13 C                    -0.269495
     14 H                     0.166959
     15 H                     0.161877
     16 H                     0.169996
     17 H                     0.168787
     18 H                     0.183756
  ----------------------------------------
  Sum of atomic charges =    -2.000000

                    Cartesian Multipole Moments
 -----------------------------------------------------------------
    Charge (ESU x 10^10)
                -9.6064
    Dipole Moment (Debye)
         X      18.7094      Y      23.7063      Z     -10.9278
       Tot      32.1161
    Quadrupole Moments (Debye-Ang)
        XX    -149.4841     XY     -68.9666     YY    -189.3768
        XZ      10.8145     YZ      26.1367     ZZ    -106.7461

 Total job time:  26.66s(wall), 148.36s(cpu)
        *  Thank you very much for using Q-Chem.  Have a nice day.  *
