 Q-Chem 5.4, Q-Chem, Inc., Pleasanton, CA (2021)
 Q-Chem 5.4.0 for Intel X86 EM64T Linux

User input:
--------------------------------------------------------------
$molecule
-2 1
C                 -1.4954500000      0.3433180000      0.9466200000
C                 -1.9868850000      1.4874140000      0.3516870000
C                 -1.0776260000      2.4209280000     -0.2980880000
O                 -1.4944550000      3.4891950000     -0.8556050000
C                  0.3197530000      2.0594810000     -0.2718550000
C                  0.8109080000      0.9143930000      0.3212840000
C                 -0.0977640000     -0.0166450000      0.9755140000
O                  0.3195560000     -1.0831090000      1.5360930000
H                  0.9846370000      2.7649390000     -0.7631140000
C                  2.2769040000      0.5396030000      0.3473000000
C                  3.2531320000      1.4884860000     -0.3546440000
C                  4.7086030000      1.0076380000     -0.2804010000
C                  5.7174750000      1.9475300000     -0.9552060000
C                  7.1657450000      1.4475410000     -0.8635760000
C                  8.2450570000      2.3878130000     -1.4359460000
C                  9.6499190000      1.8755090000     -1.0859150000
C                  8.1081590000      2.5886110000     -2.9525390000
C                 -3.4529480000      1.8617660000      0.3248380000
C                 -4.4354320000      0.8846000000      0.9774160000
C                 -5.8931770000      1.3555490000      0.8862340000
C                 -6.9050610000      0.3994640000      1.5330320000
C                 -8.3563960000      0.8855510000      1.4187530000
C                 -9.4356940000     -0.0687500000      1.9676100000
C                -10.8392420000      0.4275830000      1.5901810000
C                 -9.3269400000     -0.2700660000      3.4864520000
H                 -2.1605020000     -0.3628740000      1.4366130000
H                  2.3803200000     -0.4698610000     -0.0748150000
H                  2.5821690000      0.4155770000      1.3963930000
H                  3.1824110000      2.4895360000      0.0892680000
H                  2.9661500000      1.6050880000     -1.4074100000
H                  4.7834350000      0.0118020000     -0.7380380000
H                  4.9912550000      0.8750200000      0.7726990000
H                  5.6496250000      2.9413230000     -0.4920010000
H                  5.4299930000      2.0820520000     -2.0045380000
H                  7.2464300000      0.4726460000     -1.3651260000
H                  7.4003320000      1.2597920000      0.1927220000
H                  8.1185980000      3.3684250000     -0.9558450000
H                  9.7808110000      1.7782060000     -0.0020660000
H                 10.4318250000      2.5481490000     -1.4551180000
H                  9.8303020000      0.8891860000     -1.5308010000
H                  8.8932340000      3.2506880000     -3.3336610000
H                  7.1431220000      3.0267130000     -3.2222950000
H                  8.2011460000      1.6318920000     -3.4804840000
H                 -3.7449030000      2.0304200000     -0.7211740000
H                 -3.5642040000      2.8524430000      0.7890540000
H                 -4.1698020000      0.7386430000      2.0320030000
H                 -4.3466610000     -0.1020290000      0.5051570000
H                 -6.1597540000      1.5002030000     -0.1695720000
H                 -5.9830280000      2.3445890000      1.3556840000
H                 -6.6362280000      0.2590510000      2.5866690000
H                 -6.8179480000     -0.5896280000      1.0632800000
H                 -8.5744580000      1.0765510000      0.3594750000
H                 -8.4555880000      1.8567880000      1.9238840000
H                 -9.2877340000     -1.0469700000      1.4887410000
H                -11.6207250000     -0.2533890000      1.9446350000
H                -10.9501080000      0.5235980000      0.5039870000
H                -11.0391060000      1.4118390000      2.0313550000
H                -10.1099820000     -0.9440350000      3.8507190000
H                 -9.4445790000      0.6843730000      4.0135740000
H                 -8.3612700000     -0.6943140000      3.7754960000
$end
$rem
MAX_SCF_CYCLES=200
BASIS  =  6-311++G(d,p)
GUI  =  2
JOB_TYPE  =  SP
METHOD  =  B3LYP
SCF_ALGORITHM = DIIS_GDM
THRESH = 14
SOLVENT_METHOD = PCM
$end
$pcm
theory = CPCM
$end
$solvent
dielectric 37.219
opticaldielectric 1.43
$end

--------------------------------------------------------------

             Standard Nuclear Orientation (Angstroms)
    I     Atom           X                Y                Z
 ----------------------------------------------------------------
    1      C      -1.4954500000     0.3433180000     0.9466200000
    2      C      -1.9868850000     1.4874140000     0.3516870000
    3      C      -1.0776260000     2.4209280000    -0.2980880000
    4      O      -1.4944550000     3.4891950000    -0.8556050000
    5      C       0.3197530000     2.0594810000    -0.2718550000
    6      C       0.8109080000     0.9143930000     0.3212840000
    7      C      -0.0977640000    -0.0166450000     0.9755140000
    8      O       0.3195560000    -1.0831090000     1.5360930000
    9      H       0.9846370000     2.7649390000    -0.7631140000
   10      C       2.2769040000     0.5396030000     0.3473000000
   11      C       3.2531320000     1.4884860000    -0.3546440000
   12      C       4.7086030000     1.0076380000    -0.2804010000
   13      C       5.7174750000     1.9475300000    -0.9552060000
   14      C       7.1657450000     1.4475410000    -0.8635760000
   15      C       8.2450570000     2.3878130000    -1.4359460000
   16      C       9.6499190000     1.8755090000    -1.0859150000
   17      C       8.1081590000     2.5886110000    -2.9525390000
   18      C      -3.4529480000     1.8617660000     0.3248380000
   19      C      -4.4354320000     0.8846000000     0.9774160000
   20      C      -5.8931770000     1.3555490000     0.8862340000
   21      C      -6.9050610000     0.3994640000     1.5330320000
   22      C      -8.3563960000     0.8855510000     1.4187530000
   23      C      -9.4356940000    -0.0687500000     1.9676100000
   24      C     -10.8392420000     0.4275830000     1.5901810000
   25      C      -9.3269400000    -0.2700660000     3.4864520000
   26      H      -2.1605020000    -0.3628740000     1.4366130000
   27      H       2.3803200000    -0.4698610000    -0.0748150000
   28      H       2.5821690000     0.4155770000     1.3963930000
   29      H       3.1824110000     2.4895360000     0.0892680000
   30      H       2.9661500000     1.6050880000    -1.4074100000
   31      H       4.7834350000     0.0118020000    -0.7380380000
   32      H       4.9912550000     0.8750200000     0.7726990000
   33      H       5.6496250000     2.9413230000    -0.4920010000
   34      H       5.4299930000     2.0820520000    -2.0045380000
   35      H       7.2464300000     0.4726460000    -1.3651260000
   36      H       7.4003320000     1.2597920000     0.1927220000
   37      H       8.1185980000     3.3684250000    -0.9558450000
   38      H       9.7808110000     1.7782060000    -0.0020660000
   39      H      10.4318250000     2.5481490000    -1.4551180000
   40      H       9.8303020000     0.8891860000    -1.5308010000
   41      H       8.8932340000     3.2506880000    -3.3336610000
   42      H       7.1431220000     3.0267130000    -3.2222950000
   43      H       8.2011460000     1.6318920000    -3.4804840000
   44      H      -3.7449030000     2.0304200000    -0.7211740000
   45      H      -3.5642040000     2.8524430000     0.7890540000
   46      H      -4.1698020000     0.7386430000     2.0320030000
   47      H      -4.3466610000    -0.1020290000     0.5051570000
   48      H      -6.1597540000     1.5002030000    -0.1695720000
   49      H      -5.9830280000     2.3445890000     1.3556840000
   50      H      -6.6362280000     0.2590510000     2.5866690000
   51      H      -6.8179480000    -0.5896280000     1.0632800000
   52      H      -8.5744580000     1.0765510000     0.3594750000
   53      H      -8.4555880000     1.8567880000     1.9238840000
   54      H      -9.2877340000    -1.0469700000     1.4887410000
   55      H     -11.6207250000    -0.2533890000     1.9446350000
   56      H     -10.9501080000     0.5235980000     0.5039870000
   57      H     -11.0391060000     1.4118390000     2.0313550000
   58      H     -10.1099820000    -0.9440350000     3.8507190000
   59      H      -9.4445790000     0.6843730000     4.0135740000
   60      H      -8.3612700000    -0.6943140000     3.7754960000
 ----------------------------------------------------------------

   12   -1011.0150803685      9.21e-06  Convergence criterion met
 Total energy in the final basis set =    -1011.0150803685

                    Orbital Energies (a.u.)
 --------------------------------------------------------------

 Alpha MOs
 -- Occupied --
-19.0086 -19.0085 -10.1636 -10.1636 -10.1545 -10.1545 -10.1511 -10.1511
-10.1504 -10.1504 -10.1488 -10.1488 -10.1478 -10.1478 -10.1469 -10.1469
-10.1447 -10.1447 -10.1387 -10.1387 -10.1161 -10.1160 -10.1070 -10.1070
 -0.9325  -0.9297  -0.8062  -0.8060  -0.7869  -0.7812  -0.7633  -0.7426
 -0.7200  -0.6926  -0.6746  -0.6746  -0.6618  -0.6465  -0.6220  -0.6050
 -0.5757  -0.5702  -0.5615  -0.5491  -0.5473  -0.5241  -0.4955  -0.4685
 -0.4684  -0.4483  -0.4475  -0.4331  -0.4314  -0.4294  -0.4227  -0.4201
 -0.4166  -0.4061  -0.4031  -0.3917  -0.3869  -0.3786  -0.3760  -0.3739
 -0.3729  -0.3658  -0.3619  -0.3603  -0.3486  -0.3474  -0.3433  -0.3408
 -0.3354  -0.3344  -0.3286  -0.3220  -0.3165  -0.3153  -0.3151  -0.3099
 -0.3095  -0.3081  -0.3076  -0.3062  -0.3005  -0.2987  -0.2914  -0.2843
 -0.2190  -0.1991  -0.1906  -0.1843  -0.1008

          Ground-State Mulliken Net Atomic Charges

     Atom                 Charge (a.u.)
  ----------------------------------------
      1 C                    -1.211620
      2 C                     1.450921
      3 C                    -0.575261
      4 O                    -0.732256
      5 C                    -1.212433
      6 C                     1.441953
      7 C                    -0.578790
      8 O                    -0.732390
      9 H                     0.098964
     10 C                    -0.324057
     11 C                    -0.138307
     12 C                    -0.379060
     13 C                     0.014624
     14 C                    -0.713034
     15 C                     0.504423
     16 C                    -0.672533
     17 C                    -0.711616
     18 C                    -0.330501
     19 C                    -0.144491
     20 C                    -0.371451
     21 C                     0.014717
     22 C                    -0.717821
     23 C                     0.502373
     24 C                    -0.672897
     25 C                    -0.710186
     26 H                     0.098764
     27 H                     0.151207
     28 H                     0.152486
     29 H                     0.136368
     30 H                     0.137788
     31 H                     0.135587
     32 H                     0.124081
     33 H                     0.135986
     34 H                     0.111212
     35 H                     0.137168
     36 H                     0.135997
     37 H                     0.142519
     38 H                     0.140267
     39 H                     0.163958
     40 H                     0.145198
     41 H                     0.150312
     42 H                     0.152449
     43 H                     0.148953
     44 H                     0.151575
     45 H                     0.151983
     46 H                     0.137379
     47 H                     0.136720
     48 H                     0.123492
     49 H                     0.135676
     50 H                     0.110822
     51 H                     0.135907
     52 H                     0.135573
     53 H                     0.138154
     54 H                     0.142533
     55 H                     0.164019
     56 H                     0.140238
     57 H                     0.145345
     58 H                     0.150155
     59 H                     0.148762
     60 H                     0.152096
  ----------------------------------------
  Sum of atomic charges =    -2.000000

                    Cartesian Multipole Moments
 -----------------------------------------------------------------
    Charge (ESU x 10^10)
                -9.6064
    Dipole Moment (Debye)
         X       5.6471      Y     -11.5472      Z      -3.2549
       Tot      13.2598
    Quadrupole Moments (Debye-Ang)
        XX    -185.0105     XY      25.3610     YY    -222.0123
        XZ      -4.1714     YZ      20.3929     ZZ    -178.1927

 Total job time:  398.78s(wall), 2727.36s(cpu)
        *  Thank you very much for using Q-Chem.  Have a nice day.  *
