 Gaussian 16, Revision A.03,
 Gaussian 16:  ES64L-G16RevA.03 25-Dec-2016

 ---------------------------------------------------------
 #P UB3LYP/genecp SCRF=(PCM,Solvent=n,n-DiMethylFormamide)
 ---------------------------------------------------------

 ------------------
 Quinone PCM in DMF
 ------------------
 Symbolic Z-matrix:
 Charge =  0 Multiplicity = 1

                         Standard orientation:
 ---------------------------------------------------------------------
 Center     Atomic      Atomic             Coordinates (Angstroms)
 Number     Number       Type             X           Y           Z
 ---------------------------------------------------------------------
      1          6           0        3.976694   -1.798730    0.000041
      2          6           0        5.308174   -1.400240   -0.000081
      3          6           0        5.633312   -0.041014   -0.000144
      4          6           0        4.626469    0.917190   -0.000115
      5          6           0        3.284163    0.526459   -0.000034
      6          6           0        2.956831   -0.842213    0.000069
      7          6           0        1.537397   -1.299758    0.000142
      8          6           0        0.476660   -0.246105    0.000083
      9          6           0        0.805481    1.120058    0.000031
     10          6           0        2.224867    1.576949   -0.000039
     11          6           0       -0.862827   -0.645937    0.000057
     12          6           0       -1.865270    0.316645    0.000059
     13          6           0       -1.550136    1.679515    0.000095
     14          6           0       -0.217919    2.072320    0.000058
     15          8           0        1.249681   -2.484645    0.000101
     16          8           0        2.506570    2.764270    0.000073
     17          1           0        3.701972   -2.846250    0.000084
     18          1           0        4.855590    1.975633   -0.000116
     19          1           0       -1.085984   -1.704720   -0.000002
     20          1           0        0.049990    3.121844    0.000069
     21         53           0       -3.886908   -0.281882   -0.000049
     22          1           0        6.095041   -2.145840   -0.000131
     23          1           0        6.672480    0.267603   -0.000194
     24          1           0       -2.336346    2.423635    0.000136
 ---------------------------------------------------------------------

 SCF Done:  E(UB3LYP) =  -986.157226354     A.U. after   15 cycles

 The electronic state is 1-A.
 Alpha  occ. eigenvalues --  -19.13701 -19.13544 -10.28908 -10.28757 -10.24736
 Alpha  occ. eigenvalues --  -10.21859 -10.21546 -10.21275 -10.21221 -10.21119
 Alpha  occ. eigenvalues --  -10.21064 -10.20720 -10.20165 -10.20122 -10.20071
 Alpha  occ. eigenvalues --  -10.20053  -6.85763  -4.88212  -4.87048  -4.87004
 Alpha  occ. eigenvalues --   -1.93025  -1.92638  -1.92613  -1.91604  -1.91604
 Alpha  occ. eigenvalues --   -1.07237  -1.06979  -0.90379  -0.88935  -0.82312
 Alpha  occ. eigenvalues --   -0.79208  -0.78205  -0.78061  -0.71855  -0.69195
 Alpha  occ. eigenvalues --   -0.66830  -0.64176  -0.62390  -0.59253  -0.56721
 Alpha  occ. eigenvalues --   -0.55395  -0.51179  -0.49657  -0.49334  -0.47548
 Alpha  occ. eigenvalues --   -0.46332  -0.46174  -0.46113  -0.45378  -0.44939
 Alpha  occ. eigenvalues --   -0.44082  -0.42468  -0.40415  -0.39556  -0.38414
 Alpha  occ. eigenvalues --   -0.37839  -0.37253  -0.36348  -0.31652  -0.29362
 Alpha  occ. eigenvalues --   -0.29196  -0.28501  -0.28228  -0.28171  -0.27751
 Alpha  occ. eigenvalues --   -0.25917
 Alpha virt. eigenvalues --   -0.12369  -0.08087  -0.04901  -0.04419  -0.03389
 Alpha virt. eigenvalues --   -0.00655   0.00231   0.01028   0.01949   0.02238
 Alpha virt. eigenvalues --    0.02480   0.02965   0.03891   0.04312   0.04526

  Beta  occ. eigenvalues --  -19.13701 -19.13544 -10.28908 -10.28757 -10.24736
  Beta  occ. eigenvalues --  -10.21859 -10.21546 -10.21275 -10.21221 -10.21119
  Beta  occ. eigenvalues --  -10.21064 -10.20720 -10.20165 -10.20122 -10.20071
  Beta  occ. eigenvalues --  -10.20053  -6.85763  -4.88212  -4.87048  -4.87004
  Beta  occ. eigenvalues --   -1.93025  -1.92638  -1.92613  -1.91604  -1.91604
  Beta  occ. eigenvalues --   -1.07237  -1.06979  -0.90379  -0.88935  -0.82312
  Beta  occ. eigenvalues --   -0.79208  -0.78205  -0.78061  -0.71855  -0.69195
  Beta  occ. eigenvalues --   -0.66830  -0.64176  -0.62390  -0.59253  -0.56721
  Beta  occ. eigenvalues --   -0.55395  -0.51179  -0.49657  -0.49334  -0.47548
  Beta  occ. eigenvalues --   -0.46332  -0.46174  -0.46113  -0.45378  -0.44939
  Beta  occ. eigenvalues --   -0.44082  -0.42468  -0.40415  -0.39556  -0.38414
  Beta  occ. eigenvalues --   -0.37839  -0.37253  -0.36348  -0.31652  -0.29362
  Beta  occ. eigenvalues --   -0.29196  -0.28501  -0.28228  -0.28171  -0.27751
  Beta  occ. eigenvalues --   -0.25917
  Beta virt. eigenvalues --   -0.12369  -0.08087  -0.04901  -0.04419  -0.03389
  Beta virt. eigenvalues --   -0.00655   0.00231   0.01028   0.01949   0.02238
  Beta virt. eigenvalues --    0.02480   0.02965   0.03891   0.04312   0.04526

 Mulliken charges and spin densities:
               1          2
     1  C    0.160756   0.000000
     2  C   -0.402103   0.000000
     3  C   -0.403884  -0.000000
     4  C    0.193514  -0.000000
     5  C    0.157234   0.000000
     6  C    0.263545  -0.000000
     7  C   -0.518681  -0.000000
     8  C    0.210391   0.000000
     9  C    0.287898   0.000000
    10  C   -0.592929  -0.000000
    11  C    0.271488   0.000000
    12  C    0.255875  -0.000000
    13  C   -0.736491   0.000000
    14  C    0.103456   0.000000
    15  O   -0.266764   0.000000
    16  O   -0.270177   0.000000
    17  H    0.186241  -0.000000
    18  H    0.188382   0.000000
    19  H    0.169948   0.000000
    20  H    0.196474   0.000000
    21  I   -0.062252   0.000000
    22  H    0.209643   0.000000
    23  H    0.209708  -0.000000
    24  H    0.188728   0.000000
 Sum of Mulliken charges =  -0.00000  -0.00000

 Dipole moment (field-independent basis, Debye):
    X=              1.7034    Y=              0.2927    Z=             -0.0003  Tot=              1.7283
 Quadrupole moment (field-independent basis, Debye-Ang):
   XX=            -90.0016   YY=           -127.1456   ZZ=           -120.7307
   XY=            -10.2660   XZ=             -0.0012   YZ=              0.0000

 Normal termination of Gaussian 16 at Sun Jan 14 01:32:05 2024.
