 Q-Chem 5.4, Q-Chem, Inc., Pleasanton, CA (2021)
 Q-Chem 5.4.0 for Intel X86 EM64T Linux

User input:
--------------------------------------------------------------
$molecule
0 1
O                 -1.2806830000      2.4648820000      0.3307700000
C                 -1.2463240000      1.2483330000      0.2155320000
C                 -2.4739570000      0.4507970000      0.1937730000
C                 -2.4353800000     -0.8914040000      0.0666220000
O                 -3.5281840000     -1.6602370000      0.0415890000
C                 -1.1454820000     -1.6452190000     -0.0592430000
O                 -1.2099240000     -2.8624210000     -0.1700570000
C                  0.1110940000     -0.8742880000     -0.0410660000
C                  1.3384310000     -1.5336370000     -0.1553320000
C                  2.5203910000     -0.8006000000     -0.1374940000
C                  2.4782970000      0.5888670000     -0.0058180000
C                  1.2569050000      1.2498880000      0.1083480000
C                  0.0668230000      0.5254550000      0.0916770000
H                 -3.4130440000      0.9828830000      0.2838150000
H                  1.3467280000     -2.6120170000     -0.2564760000
H                  3.4734190000     -1.3090160000     -0.2258760000
H                  3.4008530000      1.1580450000      0.0078140000
H                  1.2054680000      2.3268270000      0.2111800000
H                 -3.2159580000     -2.5800110000     -0.0579300000
$end
$rem
MAX_SCF_CYCLES=200
BASIS  =  6-311++G(d,p)
GUI  =  2
JOB_TYPE  =  SP
METHOD  =  B3LYP
SOLVENT_METHOD = PCM
$end
$pcm
theory = CPCM
$end
$solvent
dielectric 37.219
opticaldielectric 1.43
$end

--------------------------------------------------------------

             Standard Nuclear Orientation (Angstroms)
    I     Atom           X                Y                Z
 ----------------------------------------------------------------
    1      O      -1.2806830000     2.4648820000     0.3307700000
    2      C      -1.2463240000     1.2483330000     0.2155320000
    3      C      -2.4739570000     0.4507970000     0.1937730000
    4      C      -2.4353800000    -0.8914040000     0.0666220000
    5      O      -3.5281840000    -1.6602370000     0.0415890000
    6      C      -1.1454820000    -1.6452190000    -0.0592430000
    7      O      -1.2099240000    -2.8624210000    -0.1700570000
    8      C       0.1110940000    -0.8742880000    -0.0410660000
    9      C       1.3384310000    -1.5336370000    -0.1553320000
   10      C       2.5203910000    -0.8006000000    -0.1374940000
   11      C       2.4782970000     0.5888670000    -0.0058180000
   12      C       1.2569050000     1.2498880000     0.1083480000
   13      C       0.0668230000     0.5254550000     0.0916770000
   14      H      -3.4130440000     0.9828830000     0.2838150000
   15      H       1.3467280000    -2.6120170000    -0.2564760000
   16      H       3.4734190000    -1.3090160000    -0.2258760000
   17      H       3.4008530000     1.1580450000     0.0078140000
   18      H       1.2054680000     2.3268270000     0.2111800000
   19      H      -3.2159580000    -2.5800110000    -0.0579300000
 ----------------------------------------------------------------

    9    -610.5324984377      5.39e-06  Convergence criterion met
 Total energy in the final basis set =     -610.5324984377

                    Orbital Energies (a.u.)
 --------------------------------------------------------------

 Alpha MOs
 -- Occupied --
-19.1847 -19.1542 -19.1312 -10.2981 -10.2841 -10.2769 -10.2130 -10.2113
-10.2023 -10.2001 -10.1983 -10.1980 -10.1976  -1.1146  -1.0732  -1.0647
 -0.8941  -0.8372  -0.7822  -0.7760  -0.7033  -0.6611  -0.6432  -0.6067
 -0.5772  -0.5469  -0.5284  -0.4963  -0.4849  -0.4738  -0.4712  -0.4537
 -0.4500  -0.4388  -0.4275  -0.4122  -0.4101  -0.3834  -0.3794  -0.3714
 -0.3068  -0.2931  -0.2831  -0.2816  -0.2691

          Ground-State Mulliken Net Atomic Charges

     Atom                 Charge (a.u.)
  ----------------------------------------
      1 O                    -0.327137
      2 C                    -0.417541
      3 C                     0.372537
      4 C                    -0.217820
      5 O                    -0.237248
      6 C                    -0.526321
      7 O                    -0.307528
      8 C                     0.243983
      9 C                     0.268636
     10 C                    -0.386248
     11 C                    -0.354751
     12 C                     0.287510
     13 C                     0.170696
     14 H                     0.254488
     15 H                     0.201985
     16 H                     0.229969
     17 H                     0.229915
     18 H                     0.193107
     19 H                     0.321770
  ----------------------------------------
  Sum of atomic charges =     0.000000

                    Cartesian Multipole Moments
 -----------------------------------------------------------------
    Charge (ESU x 10^10)
                 0.0000
    Dipole Moment (Debye)
         X       3.6247      Y      -2.2614      Z      -0.3667
       Tot       4.2881
    Quadrupole Moments (Debye-Ang)
        XX     -65.9898     XY       4.0142     YY     -84.5553
        XZ       0.1337     YZ      -1.1121     ZZ     -75.6709

 Total job time:  25.70s(wall), 151.68s(cpu)
        *  Thank you very much for using Q-Chem.  Have a nice day.  *
