 Gaussian 16, Revision A.03,
 Gaussian 16:  ES64L-G16RevA.03 25-Dec-2016

 ----------------------------------------------------------------
 #P UB3LYP/6-311++G(d,p) SCRF=(PCM,Solvent=n,n-DiMethylFormamide)
 ----------------------------------------------------------------

 -------
 Reduced
 -------
 Symbolic Z-matrix:
 Charge = -2 Multiplicity = 1

                         Standard orientation:
 ---------------------------------------------------------------------
 Center     Atomic      Atomic             Coordinates (Angstroms)
 Number     Number       Type             X           Y           Z
 ---------------------------------------------------------------------
      1          6           0        5.259056   -0.521045    0.902128
      2          6           0        4.414033   -0.613132   -0.383834
      3          6           0        3.010433   -0.070864   -0.263118
      4          6           0        2.777187    1.337578   -0.230476
      5          6           0        1.494640    1.834396   -0.149569
      6          6           0        0.357006    0.990419   -0.090808
      7          6           0       -0.963550    1.578246    0.001779
      8          8           0       -1.161884    2.841752    0.038412
      9          6           0       -2.055235    0.619317    0.043510
     10          6           0       -3.388142    1.091849    0.131615
     11          6           0       -4.470403    0.235955    0.172668
     12          6           0       -4.257418   -1.168968    0.126885
     13          6           0       -2.970170   -1.660312    0.039342
     14          6           0       -1.839029   -0.808945   -0.005533
     15          6           0       -0.512527   -1.396663   -0.097381
     16          8           0       -0.325889   -2.659244   -0.139241
     17          6           0        0.578074   -0.436827   -0.134310
     18          6           0        1.910531   -0.909334   -0.215525
     19          1           0        4.798377   -1.094758    1.712659
     20          1           0        6.273289   -0.912238    0.739436
     21          1           0        5.352571    0.516411    1.240593
     22          1           0        4.953239   -0.076059   -1.181697
     23          1           0        4.367107   -1.663114   -0.696924
     24          1           0        3.623938    2.020772   -0.275591
     25          1           0        1.307019    2.903449   -0.129046
     26          1           0       -3.516947    2.169265    0.164603
     27          1           0       -5.481713    0.632714    0.240839
     28          1           0       -5.104670   -1.851348    0.159904
     29          1           0       -2.773762   -2.727337    0.001873
     30          1           0        2.036829   -1.987855   -0.254255
 ---------------------------------------------------------------------

 SCF Done:  E(UB3LYP) =  -767.838293118     A.U. after   18 cycles

 The electronic state is 1-A.
 Alpha  occ. eigenvalues --  -19.01752 -19.01709 -10.17039 -10.16986 -10.15906
 Alpha  occ. eigenvalues --  -10.15232 -10.15154 -10.14684 -10.14634 -10.14441
 Alpha  occ. eigenvalues --  -10.14364 -10.14351 -10.14349 -10.13933 -10.13206
 Alpha  occ. eigenvalues --  -10.13168 -10.13136 -10.13090  -0.94002  -0.93676
 Alpha  occ. eigenvalues --   -0.82788  -0.82033  -0.76990  -0.73818  -0.72004
 Alpha  occ. eigenvalues --   -0.71554  -0.69698  -0.63513  -0.61649  -0.59759
 Alpha  occ. eigenvalues --   -0.56885  -0.55566  -0.52168  -0.50056  -0.48597
 Alpha  occ. eigenvalues --   -0.44777  -0.43672  -0.43141  -0.42375  -0.41037
 Alpha  occ. eigenvalues --   -0.39962  -0.39526  -0.39063  -0.37786  -0.36881
 Alpha  occ. eigenvalues --   -0.36666  -0.36552  -0.35621  -0.33959  -0.33315
 Alpha  occ. eigenvalues --   -0.33014  -0.32394  -0.31209  -0.30837  -0.29543
 Alpha  occ. eigenvalues --   -0.29474  -0.23170  -0.22274  -0.22082  -0.20980
 Alpha  occ. eigenvalues --   -0.20006  -0.19207  -0.10013
 Alpha virt. eigenvalues --   -0.02410  -0.00233   0.00335   0.00848   0.01434
 Alpha virt. eigenvalues --    0.01961   0.02089   0.02442   0.02557   0.03914
 Alpha virt. eigenvalues --    0.04275   0.04806   0.05268   0.05855   0.05971

  Beta  occ. eigenvalues --  -19.01752 -19.01709 -10.17039 -10.16986 -10.15906
  Beta  occ. eigenvalues --  -10.15232 -10.15154 -10.14684 -10.14634 -10.14441
  Beta  occ. eigenvalues --  -10.14364 -10.14351 -10.14349 -10.13933 -10.13206
  Beta  occ. eigenvalues --  -10.13168 -10.13136 -10.13090  -0.94002  -0.93676
  Beta  occ. eigenvalues --   -0.82788  -0.82033  -0.76990  -0.73818  -0.72004
  Beta  occ. eigenvalues --   -0.71554  -0.69698  -0.63513  -0.61649  -0.59759
  Beta  occ. eigenvalues --   -0.56885  -0.55566  -0.52168  -0.50056  -0.48597
  Beta  occ. eigenvalues --   -0.44777  -0.43672  -0.43141  -0.42375  -0.41037
  Beta  occ. eigenvalues --   -0.39962  -0.39526  -0.39063  -0.37786  -0.36881
  Beta  occ. eigenvalues --   -0.36666  -0.36552  -0.35621  -0.33959  -0.33315
  Beta  occ. eigenvalues --   -0.33014  -0.32394  -0.31209  -0.30837  -0.29543
  Beta  occ. eigenvalues --   -0.29474  -0.23170  -0.22274  -0.22082  -0.20980
  Beta  occ. eigenvalues --   -0.20006  -0.19207  -0.10013
  Beta virt. eigenvalues --   -0.02410  -0.00233   0.00335   0.00848   0.01434
  Beta virt. eigenvalues --    0.01961   0.02089   0.02442   0.02557   0.03914
  Beta virt. eigenvalues --    0.04275   0.04806   0.05268   0.05855   0.05971

 Mulliken charges and spin densities:
               1          2
     1  C   -0.642934   0.000000
     2  C   -0.158605  -0.000000
     3  C    0.660030   0.000000
     4  C   -0.545878   0.000000
     5  C   -0.041608  -0.000000
     6  C    0.174536   0.000000
     7  C   -0.661620  -0.000000
     8  O   -0.652044  -0.000000
     9  C    0.215815   0.000000
    10  C    0.010531   0.000000
    11  C   -0.504663  -0.000000
    12  C   -0.501095  -0.000000
    13  C   -0.038147  -0.000000
    14  C    0.379704  -0.000000
    15  C   -0.569602   0.000000
    16  O   -0.647978  -0.000000
    17  C    0.179250   0.000000
    18  C   -0.396465  -0.000000
    19  H    0.135493  -0.000000
    20  H    0.136289  -0.000000
    21  H    0.142151  -0.000000
    22  H    0.133434   0.000000
    23  H    0.165835   0.000000
    24  H    0.159621  -0.000000
    25  H    0.146673   0.000000
    26  H    0.143554  -0.000000
    27  H    0.153958   0.000000
    28  H    0.155109  -0.000000
    29  H    0.139980   0.000000
    30  H    0.128676   0.000000
 Sum of Mulliken charges =  -2.00000   0.00000

 Dipole moment (field-independent basis, Debye):
    X=              7.5937    Y=             -0.8930    Z=              0.3573  Tot=              7.6544
 Quadrupole moment (field-independent basis, Debye-Ang):
   XX=           -138.8734   YY=           -167.6658   ZZ=           -119.6537
   XY=              5.9829   XZ=             -0.0944   YZ=             -1.4092

 Normal termination of Gaussian 16 at Sun Jan 14 01:26:35 2024.
