 Gaussian 16, Revision A.03,
 Gaussian 16:  ES64L-G16RevA.03 25-Dec-2016

 --------------------------------------
 #P UB3LYP/6-311++G(d,p) nosym opt freq
 --------------------------------------

 -------
 Reduced
 -------
 Symbolic Z-matrix:
 Charge = -2 Multiplicity = 1

 SCF Done:  E(UB3LYP) =  -767.582963646     A.U. after   34 cycles
 Optimization completed.
    -- Stationary point found.
 Normal termination of Gaussian 16 at Wed Dec 27 19:57:43 2023.

 ----------------------------------------------------------------------
 #P Geom=AllCheck Guess=TCheck SCRF=Check GenChk UB3LYP/6-311++G(d,p) F
 req
 ----------------------------------------------------------------------

 Structure from the checkpoint file:  "125-an.chk"
 -------
 Reduced
 -------
 Charge = -2 Multiplicity = 1

                          Input orientation:
 ---------------------------------------------------------------------
 Center     Atomic      Atomic             Coordinates (Angstroms)
 Number     Number       Type             X           Y           Z
 ---------------------------------------------------------------------
      1          6           0       -4.849074   -0.207916   -0.445496
      2          6           0       -3.948975   -0.518425    0.766794
      3          6           0       -2.536004    0.002013    0.660128
      4          6           0       -2.260129    1.392476    0.832413
      5          6           0       -0.967622    1.864777    0.764160
      6          6           0        0.138858    1.012922    0.519196
      7          6           0        1.471651    1.576000    0.451473
      8          8           0        1.707906    2.824779    0.599326
      9          6           0        2.529407    0.609083    0.207982
     10          6           0        3.871096    1.057300    0.126356
     11          6           0        4.922729    0.192266   -0.100170
     12          6           0        4.667800   -1.197245   -0.259968
     13          6           0        3.371078   -1.665054   -0.184089
     14          6           0        2.270675   -0.803906    0.047980
     15          6           0        0.931914   -1.366619    0.115289
     16          8           0        0.707607   -2.615576   -0.027853
     17          6           0       -0.124952   -0.398089    0.354126
     18          6           0       -1.466509   -0.845224    0.428934
     19          1           0       -4.444623   -0.660084   -1.356701
     20          1           0       -5.866578   -0.595032   -0.293850
     21          1           0       -4.925274    0.871395   -0.615495
     22          1           0       -4.433573   -0.098589    1.663833
     23          1           0       -3.920858   -1.605054    0.912178
     24          1           0       -3.081889    2.080640    1.024550
     25          1           0       -0.747464    2.919270    0.898594
     26          1           0        4.032219    2.123400    0.252740
     27          1           0        5.941849    0.570309   -0.157536
     28          1           0        5.490644   -1.886491   -0.440069
     29          1           0        3.142992   -2.719958   -0.301045
     30          1           0       -1.624899   -1.913366    0.307920
 ---------------------------------------------------------------------

 SCF Done:  E(UB3LYP) =  -767.582963646     A.U. after    6 cycles

 Alpha  occ. eigenvalues --  -18.80540 -18.80250  -9.96768  -9.96595  -9.96307
 Alpha  occ. eigenvalues --   -9.96085  -9.94753  -9.94696  -9.94543  -9.93897
 Alpha  occ. eigenvalues --   -9.93866  -9.93716  -9.93319  -9.93139  -9.92526
 Alpha  occ. eigenvalues --   -9.92488  -9.92185  -9.91912  -0.72450  -0.71956
 Alpha  occ. eigenvalues --   -0.61978  -0.61476  -0.57016  -0.53426  -0.51400
 Alpha  occ. eigenvalues --   -0.50710  -0.49353  -0.43271  -0.41403  -0.39324
 Alpha  occ. eigenvalues --   -0.36568  -0.34845  -0.31334  -0.29558  -0.28201
 Alpha  occ. eigenvalues --   -0.25054  -0.23751  -0.22768  -0.21949  -0.20981
 Alpha  occ. eigenvalues --   -0.19790  -0.18989  -0.18396  -0.17382  -0.16343
 Alpha  occ. eigenvalues --   -0.16110  -0.15582  -0.14503  -0.13945  -0.13462
 Alpha  occ. eigenvalues --   -0.12294  -0.10663  -0.10533  -0.10257  -0.08444
 Alpha  occ. eigenvalues --   -0.08375  -0.02184  -0.00938  -0.00638   0.00152
 Alpha  occ. eigenvalues --    0.01853   0.02557   0.11858
 Alpha virt. eigenvalues --    0.13641   0.15178   0.16599   0.16972   0.17003
 Alpha virt. eigenvalues --    0.18412   0.18678   0.19387   0.19817   0.20381
 Alpha virt. eigenvalues --    0.20801   0.21417   0.21936   0.23091   0.23266

  Beta  occ. eigenvalues --  -18.80540 -18.80250  -9.96768  -9.96595  -9.96307
  Beta  occ. eigenvalues --   -9.96085  -9.94753  -9.94696  -9.94543  -9.93897
  Beta  occ. eigenvalues --   -9.93866  -9.93716  -9.93319  -9.93139  -9.92526
  Beta  occ. eigenvalues --   -9.92488  -9.92185  -9.91912  -0.72450  -0.71956
  Beta  occ. eigenvalues --   -0.61978  -0.61476  -0.57016  -0.53426  -0.51400
  Beta  occ. eigenvalues --   -0.50710  -0.49353  -0.43271  -0.41403  -0.39324
  Beta  occ. eigenvalues --   -0.36568  -0.34845  -0.31334  -0.29558  -0.28201
  Beta  occ. eigenvalues --   -0.25054  -0.23751  -0.22768  -0.21949  -0.20981
  Beta  occ. eigenvalues --   -0.19790  -0.18989  -0.18396  -0.17382  -0.16343
  Beta  occ. eigenvalues --   -0.16110  -0.15582  -0.14503  -0.13945  -0.13462
  Beta  occ. eigenvalues --   -0.12294  -0.10663  -0.10533  -0.10257  -0.08444
  Beta  occ. eigenvalues --   -0.08375  -0.02184  -0.00938  -0.00638   0.00152
  Beta  occ. eigenvalues --    0.01853   0.02557   0.11858
  Beta virt. eigenvalues --    0.13641   0.15178   0.16599   0.16972   0.17003
  Beta virt. eigenvalues --    0.18412   0.18678   0.19387   0.19817   0.20381
  Beta virt. eigenvalues --    0.20801   0.21417   0.21936   0.23091   0.23266

 Mulliken charges and spin densities:
               1          2
     1  C    1.402854  -0.000000
     2  C   -2.327317   0.000000
     3  C    1.621793  -0.000000
     4  C   -0.748907   0.000000
     5  C    0.025098   0.000000
     6  C    0.435871   0.000000
     7  C   -0.956239  -0.000000
     8  O   -0.474552  -0.000000
     9  C    0.365129  -0.000000
    10  C    0.017932  -0.000000
    11  C   -0.432669  -0.000000
    12  C   -0.432050  -0.000000
    13  C   -0.036504  -0.000000
    14  C    0.524219  -0.000000
    15  C   -0.741717  -0.000000
    16  O   -0.463289  -0.000000
    17  C    0.485851   0.000000
    18  C    0.221721  -0.000000
    19  H   -0.017243   0.000000
    20  H   -1.077205   0.000000
    21  H    0.007002   0.000000
    22  H   -0.114752   0.000000
    23  H   -0.017185   0.000000
    24  H    0.011548   0.000000
    25  H    0.134593  -0.000000
    26  H    0.134424   0.000000
    27  H    0.082348  -0.000000
    28  H    0.083702   0.000000
    29  H    0.129696  -0.000000
    30  H    0.155849  -0.000000
 Sum of Mulliken charges =  -2.00000   0.00000

 Dipole moment (field-independent basis, Debye):
    X=              1.6363    Y=             -0.0168    Z=             -2.0598  Tot=              2.6307
 Quadrupole moment (field-independent basis, Debye-Ang):
   XX=           -248.2580   YY=           -164.2241   ZZ=           -127.6501
   XY=            -10.7234   XZ=             -1.8525   YZ=             -6.4604

  Exact polarizability:2102.989 128.385 456.821  88.096  61.703 438.881
 Approx polarizability:8716.680 571.417 672.110 337.793 103.504 443.854

                      1                      2                      3
                      A                      A                      A
 Frequencies --     41.7696                55.9864                83.7204
 Red. masses --      4.3042                 2.9006                 4.7252
 Frc consts  --      0.0044                 0.0054                 0.0195
 IR Inten    --      0.6139                 1.1887                 7.5588

                      4                      5                      6
                      A                      A                      A
 Frequencies --    128.1071               156.7572               172.0776
 Red. masses --      4.1245                 4.2733                 4.1138
 Frc consts  --      0.0399                 0.0619                 0.0718
 IR Inten    --      3.1331                 3.0505                 3.3776

                      7                      8                      9
                      A                      A                      A
 Frequencies --    183.9379               235.2863               247.3756
 Red. masses --      3.1415                 4.7960                 1.6025
 Frc consts  --      0.0626                 0.1564                 0.0578
 IR Inten    --     13.2585                 9.7926                30.6988

                     10                     11                     12
                      A                      A                      A
 Frequencies --    283.2007               312.4038               359.6389
 Red. masses --      3.3090                 6.1008                 3.1170
 Frc consts  --      0.1564                 0.3508                 0.2375
 IR Inten    --      3.4109                 5.7247                 9.4580

                     13                     14                     15
                      A                      A                      A
 Frequencies --    369.3573               388.5641               420.4582
 Red. masses --     10.5450                 4.7409                 5.2181
 Frc consts  --      0.8476                 0.4217                 0.5435
 IR Inten    --      5.6543                47.5098                27.5581

                     16                     17                     18
                      A                      A                      A
 Frequencies --    430.0207               447.4817               475.1244
 Red. masses --      3.9142                 4.5809                 3.0209
 Frc consts  --      0.4265                 0.5404                 0.4018
 IR Inten    --     10.5324                 8.8793                 4.5088

                     19                     20                     21
                      A                      A                      A
 Frequencies --    484.7757               533.8816               581.0732
 Red. masses --     10.6848                 4.7626                 4.5171
 Frc consts  --      1.4794                 0.7998                 0.8986
 IR Inten    --    432.0285                 5.8914                10.3456

                     22                     23                     24
                      A                      A                      A
 Frequencies --    634.7846               647.0856               663.3391
 Red. masses --      6.6151                 3.8415                 5.6031
 Frc consts  --      1.5705                 0.9477                 1.4526
 IR Inten    --      5.8920                11.9371                 8.4396

                     25                     26                     27
                      A                      A                      A
 Frequencies --    692.0270               693.8399               723.3613
 Red. masses --      1.8459                 6.0847                 4.4157
 Frc consts  --      0.5208                 1.7259                 1.3613
 IR Inten    --     66.5311                 2.0709                 3.0603

                     28                     29                     30
                      A                      A                      A
 Frequencies --    737.2263               754.6763               778.9916
 Red. masses --      4.5413                 2.1215                 1.7999
 Frc consts  --      1.4542                 0.7119                 0.6435
 IR Inten    --      7.9591                 8.2457                 6.0488

                     31                     32                     33
                      A                      A                      A
 Frequencies --    785.9492               800.5356               834.7722
 Red. masses --      1.2034                 1.5528                 3.5044
 Frc consts  --      0.4380                 0.5863                 1.4388
 IR Inten    --     17.7480                 4.5795                 1.5027

                     34                     35                     36
                      A                      A                      A
 Frequencies --    842.7157               928.8103               939.9964
 Red. masses --      5.2951                 5.7266                 1.4167
 Frc consts  --      2.2156                 2.9107                 0.7376
 IR Inten    --     21.8033                 8.5034                 5.9544

                     37                     38                     39
                      A                      A                      A
 Frequencies --    946.6832               959.3152               963.3668
 Red. masses --      3.2370                 1.2535                 1.3146
 Frc consts  --      1.7092                 0.6797                 0.7189
 IR Inten    --     40.1559                 0.4155                 0.8320

                     40                     41                     42
                      A                      A                      A
 Frequencies --    966.9788               984.2239              1016.1932
 Red. masses --      1.3523                 2.4585                 2.0484
 Frc consts  --      0.7450                 1.4031                 1.2463
 IR Inten    --     10.4342               109.2869               348.0803

                     43                     44                     45
                      A                      A                      A
 Frequencies --   1062.8239              1075.2787              1096.0642
 Red. masses --      1.8080                 1.6722                 2.3540
 Frc consts  --      1.2033                 1.1391                 1.6662
 IR Inten    --     21.5889                31.0666                35.3777

                     46                     47                     48
                      A                      A                      A
 Frequencies --   1109.0441              1129.3135              1145.8230
 Red. masses --      1.7606                 1.5355                 1.5814
 Frc consts  --      1.2759                 1.1538                 1.2233
 IR Inten    --     23.5313               123.6570               132.2814

                     49                     50                     51
                      A                      A                      A
 Frequencies --   1188.0769              1209.1367              1214.6640
 Red. masses --      2.2624                 2.1665                 1.8631
 Frc consts  --      1.8815                 1.8662                 1.6196
 IR Inten    --    199.6434               261.0925               133.1551

                     52                     53                     54
                      A                      A                      A
 Frequencies --   1221.5683              1254.2644              1277.2431
 Red. masses --      3.3766                 1.9731                 1.4050
 Frc consts  --      2.9687                 1.8288                 1.3504
 IR Inten    --    107.7131                92.1802                40.9029

                     55                     56                     57
                      A                      A                      A
 Frequencies --   1333.2516              1339.9931              1342.8826
 Red. masses --      1.6525                 5.6127                 2.0039
 Frc consts  --      1.7307                 5.9378                 2.1291
 IR Inten    --    158.2848               384.3044                25.1935

                     58                     59                     60
                      A                      A                      A
 Frequencies --   1355.4172              1385.7753              1389.9617
 Red. masses --      6.3527                 1.2541                 2.6444
 Frc consts  --      6.8763                 1.4189                 3.0101
 IR Inten    --    335.2369               160.4112               493.5116

                     61                     62                     63
                      A                      A                      A
 Frequencies --   1452.2109              1464.3960              1472.4777
 Red. masses --      3.2981                 2.8917                 1.2819
 Frc consts  --      4.0980                 3.6536                 1.6376
 IR Inten    --    244.2750               498.0133               128.1334

                     64                     65                     66
                      A                      A                      A
 Frequencies --   1475.0448              1477.2664              1488.7162
 Red. masses --      2.9863                 1.1536                 3.4790
 Frc consts  --      3.8282                 1.4833                 4.5429
 IR Inten    --   1143.1020               230.4004               134.6001

                     67                     68                     69
                      A                      A                      A
 Frequencies --   1491.7477              1503.0992              1525.8657
 Red. masses --      3.5221                 1.1522                 5.2263
 Frc consts  --      4.6178                 1.5338                 7.1694
 IR Inten    --    459.0976                39.1270                41.6531

                     70                     71                     72
                      A                      A                      A
 Frequencies --   1566.0844              1590.2127              1606.9418
 Red. masses --      7.6119                 5.4761                 5.8929
 Frc consts  --     10.9995                 8.1589                 8.9657
 IR Inten    --   3449.4902                11.7341                26.3586

                     73                     74                     75
                      A                      A                      A
 Frequencies --   2936.2078              2971.1407              3016.4927
 Red. masses --      1.0704                 1.0451                 1.0885
 Frc consts  --      5.4373                 5.4358                 5.8354
 IR Inten    --    237.3424                34.5937                31.1039

                     76                     77                     78
                      A                      A                      A
 Frequencies --   3043.0400              3069.7614              3096.7602
 Red. masses --      1.0889                 1.1023                 1.0828
 Frc consts  --      5.9407                 6.1200                 6.1179
 IR Inten    --     72.3535                 9.6709                37.6600

                     79                     80                     81
                      A                      A                      A
 Frequencies --   3105.3630              3119.8798              3147.7957
 Red. masses --      1.0866                 1.0905                 1.0883
 Frc consts  --      6.1737                 6.2541                 6.3537
 IR Inten    --     31.2782               279.0593                11.3760

                     82                     83                     84
                      A                      A                      A
 Frequencies --   3159.6203              3160.5075              3162.1483
 Red. masses --      1.0903                 1.0908                 1.0916
 Frc consts  --      6.4132                 6.4197                 6.4310
 IR Inten    --     17.5172                24.9634               215.4667

 - Thermochemistry -
 -------------------
 Temperature   298.150 Kelvin.  Pressure   1.00000 Atm.
 Atom     1 has atomic number  6 and mass  12.00000

 Molecular mass:   236.08373 amu.
 Principal axes and moments of inertia in atomic units:
                           1         2         3
     Eigenvalues --  1880.177196878.236838597.13186
           X            0.99821   0.03363   0.04950
           Y           -0.02569   0.98787  -0.15315
           Z           -0.05405   0.15160   0.98696
 This molecule is an asymmetric top.
 Rotational symmetry number  1.
 Warning -- assumption of classical behavior for rotation
           may cause significant error
 Rotational temperatures (Kelvin)      0.04607     0.01259     0.01007
 Rotational constants (GHZ):           0.95988     0.26238     0.20992
 Zero-point vibrational energy     603631.1 (Joules/Mol)
                                  144.27129 (Kcal/Mol)
 Warning -- explicit consideration of  21 degrees of freedom as
           vibrations may cause significant error
 Vibrational temperatures:     60.10    80.55   120.46   184.32   225.54
          (Kelvin)            247.58   264.65   338.52   355.92   407.46
                              449.48   517.44   531.42   559.06   604.95
                              618.70   643.83   683.60   697.48   768.14
                              836.03   913.31   931.01   954.40   995.67
                              998.28  1040.76  1060.70  1085.81  1120.80
                             1130.81  1151.79  1201.05  1212.48  1336.35
                             1352.45  1362.07  1380.24  1386.07  1391.27
                             1416.08  1462.08  1529.17  1547.09  1576.99
                             1595.67  1624.83  1648.58  1709.38  1739.68
                             1747.63  1757.56  1804.61  1837.67  1918.25
                             1927.95  1932.11  1950.14  1993.82  1999.84
                             2089.41  2106.94  2118.57  2122.26  2125.46
                             2141.93  2146.29  2162.62  2195.38  2253.25
                             2287.96  2312.03  4224.55  4274.81  4340.06
                             4378.26  4416.70  4455.55  4467.92  4488.81
                             4528.98  4545.99  4547.27  4549.63

 Zero-point correction=                           0.229911 (Hartree/Particle)
 Thermal correction to Energy=                    0.244238
 Thermal correction to Enthalpy=                  0.245182
 Thermal correction to Gibbs Free Energy=         0.188561
 Sum of electronic and zero-point Energies=           -767.353053
 Sum of electronic and thermal Energies=              -767.338726
 Sum of electronic and thermal Enthalpies=            -767.337782
 Sum of electronic and thermal Free Energies=         -767.394402

                     E (Thermal)             CV                S
                      KCal/Mol        Cal/Mol-Kelvin    Cal/Mol-Kelvin
 Total                  153.262             57.683            119.168
 Electronic               0.000              0.000              0.000
 Translational            0.889              2.981             42.279
 Rotational               0.889              2.981             33.075
 Vibrational            151.484             51.721             43.815
 Vibration     1          0.594              1.980              5.173
 Vibration     2          0.596              1.975              4.594
 Vibration     3          0.601              1.960              3.802
 Vibration     4          0.611              1.925              2.974
 Vibration     5          0.620              1.895              2.589
 Vibration     6          0.626              1.877              2.413
 Vibration     7          0.631              1.862              2.288
 Vibration     8          0.655              1.787              1.838
 Vibration     9          0.661              1.767              1.749
 Vibration    10          0.682              1.705              1.514
 Vibration    11          0.701              1.650              1.350
 Vibration    12          0.734              1.555              1.124
 Vibration    13          0.742              1.535              1.082
 Vibration    14          0.757              1.495              1.006
 Vibration    15          0.783              1.426              0.890
 Vibration    16          0.791              1.405              0.859
 Vibration    17          0.807              1.366              0.803
 Vibration    18          0.832              1.305              0.723
 Vibration    19          0.841              1.284              0.697
 Vibration    20          0.889              1.175              0.579
 Vibration    21          0.938              1.072              0.483

 Optimization completed.
    -- Stationary point found.
 Normal termination of Gaussian 16 at Wed Dec 27 21:19:30 2023.
