 Gaussian 16, Revision A.03,
 Gaussian 16:  ES64L-G16RevA.03 25-Dec-2016

 ----------------------------------------------------------------------
 #P UB3LYP/6-311++G(d,p) nosym opt freq SCRF=(PCM,Solvent=n,n-DiMethylF
 ormamide)
 ----------------------------------------------------------------------

 -------
 Radical
 -------
 Symbolic Z-matrix:
 Charge = -1 Multiplicity = 2

 SCF Done:  E(UB3LYP) =  -610.602325070     A.U. after   18 cycles
 SCF Done:  E(UB3LYP) =  -610.602529962     A.U. after   14 cycles
 SCF Done:  E(UB3LYP) =  -610.602538066     A.U. after   13 cycles
 SCF Done:  E(UB3LYP) =  -610.602563015     A.U. after   12 cycles
 SCF Done:  E(UB3LYP) =  -610.602566318     A.U. after   11 cycles
 Optimization completed.
    -- Stationary point found.
 Normal termination of Gaussian 16 at Sun Feb 11 15:10:38 2024.

 ----------------------------------------------------------------------
 #P Geom=AllCheck Guess=TCheck SCRF=Check GenChk UB3LYP/6-311++G(d,p) F
 req
 ----------------------------------------------------------------------

 Structure from the checkpoint file:  "316-rad.chk"
 -------
 Radical
 -------
 Charge = -1 Multiplicity = 2

                          Input orientation:
 ---------------------------------------------------------------------
 Center     Atomic      Atomic             Coordinates (Angstroms)
 Number     Number       Type             X           Y           Z
 ---------------------------------------------------------------------
      1          8           0       -1.315626   -2.529950    0.982901
      2          6           0       -1.171524   -1.371589    0.508239
      3          6           0       -2.388557   -0.617359    0.083376
      4          8           0       -2.418350   -0.171557   -1.294138
      5          6           0       -2.290362    0.828402   -0.254440
      6          6           0       -0.974389    1.529521   -0.169280
      7          8           0       -0.953849    2.786152   -0.261432
      8          6           0        0.190795    0.703114    0.024224
      9          6           0        1.481860    1.291776   -0.050469
     10          6           0        2.625067    0.558937    0.167529
     11          6           0        2.531588   -0.823144    0.485340
     12          6           0        1.298115   -1.424705    0.576057
     13          6           0        0.095550   -0.702378    0.350170
     14          1           0       -3.335163   -1.020837    0.433483
     15          1           0       -3.166624    1.462542   -0.147045
     16          1           0        1.542211    2.347255   -0.289498
     17          1           0        3.598497    1.031768    0.095246
     18          1           0        3.433991   -1.400809    0.653661
     19          1           0        1.216769   -2.477136    0.822068
 ---------------------------------------------------------------------

 SCF Done:  E(UB3LYP) =  -610.602566318     A.U. after    1 cycles

 Alpha  occ. eigenvalues --  -19.14542 -19.08473 -19.08465 -10.22830 -10.22822
 Alpha  occ. eigenvalues --  -10.22705 -10.22676 -10.17210 -10.17173 -10.17027
 Alpha  occ. eigenvalues --  -10.17017 -10.16961 -10.16926  -1.07994  -1.00492
 Alpha  occ. eigenvalues --   -1.00429  -0.85284  -0.77386  -0.75191  -0.70157
 Alpha  occ. eigenvalues --   -0.69252  -0.62828  -0.61659  -0.56249  -0.52037
 Alpha  occ. eigenvalues --   -0.51772  -0.50279  -0.46319  -0.44296  -0.43368
 Alpha  occ. eigenvalues --   -0.42524  -0.41186  -0.41058  -0.40878  -0.40709
 Alpha  occ. eigenvalues --   -0.36701  -0.35242  -0.35065  -0.33944  -0.31747
 Alpha  occ. eigenvalues --   -0.29703  -0.25914  -0.25882  -0.24489  -0.24361
 Alpha  occ. eigenvalues --   -0.13539
 Alpha virt. eigenvalues --   -0.05333  -0.00018   0.01044   0.01341   0.01587
 Alpha virt. eigenvalues --    0.01604   0.02827   0.03109   0.04973   0.05518
 Alpha virt. eigenvalues --    0.05606   0.06252   0.06792   0.06841   0.09319

  Beta  occ. eigenvalues --  -19.14446 -19.07955 -19.07946 -10.22719 -10.22690
  Beta  occ. eigenvalues --  -10.22606 -10.22598 -10.17061 -10.17040 -10.17010
  Beta  occ. eigenvalues --  -10.16992 -10.16885 -10.16841  -1.07864  -0.99546
  Beta  occ. eigenvalues --   -0.99499  -0.84980  -0.76816  -0.74851  -0.69955
  Beta  occ. eigenvalues --   -0.68610  -0.62380  -0.61483  -0.56027  -0.51667
  Beta  occ. eigenvalues --   -0.51603  -0.50146  -0.46041  -0.43814  -0.43028
  Beta  occ. eigenvalues --   -0.42403  -0.40674  -0.40613  -0.40391  -0.39376
  Beta  occ. eigenvalues --   -0.35665  -0.34572  -0.33775  -0.33764  -0.31031
  Beta  occ. eigenvalues --   -0.29175  -0.25010  -0.24419  -0.23990  -0.23670
  Beta virt. eigenvalues --   -0.07151  -0.03909  -0.00005   0.01052   0.01498
  Beta virt. eigenvalues --    0.02176   0.02682   0.02847   0.03250   0.05408
  Beta virt. eigenvalues --    0.05615   0.05674   0.06612   0.06819   0.06966

 Mulliken charges and spin densities:
               1          2
     1  O   -0.469747   0.184657
     2  C   -0.204708   0.123866
     3  C   -0.106681  -0.002250
     4  O   -0.189859   0.025594
     5  C   -0.099783  -0.002109
     6  C   -0.201161   0.124130
     7  O   -0.470099   0.184974
     8  C    0.008170   0.098332
     9  C    0.161518   0.018826
    10  C   -0.361065   0.066850
    11  C   -0.354378   0.067163
    12  C    0.159367   0.018487
    13  C   -0.007948   0.098625
    14  H    0.224157   0.002282
    15  H    0.224047   0.002314
    16  H    0.165014  -0.000275
    17  H    0.178861  -0.005609
    18  H    0.178850  -0.005631
    19  H    0.165448  -0.000228
 Sum of Mulliken charges =  -1.00000   1.00000

 Dipole moment (field-independent basis, Debye):
    X=              4.3931    Y=             -0.0486    Z=              0.4059  Tot=              4.4121
 Quadrupole moment (field-independent basis, Debye-Ang):
   XX=            -78.0565   YY=           -110.9195   ZZ=            -85.8445
   XY=             -3.2124   XZ=             -3.0645   YZ=              6.5044

  Exact polarizability: 254.571   4.426 286.097   6.831 -42.690 115.385
 Approx polarizability: 272.411   5.830 323.038   6.955 -47.020 134.718

                      1                      2                      3
                      A                      A                      A
 Frequencies --     80.2020               129.4689               166.6551
 Red. masses --      8.9850                 4.2667                 7.0282
 Frc consts  --      0.0341                 0.0421                 0.1150
 IR Inten    --     22.5460                 1.3133                 2.2006

                      4                      5                      6
                      A                      A                      A
 Frequencies --    218.1896               265.7817               302.4002
 Red. masses --      6.7275                 6.3885                 8.1308
 Frc consts  --      0.1887                 0.2659                 0.4381
 IR Inten    --      4.9245                15.0693                15.2414

                      7                      8                      9
                      A                      A                      A
 Frequencies --    360.4032               444.4329               447.0555
 Red. masses --     10.8361                 7.0513                 3.5127
 Frc consts  --      0.8293                 0.8206                 0.4136
 IR Inten    --     19.6033                11.7503                 5.6371

                     10                     11                     12
                      A                      A                      A
 Frequencies --    449.0441               485.6333               518.5887
 Red. masses --      5.2782                10.2702                 5.7520
 Frc consts  --      0.6271                 1.4271                 0.9114
 IR Inten    --     12.9431                26.6285                49.0806

                     13                     14                     15
                      A                      A                      A
 Frequencies --    550.7847               636.6270               679.3540
 Red. masses --      5.5620                 4.9725                 4.6917
 Frc consts  --      0.9941                 1.1874                 1.2758
 IR Inten    --     41.2184                56.9662                29.9030

                     16                     17                     18
                      A                      A                      A
 Frequencies --    693.6203               707.1478               767.7049
 Red. masses --      6.0453                 3.3985                 4.9027
 Frc consts  --      1.7136                 1.0013                 1.7024
 IR Inten    --     75.9985               150.8057                 2.9562

                     19                     20                     21
                      A                      A                      A
 Frequencies --    771.6652               788.6810               842.7769
 Red. masses --      1.7132                 5.8789                 4.0851
 Frc consts  --      0.6011                 2.1545                 1.7095
 IR Inten    --     21.0543                28.5976                82.5414

                     22                     23                     24
                      A                      A                      A
 Frequencies --    846.3834               866.2585               983.3025
 Red. masses --      6.0849                 1.4812                 1.8461
 Frc consts  --      2.5682                 0.6549                 1.0517
 IR Inten    --     10.3612                 2.2816                51.8135

                     25                     26                     27
                      A                      A                      A
 Frequencies --    987.1841               993.2310              1026.5271
 Red. masses --      1.6379                 1.2838                 2.0288
 Frc consts  --      0.9405                 0.7462                 1.2596
 IR Inten    --     25.2573                 1.2240                 8.8905

                     28                     29                     30
                      A                      A                      A
 Frequencies --   1059.2211              1100.4725              1118.5531
 Red. masses --      3.3279                 2.1482                 1.8357
 Frc consts  --      2.1999                 1.5328                 1.3532
 IR Inten    --     12.3092                25.8432               107.9095

                     31                     32                     33
                      A                      A                      A
 Frequencies --   1146.8145              1164.8547              1207.5277
 Red. masses --      1.5202                 1.1269                 1.7326
 Frc consts  --      1.1779                 0.9009                 1.4884
 IR Inten    --    211.3878                 1.9968               587.9350

                     34                     35                     36
                      A                      A                      A
 Frequencies --   1244.7297              1291.0389              1315.6425
 Red. masses --      1.4880                 5.3073                 1.4529
 Frc consts  --      1.3583                 5.2120                 1.4817
 IR Inten    --     13.7384                 8.3257                 0.9946

                     37                     38                     39
                      A                      A                      A
 Frequencies --   1351.1864              1362.8748              1373.2175
 Red. masses --      6.7630                 1.9141                 3.3013
 Frc consts  --      7.2748                 2.0947                 3.6679
 IR Inten    --     96.4495               108.7576                20.5603

                     40                     41                     42
                      A                      A                      A
 Frequencies --   1419.3587              1475.0891              1495.0368
 Red. masses --      6.4033                 2.5718                 3.6016
 Frc consts  --      7.6005                 3.2971                 4.7429
 IR Inten    --   2827.8531                21.9240               762.0648

                     43                     44                     45
                      A                      A                      A
 Frequencies --   1530.2976              1593.6427              1618.1353
 Red. masses --      5.4490                 8.7077                 5.5404
 Frc consts  --      7.5183                13.0297                 8.5471
 IR Inten    --    167.1520               161.6653                18.7402

                     46                     47                     48
                      A                      A                      A
 Frequencies --   3125.6991              3134.7237              3157.9187
 Red. masses --      1.0880                 1.0921                 1.0852
 Frc consts  --      6.2628                 6.3227                 6.3763
 IR Inten    --     47.9701                96.0579                16.8141

                     49                     50                     51
                      A                      A                      A
 Frequencies --   3170.1989              3182.5935              3187.6009
 Red. masses --      1.0882                 1.0924                 1.0960
 Frc consts  --      6.4437                 6.5195                 6.5613
 IR Inten    --     10.2867                26.0196                41.5623

 - Thermochemistry -
 -------------------
 Temperature   298.150 Kelvin.  Pressure   1.00000 Atm.
 Atom     1 has atomic number  8 and mass  15.99491

 Molecular mass:   174.03169 amu.
 Principal axes and moments of inertia in atomic units:
                           1         2         3
     Eigenvalues --  1513.171632040.295073359.41014
           X            0.98915   0.06569  -0.13142
           Y           -0.03350   0.97176   0.23359
           Z            0.14305  -0.22666   0.96341
 This molecule is an asymmetric top.
 Rotational symmetry number  1.
 Warning -- assumption of classical behavior for rotation
           may cause significant error
 Rotational temperatures (Kelvin)      0.05724     0.04245     0.02578
 Rotational constants (GHZ):           1.19269     0.88455     0.53722
 Zero-point vibrational energy     351914.6 (Joules/Mol)
                                   84.10962 (Kcal/Mol)
 Warning -- explicit consideration of  13 degrees of freedom as
           vibrations may cause significant error
 Vibrational temperatures:    115.39   186.28   239.78   313.93   382.40
          (Kelvin)            435.09   518.54   639.44   643.21   646.07
                              698.72   746.13   792.46   915.96   977.44
                              997.96  1017.43  1104.56  1110.25  1134.74
                             1212.57  1217.76  1246.35  1414.75  1420.34
                             1429.04  1476.94  1523.98  1583.33  1609.35
                             1650.01  1675.97  1737.36  1790.89  1857.52
                             1892.92  1944.06  1960.87  1975.75  2042.14
                             2122.32  2151.02  2201.76  2292.90  2328.14
                             4497.18  4510.17  4543.54  4561.21  4579.04
                             4586.25

 Zero-point correction=                           0.134037 (Hartree/Particle)
 Thermal correction to Energy=                    0.143448
 Thermal correction to Enthalpy=                  0.144392
 Thermal correction to Gibbs Free Energy=         0.098484
 Sum of electronic and zero-point Energies=           -610.468529
 Sum of electronic and thermal Energies=              -610.459119
 Sum of electronic and thermal Enthalpies=            -610.458174
 Sum of electronic and thermal Free Energies=         -610.504082

                     E (Thermal)             CV                S
                      KCal/Mol        Cal/Mol-Kelvin    Cal/Mol-Kelvin
 Total                   90.015             37.811             96.621
 Electronic               0.000              0.000              1.377
 Translational            0.889              2.981             41.370
 Rotational               0.889              2.981             30.718
 Vibrational             88.237             31.850             23.156
 Vibration     1          0.600              1.963              3.886
 Vibration     2          0.612              1.924              2.954
 Vibration     3          0.624              1.883              2.473
 Vibration     4          0.646              1.813              1.974
 Vibration     5          0.672              1.736              1.623
 Vibration     6          0.694              1.669              1.404
 Vibration     7          0.735              1.554              1.120
 Vibration     8          0.804              1.373              0.813
 Vibration     9          0.806              1.367              0.805
 Vibration    10          0.808              1.363              0.799
 Vibration    11          0.842              1.282              0.695
 Vibration    12          0.874              1.209              0.613
 Vibration    13          0.906              1.138              0.543

 Optimization completed.
    -- Stationary point found.
 Normal termination of Gaussian 16 at Sun Feb 11 15:34:21 2024.
