 Q-Chem 5.4, Q-Chem, Inc., Pleasanton, CA (2021)
 Q-Chem 5.4.0 for Intel X86 EM64T Linux

User input:
--------------------------------------------------------------
$molecule
0 1
C                 -1.7044140000      3.0981920000      0.2159450000
C                 -2.8895730000      2.3856550000      0.0697950000
C                 -2.8551540000      1.0050700000     -0.1410130000
C                 -0.4756660000      2.4337530000      0.1405120000
C                 -0.4433050000      1.0482840000     -0.0721260000
C                 -1.6355590000      0.3376910000     -0.2087960000
C                  0.7786520000      3.2144680000      0.3308570000
C                  2.0964220000      2.5017520000      0.0896070000
C                  2.0781780000      1.1415990000     -0.0786610000
C                  0.8697430000      0.3382220000     -0.1559740000
O                  0.7394430000      4.3714200000      0.7120970000
O                  0.9184340000     -0.8769540000     -0.3256920000
N                  3.2580160000      3.2212850000      0.1937030000
C                  3.4028470000      4.5925600000     -0.3072960000
C                  4.5193360000      2.4980240000      0.2676650000
H                 -1.7104410000      4.1667450000      0.3913500000
H                 -3.8407470000      2.9028550000      0.1237750000
H                 -3.7808650000      0.4513500000     -0.2507990000
H                 -1.5825260000     -0.7324840000     -0.3670650000
H                  2.9916220000      0.5769360000     -0.2062250000
H                  2.4400170000      5.0783830000     -0.3977200000
H                  3.9045580000      4.5812100000     -1.2841860000
H                  4.0141790000      5.1713580000      0.3895350000
H                  4.4569860000      1.7010220000      1.0103580000
H                  5.2997200000      3.1959250000      0.5732050000
H                  4.8089960000      2.0574710000     -0.6972250000
$end
$rem
MAX_SCF_CYCLES=200
BASIS  =  6-311++G(d,p)
GUI  =  2
JOB_TYPE  =  SP
METHOD  =  B3LYP
SOLVENT_METHOD = PCM
$end
$pcm
theory = CPCM
$end
$solvent
dielectric 37.219
opticaldielectric 1.43
$end

--------------------------------------------------------------

             Standard Nuclear Orientation (Angstroms)
    I     Atom           X                Y                Z
 ----------------------------------------------------------------
    1      C      -1.7044140000     3.0981920000     0.2159450000
    2      C      -2.8895730000     2.3856550000     0.0697950000
    3      C      -2.8551540000     1.0050700000    -0.1410130000
    4      C      -0.4756660000     2.4337530000     0.1405120000
    5      C      -0.4433050000     1.0482840000    -0.0721260000
    6      C      -1.6355590000     0.3376910000    -0.2087960000
    7      C       0.7786520000     3.2144680000     0.3308570000
    8      C       2.0964220000     2.5017520000     0.0896070000
    9      C       2.0781780000     1.1415990000    -0.0786610000
   10      C       0.8697430000     0.3382220000    -0.1559740000
   11      O       0.7394430000     4.3714200000     0.7120970000
   12      O       0.9184340000    -0.8769540000    -0.3256920000
   13      N       3.2580160000     3.2212850000     0.1937030000
   14      C       3.4028470000     4.5925600000    -0.3072960000
   15      C       4.5193360000     2.4980240000     0.2676650000
   16      H      -1.7104410000     4.1667450000     0.3913500000
   17      H      -3.8407470000     2.9028550000     0.1237750000
   18      H      -3.7808650000     0.4513500000    -0.2507990000
   19      H      -1.5825260000    -0.7324840000    -0.3670650000
   20      H       2.9916220000     0.5769360000    -0.2062250000
   21      H       2.4400170000     5.0783830000    -0.3977200000
   22      H       3.9045580000     4.5812100000    -1.2841860000
   23      H       4.0141790000     5.1713580000     0.3895350000
   24      H       4.4569860000     1.7010220000     1.0103580000
   25      H       5.2997200000     3.1959250000     0.5732050000
   26      H       4.8089960000     2.0574710000    -0.6972250000
 ----------------------------------------------------------------

    9    -669.2859712708      4.55e-06  Convergence criterion met
 Total energy in the final basis set =     -669.2859712708

                    Orbital Energies (a.u.)
 --------------------------------------------------------------

 Alpha MOs
 -- Occupied --
-19.1389 -19.1151 -14.3618 -10.2914 -10.2677 -10.2483 -10.2049 -10.2023
-10.2008 -10.1981 -10.1952 -10.1946 -10.1928 -10.1921 -10.1800  -1.0757
 -1.0485  -0.9692  -0.8860  -0.8241  -0.7747  -0.7706  -0.7298  -0.7076
 -0.6713  -0.6406  -0.6104  -0.5843  -0.5439  -0.5329  -0.5134  -0.4924
 -0.4811  -0.4699  -0.4643  -0.4479  -0.4467  -0.4446  -0.4331  -0.4237
 -0.4163  -0.4038  -0.4025  -0.3847  -0.3785  -0.3757  -0.3653  -0.3257
 -0.2861  -0.2809  -0.2752  -0.2703  -0.2292

          Ground-State Mulliken Net Atomic Charges

     Atom                 Charge (a.u.)
  ----------------------------------------
      1 C                     0.189275
      2 C                    -0.418266
      3 C                    -0.408935
      4 C                     0.623222
      5 C                     0.401392
      6 C                     0.164236
      7 C                    -0.993437
      8 C                    -0.496907
      9 C                     0.409972
     10 C                    -0.281772
     11 O                    -0.268331
     12 O                    -0.369094
     13 N                     0.116423
     14 C                    -0.437701
     15 C                    -0.412400
     16 H                     0.197567
     17 H                     0.224911
     18 H                     0.223527
     19 H                     0.190873
     20 H                     0.242364
     21 H                     0.174428
     22 H                     0.179591
     23 H                     0.195083
     24 H                     0.175789
     25 H                     0.184206
     26 H                     0.193983
  ----------------------------------------
  Sum of atomic charges =     0.000000

                    Cartesian Multipole Moments
 -----------------------------------------------------------------
    Charge (ESU x 10^10)
                 0.0000
    Dipole Moment (Debye)
         X       1.4013      Y       3.7385      Z      -0.7629
       Tot       4.0647
    Quadrupole Moments (Debye-Ang)
        XX     -53.9736     XY      13.0623     YY     -88.0080
        XZ      -0.5161     YZ      -6.5741     ZZ     -91.0814

 Total job time:  49.65s(wall), 278.03s(cpu)
        *  Thank you very much for using Q-Chem.  Have a nice day.  *
