 Gaussian 16, Revision A.03,
 Gaussian 16:  ES64L-G16RevA.03 25-Dec-2016

 ----------------------------------------------------------------------
 #P UB3LYP/6-311++G(d,p) nosym opt freq SCRF=(PCM,Solvent=n,n-DiMethylF
 ormamide)
 ----------------------------------------------------------------------

 -------
 Reduced
 -------
 Symbolic Z-matrix:
 Charge = -2 Multiplicity = 1

 SCF Done:  E(UB3LYP) =  -5682.60992518     A.U. after   18 cycles
 SCF Done:  E(UB3LYP) =  -5682.61051929     A.U. after   13 cycles
 SCF Done:  E(UB3LYP) =  -5682.61062306     A.U. after   13 cycles
 SCF Done:  E(UB3LYP) =  -5682.61061987     A.U. after   12 cycles
 SCF Done:  E(UB3LYP) =  -5682.61063078     A.U. after   11 cycles
 SCF Done:  E(UB3LYP) =  -5682.61063272     A.U. after   10 cycles
 Optimization completed.
    -- Stationary point found.
 Normal termination of Gaussian 16 at Sun Feb 11 02:03:50 2024.

 ----------------------------------------------------------------------
 #P Geom=AllCheck Guess=TCheck SCRF=Check GenChk UB3LYP/6-311++G(d,p) F
 req
 ----------------------------------------------------------------------

 Structure from the checkpoint file:  "233-an.chk"
 -------
 Reduced
 -------
 Charge = -2 Multiplicity = 1

                          Input orientation:
 ---------------------------------------------------------------------
 Center     Atomic      Atomic             Coordinates (Angstroms)
 Number     Number       Type             X           Y           Z
 ---------------------------------------------------------------------
      1          6           0        5.919361   -5.215997    1.107700
      2          6           0        6.816169   -5.083699    0.066022
      3          6           0        6.604251   -4.093242   -0.918441
      4          6           0        4.779326   -4.382945    1.224376
      5          6           0        4.565545   -3.378526    0.227262
      6          6           0        5.502501   -3.265557   -0.829398
      7          6           0        3.869133   -4.581023    2.352651
      8          6           0        2.773031   -3.697060    2.343113
      9          6           0        2.557378   -2.697727    1.345114
     10          6           0        3.418710   -2.471072    0.254922
     11          8           0        4.090721   -5.491026    3.244975
     12          8           0        3.253124   -1.568176   -0.655999
     13          1           0        6.064947   -5.970535    1.871396
     14          1           0        5.321363   -2.499683   -1.574375
     15         35           0        1.525231   -3.906899    3.817947
     16         35           0        0.996787   -1.542326    1.419637
     17          1           0        7.680128   -5.737835    0.002702
     18          1           0        7.304632   -3.984360   -1.740595
 ---------------------------------------------------------------------

 SCF Done:  E(UB3LYP) =  -5682.61063272     A.U. after    1 cycles

 Alpha  occ. eigenvalues -- -482.80615-482.80608 -62.45892 -62.45885 -56.27902
 Alpha  occ. eigenvalues --  -56.27895 -56.27565 -56.27558 -56.27533 -56.27526
 Alpha  occ. eigenvalues --  -19.02496 -19.02482 -10.18889 -10.18870 -10.18696
 Alpha  occ. eigenvalues --  -10.18653 -10.15697 -10.15650 -10.15338 -10.15331
 Alpha  occ. eigenvalues --  -10.15285 -10.15248  -8.66854  -8.66847  -6.49906
 Alpha  occ. eigenvalues --   -6.49899  -6.48784  -6.48777  -6.48691  -6.48684
 Alpha  occ. eigenvalues --   -2.61017  -2.61009  -2.60711  -2.60704  -2.60640
 Alpha  occ. eigenvalues --   -2.60633  -2.59747  -2.59746  -2.59739  -2.59738
 Alpha  occ. eigenvalues --   -0.94386  -0.93941  -0.83700  -0.81379  -0.76485
 Alpha  occ. eigenvalues --   -0.75385  -0.73106  -0.69188  -0.65061  -0.58736
 Alpha  occ. eigenvalues --   -0.58051  -0.53556  -0.49015  -0.47060  -0.44123
 Alpha  occ. eigenvalues --   -0.42722  -0.40698  -0.39045  -0.38678  -0.37846
 Alpha  occ. eigenvalues --   -0.36589  -0.35572  -0.33972  -0.33425  -0.32825
 Alpha  occ. eigenvalues --   -0.31587  -0.29308  -0.28569  -0.28031  -0.25628
 Alpha  occ. eigenvalues --   -0.23527  -0.23224  -0.21564  -0.20805  -0.20284
 Alpha  occ. eigenvalues --   -0.12704
 Alpha virt. eigenvalues --   -0.01741  -0.01279  -0.00123   0.00288   0.01580
 Alpha virt. eigenvalues --    0.01776   0.02165   0.03559   0.04352   0.04440
 Alpha virt. eigenvalues --    0.05183   0.05861   0.06117   0.06127   0.06984

  Beta  occ. eigenvalues -- -482.80615-482.80608 -62.45892 -62.45885 -56.27902
  Beta  occ. eigenvalues --  -56.27895 -56.27565 -56.27558 -56.27533 -56.27526
  Beta  occ. eigenvalues --  -19.02496 -19.02482 -10.18889 -10.18870 -10.18696
  Beta  occ. eigenvalues --  -10.18653 -10.15697 -10.15650 -10.15338 -10.15331
  Beta  occ. eigenvalues --  -10.15285 -10.15248  -8.66854  -8.66847  -6.49906
  Beta  occ. eigenvalues --   -6.49899  -6.48784  -6.48777  -6.48691  -6.48684
  Beta  occ. eigenvalues --   -2.61017  -2.61009  -2.60711  -2.60704  -2.60640
  Beta  occ. eigenvalues --   -2.60633  -2.59747  -2.59746  -2.59739  -2.59738
  Beta  occ. eigenvalues --   -0.94386  -0.93941  -0.83700  -0.81379  -0.76485
  Beta  occ. eigenvalues --   -0.75385  -0.73106  -0.69188  -0.65061  -0.58736
  Beta  occ. eigenvalues --   -0.58051  -0.53556  -0.49015  -0.47060  -0.44123
  Beta  occ. eigenvalues --   -0.42722  -0.40698  -0.39045  -0.38678  -0.37846
  Beta  occ. eigenvalues --   -0.36589  -0.35572  -0.33972  -0.33425  -0.32825
  Beta  occ. eigenvalues --   -0.31587  -0.29308  -0.28569  -0.28031  -0.25628
  Beta  occ. eigenvalues --   -0.23527  -0.23224  -0.21564  -0.20805  -0.20284
  Beta  occ. eigenvalues --   -0.12704
  Beta virt. eigenvalues --   -0.01741  -0.01279  -0.00123   0.00288   0.01580
  Beta virt. eigenvalues --    0.01776   0.02165   0.03559   0.04352   0.04440
  Beta virt. eigenvalues --    0.05183   0.05861   0.06117   0.06127   0.06984

 Mulliken charges and spin densities:
               1          2
     1  C    0.093943  -0.000000
     2  C   -0.402963  -0.000000
     3  C   -0.404799  -0.000000
     4  C    0.471861  -0.000000
     5  C    0.475158   0.000000
     6  C    0.096300  -0.000000
     7  C   -1.111733   0.000000
     8  C    0.444881  -0.000000
     9  C    0.440049   0.000000
    10  C   -1.115034   0.000000
    11  O   -0.613585  -0.000000
    12  O   -0.611846  -0.000000
    13  H    0.153217   0.000000
    14  H    0.153757   0.000000
    15  Br  -0.204383   0.000000
    16  Br  -0.203854  -0.000000
    17  H    0.169537  -0.000000
    18  H    0.169493  -0.000000
 Sum of Mulliken charges =  -2.00000  -0.00000

 Dipole moment (field-independent basis, Debye):
    X=            -31.2648    Y=             32.5929    Z=            -14.6315  Tot=             47.4749
 Quadrupole moment (field-independent basis, Debye-Ang):
   XX=           -229.8164   YY=           -256.1982   ZZ=           -169.6562
   XY=            115.5272   XZ=            -47.9316   YZ=             75.6573

  Exact polarizability: 337.354 -81.691 250.141 -86.875 -46.072 286.448
 Approx polarizability: 360.069 -87.438 283.334 -86.944 -61.510 320.544

                      1                      2                      3
                      A                      A                      A
 Frequencies --     58.3928                77.1482               134.8321
 Red. masses --     11.5989                 8.7058                58.0006
 Frc consts  --      0.0233                 0.0305                 0.6213
 IR Inten    --      0.0294                21.2735                 2.9352

                      4                      5                      6
                      A                      A                      A
 Frequencies --    147.8495               171.5142               173.6903
 Red. masses --      4.9070                10.9112                13.0939
 Frc consts  --      0.0632                 0.1891                 0.2327
 IR Inten    --      0.0920                 7.0521                 6.3914

                      7                      8                      9
                      A                      A                      A
 Frequencies --    240.9209               256.3318               273.2008
 Red. masses --     11.5528                16.7554                 6.6132
 Frc consts  --      0.3951                 0.6486                 0.2908
 IR Inten    --     13.5934                 0.2531                 0.6709

                     10                     11                     12
                      A                      A                      A
 Frequencies --    293.5090               318.8000               366.2748
 Red. masses --      9.7084                11.2955                10.3137
 Frc consts  --      0.4928                 0.6764                 0.8152
 IR Inten    --      0.2942                 0.0429                13.0534

                     13                     14                     15
                      A                      A                      A
 Frequencies --    459.8866               482.3642               504.7974
 Red. masses --      3.3791                13.9352                 5.1484
 Frc consts  --      0.4211                 1.9104                 0.7730
 IR Inten    --      3.1385                17.7114                 0.0272

                     16                     17                     18
                      A                      A                      A
 Frequencies --    517.6708               619.0010               660.5311
 Red. masses --      7.4985                 7.8657                 5.7915
 Frc consts  --      1.1839                 1.7757                 1.4888
 IR Inten    --      0.9934                20.2061                 0.0275

                     19                     20                     21
                      A                      A                      A
 Frequencies --    681.7816               694.4379               758.7371
 Red. masses --      8.2676                 2.9858                 7.3651
 Frc consts  --      2.2642                 0.8484                 2.4981
 IR Inten    --      0.3641                87.6091                28.0383

                     22                     23                     24
                      A                      A                      A
 Frequencies --    780.6884               783.5717               791.1964
 Red. masses --      1.6999                10.9746                 4.2797
 Frc consts  --      0.6104                 3.9701                 1.5784
 IR Inten    --     63.4085               423.6866                 0.2835

                     25                     26                     27
                      A                      A                      A
 Frequencies --    864.9209               875.6575               981.0298
 Red. masses --      7.3917                 1.5537                 1.3573
 Frc consts  --      3.2580                 0.7019                 0.7696
 IR Inten    --     13.2579                 0.0039                 4.3488

                     28                     29                     30
                      A                      A                      A
 Frequencies --    992.3838              1027.9574              1087.0652
 Red. masses --      1.2591                 2.3191                 3.3205
 Frc consts  --      0.7306                 1.4438                 2.3118
 IR Inten    --      0.2746                42.7418                 1.3706

                     31                     32                     33
                      A                      A                      A
 Frequencies --   1097.1803              1134.6725              1168.3830
 Red. masses --      2.7288                 1.9310                 2.0996
 Frc consts  --      1.9354                 1.4647                 1.6888
 IR Inten    --     77.9227               233.4927                10.8721

                     34                     35                     36
                      A                      A                      A
 Frequencies --   1202.2435              1235.6413              1301.7396
 Red. masses --      2.2048                 2.0288                11.0334
 Frc consts  --      1.8776                 1.8250                11.0156
 IR Inten    --    262.2069               118.1297                10.5396

                     37                     38                     39
                      A                      A                      A
 Frequencies --   1353.2335              1358.2076              1403.6198
 Red. masses --      8.5136                 6.9369                 3.1009
 Frc consts  --      9.1857                 7.5395                 3.5995
 IR Inten    --    196.1912               756.3346              1281.9863

                     40                     41                     42
                      A                      A                      A
 Frequencies --   1434.4119              1489.0750              1503.8215
 Red. masses --      4.0785                 4.0972                 3.6370
 Frc consts  --      4.9442                 5.3527                 4.8461
 IR Inten    --     19.1790               463.0581                 1.2743

                     43                     44                     45
                      A                      A                      A
 Frequencies --   1587.4784              1618.1743              3145.4818
 Red. masses --      7.8893                 5.6365                 1.0853
 Frc consts  --     11.7140                 8.6958                 6.3268
 IR Inten    --     56.1011                 0.0342                16.5856

                     46                     47                     48
                      A                      A                      A
 Frequencies --   3161.0556              3179.5610              3185.6513
 Red. masses --      1.0905                 1.0921                 1.0925
 Frc consts  --      6.4200                 6.5047                 6.5325
 IR Inten    --     37.6545                35.2841                46.8185

 - Thermochemistry -
 -------------------
 Temperature   298.150 Kelvin.  Pressure   1.00000 Atm.
 Atom     1 has atomic number  6 and mass  12.00000

 Molecular mass:   313.85780 amu.
 Principal axes and moments of inertia in atomic units:
                           1         2         3
     Eigenvalues --  3077.259705752.671758829.59285
           X            0.83723   0.15293   0.52503
           Y           -0.28508  -0.69726   0.65770
           Z           -0.46666   0.70032   0.54017
 This molecule is an asymmetric top.
 Rotational symmetry number  1.
 Warning -- assumption of classical behavior for rotation
           may cause significant error
 Rotational temperatures (Kelvin)      0.02815     0.01506     0.00981
 Rotational constants (GHZ):           0.58648     0.31372     0.20440
 Zero-point vibrational energy     284925.2 (Joules/Mol)
                                   68.09876 (Kcal/Mol)
 Warning -- explicit consideration of  17 degrees of freedom as
           vibrations may cause significant error
 Vibrational temperatures:     84.01   111.00   193.99   212.72   246.77
          (Kelvin)            249.90   346.63   368.80   393.07   422.29
                              458.68   526.99   661.67   694.01   726.29
                              744.81   890.60   950.36   980.93   999.14
                             1091.65  1123.24  1127.38  1138.36  1244.43
                             1259.88  1411.48  1427.82  1479.00  1564.04
                             1578.60  1632.54  1681.04  1729.76  1777.81
                             1872.91  1947.00  1954.16  2019.50  2063.80
                             2142.45  2163.66  2284.03  2328.19  4525.65
                             4548.05  4574.68  4583.44

 Zero-point correction=                           0.108522 (Hartree/Particle)
 Thermal correction to Energy=                    0.120272
 Thermal correction to Enthalpy=                  0.121217
 Thermal correction to Gibbs Free Energy=         0.068752
 Sum of electronic and zero-point Energies=          -5682.502110
 Sum of electronic and thermal Energies=             -5682.490360
 Sum of electronic and thermal Enthalpies=           -5682.489416
 Sum of electronic and thermal Free Energies=        -5682.541881

                     E (Thermal)             CV                S
                      KCal/Mol        Cal/Mol-Kelvin    Cal/Mol-Kelvin
 Total                   75.472             43.524            110.422
 Electronic               0.000              0.000              0.000
 Translational            0.889              2.981             43.127
 Rotational               0.889              2.981             33.413
 Vibrational             73.695             37.562             33.881
 Vibration     1          0.596              1.974              4.511
 Vibration     2          0.599              1.964              3.962
 Vibration     3          0.613              1.919              2.876
 Vibration     4          0.617              1.905              2.700
 Vibration     5          0.626              1.878              2.419
 Vibration     6          0.627              1.875              2.395
 Vibration     7          0.658              1.778              1.796
 Vibration     8          0.666              1.752              1.687
 Vibration     9          0.676              1.723              1.576
 Vibration    10          0.688              1.686              1.454
 Vibration    11          0.705              1.638              1.316
 Vibration    12          0.739              1.542              1.095
 Vibration    13          0.818              1.339              0.766
 Vibration    14          0.839              1.289              0.704
 Vibration    15          0.860              1.239              0.646
 Vibration    16          0.873              1.211              0.615
 Vibration    17          0.979              0.992              0.418

 Optimization completed.
    -- Stationary point found.
 Normal termination of Gaussian 16 at Sun Feb 11 02:40:09 2024.
