 Gaussian 16, Revision A.03,
 Gaussian 16:  ES64L-G16RevA.03 25-Dec-2016

 ----------------------------------------------------------------------
 #P UB3LYP/6-311++G(d,p) nosym opt freq SCRF=(PCM,Solvent=n,n-DiMethylF
 ormamide)
 ----------------------------------------------------------------------

 -------
 Radical
 -------
 Symbolic Z-matrix:
 Charge = -1 Multiplicity = 2

 SCF Done:  E(UB3LYP) =  -770.105267167     A.U. after   19 cycles
 SCF Done:  E(UB3LYP) =  -770.104894597     A.U. after   16 cycles
 SCF Done:  E(UB3LYP) =  -770.104205877     A.U. after   15 cycles
 SCF Done:  E(UB3LYP) =  -770.103969873     A.U. after   17 cycles
 SCF Done:  E(UB3LYP) =  -770.105291996     A.U. after   11 cycles
 SCF Done:  E(UB3LYP) =  -770.105420061     A.U. after   16 cycles
 SCF Done:  E(UB3LYP) =  -770.105643843     A.U. after   14 cycles
 SCF Done:  E(UB3LYP) =  -770.105647694     A.U. after   12 cycles
 SCF Done:  E(UB3LYP) =  -770.105652397     A.U. after   12 cycles
 SCF Done:  E(UB3LYP) =  -770.105655994     A.U. after   12 cycles
 SCF Done:  E(UB3LYP) =  -770.105638956     A.U. after   17 cycles
 SCF Done:  E(UB3LYP) =  -770.106161115     A.U. after   15 cycles
 SCF Done:  E(UB3LYP) =  -770.106089449     A.U. after   15 cycles
 SCF Done:  E(UB3LYP) =  -770.106308422     A.U. after   15 cycles
 SCF Done:  E(UB3LYP) =  -770.106334110     A.U. after   13 cycles
 SCF Done:  E(UB3LYP) =  -770.106337846     A.U. after   14 cycles
 SCF Done:  E(UB3LYP) =  -770.106340600     A.U. after   12 cycles
 SCF Done:  E(UB3LYP) =  -770.106340731     A.U. after   10 cycles
 SCF Done:  E(UB3LYP) =  -770.106340761     A.U. after   10 cycles
 Optimization completed.
    -- Stationary point found.
 Normal termination of Gaussian 16 at Sat Mar  2 23:50:38 2024.

 ----------------------------------------------------------------------
 #P Geom=AllCheck Guess=TCheck SCRF=Check GenChk UB3LYP/6-311++G(d,p) F
 req
 ----------------------------------------------------------------------

 Structure from the checkpoint file:  "036-rad.chk"
 -------
 Radical
 -------
 Charge = -1 Multiplicity = 2

                          Input orientation:
 ---------------------------------------------------------------------
 Center     Atomic      Atomic             Coordinates (Angstroms)
 Number     Number       Type             X           Y           Z
 ---------------------------------------------------------------------
      1          6           0       -2.903940    1.892926    0.189708
      2          6           0       -3.971804    1.531893   -0.700034
      3          6           0       -4.144052    0.239359   -1.095421
      4          6           0       -3.270599   -0.828574   -0.666147
      5          6           0       -2.072006   -0.460963    0.104018
      6          6           0       -1.971181    0.837690    0.595700
      7          8           0       -2.770018    3.091322    0.601286
      8          8           0       -3.597055   -2.026980   -0.935624
      9          6           0       -0.928743    1.313389    1.581962
     10          6           0       -1.005751   -1.549141    0.435646
     11          6           0        0.430230   -0.985049    0.352782
     12          6           0        0.818734   -0.239764   -0.770590
     13          6           0        1.415774   -1.287175    1.299712
     14          6           0        2.733183   -0.850370    1.141121
     15          6           0        2.130956    0.197011   -0.935957
     16          6           0        3.099675   -0.104898    0.022850
     17          1           0       -4.649336    2.318698   -1.018539
     18          1           0       -4.979566   -0.051091   -1.725628
     19          1           0       -1.396510    2.015656    2.274967
     20          1           0       -0.119753    1.860524    1.085508
     21          1           0       -0.476542    0.507566    2.151178
     22          1           0        0.079315    0.011118   -1.522943
     23          1           0        1.165296   -1.861454    2.183025
     24          1           0        3.471609   -1.095250    1.897370
     25          1           0        2.397261    0.775687   -1.814224
     26          6           0       -1.346809   -2.152674    1.819182
     27          1           0       -2.372465   -2.526995    1.795886
     28          1           0       -0.694442   -2.996496    2.062413
     29          1           0       -1.274974   -1.419671    2.625550
     30          6           0       -0.964936   -2.737755   -0.574793
     31          1           0       -1.853046   -3.357224   -0.500999
     32          1           0       -0.882201   -2.383612   -1.604637
     33          1           0       -0.078900   -3.341252   -0.355598
     34          1           0        4.121580    0.235896   -0.101130
 ---------------------------------------------------------------------

 SCF Done:  E(UB3LYP) =  -770.106340761     A.U. after    1 cycles

 Alpha  occ. eigenvalues --  -19.06973 -19.06799 -10.21515 -10.21090 -10.19247
 Alpha  occ. eigenvalues --  -10.18054 -10.17348 -10.17318 -10.17125 -10.17024
 Alpha  occ. eigenvalues --  -10.16921 -10.16871 -10.16821 -10.15623 -10.15540
 Alpha  occ. eigenvalues --  -10.15455 -10.14793 -10.14529  -0.99016  -0.98701
 Alpha  occ. eigenvalues --   -0.86263  -0.82610  -0.79778  -0.75411  -0.74524
 Alpha  occ. eigenvalues --   -0.73174  -0.69032  -0.67777  -0.65578  -0.61888
 Alpha  occ. eigenvalues --   -0.60258  -0.58705  -0.55488  -0.53667  -0.50997
 Alpha  occ. eigenvalues --   -0.47861  -0.46429  -0.45414  -0.44964  -0.44194
 Alpha  occ. eigenvalues --   -0.43137  -0.42281  -0.41936  -0.41033  -0.39776
 Alpha  occ. eigenvalues --   -0.39150  -0.38748  -0.38629  -0.38011  -0.37064
 Alpha  occ. eigenvalues --   -0.36570  -0.36107  -0.35659  -0.35110  -0.34634
 Alpha  occ. eigenvalues --   -0.33191  -0.32733  -0.32003  -0.27331  -0.25536
 Alpha  occ. eigenvalues --   -0.24792  -0.23532  -0.23493  -0.22694  -0.15523
 Alpha virt. eigenvalues --   -0.01404  -0.01332  -0.00495  -0.00403   0.00666
 Alpha virt. eigenvalues --    0.01081   0.01370   0.01946   0.02617   0.03050
 Alpha virt. eigenvalues --    0.03105   0.03501   0.04156   0.04447   0.05213

  Beta  occ. eigenvalues --  -19.06290 -19.06110 -10.21374 -10.20925 -10.19254
  Beta  occ. eigenvalues --  -10.18052 -10.17348 -10.17318 -10.17125 -10.16934
  Beta  occ. eigenvalues --  -10.16921 -10.16821 -10.16767 -10.15497 -10.15448
  Beta  occ. eigenvalues --  -10.15428 -10.14802 -10.14529  -0.97815  -0.97472
  Beta  occ. eigenvalues --   -0.86241  -0.82270  -0.79462  -0.75193  -0.74514
  Beta  occ. eigenvalues --   -0.73140  -0.68676  -0.67731  -0.64763  -0.61808
  Beta  occ. eigenvalues --   -0.60249  -0.58472  -0.55207  -0.53416  -0.50939
  Beta  occ. eigenvalues --   -0.47702  -0.46233  -0.45254  -0.44784  -0.44132
  Beta  occ. eigenvalues --   -0.43069  -0.41975  -0.41587  -0.40633  -0.39533
  Beta  occ. eigenvalues --   -0.38800  -0.38485  -0.38308  -0.37340  -0.36697
  Beta  occ. eigenvalues --   -0.36250  -0.35846  -0.34955  -0.34576  -0.33291
  Beta  occ. eigenvalues --   -0.32959  -0.32543  -0.31916  -0.25535  -0.24655
  Beta  occ. eigenvalues --   -0.24288  -0.22888  -0.22661  -0.22074
  Beta virt. eigenvalues --   -0.08307  -0.01393  -0.01298  -0.00472   0.00661
  Beta virt. eigenvalues --    0.00708   0.01230   0.01515   0.01970   0.02766
  Beta virt. eigenvalues --    0.03088   0.03276   0.04169   0.04414   0.04849

 Mulliken charges and spin densities:
               1          2
     1  C   -0.367677   0.115380
     2  C   -0.020451   0.071853
     3  C   -0.142379   0.091862
     4  C   -0.545801   0.091079
     5  C    0.273729   0.077551
     6  C    0.239737   0.058523
     7  O   -0.507531   0.244304
     8  O   -0.449739   0.245692
     9  C   -0.628806   0.003059
    10  C    0.545138  -0.007261
    11  C    0.840713  -0.003764
    12  C   -0.418527   0.001598
    13  C   -0.096887   0.001234
    14  C   -0.495078   0.001405
    15  C   -0.428063  -0.000975
    16  C   -0.326891  -0.000114
    17  H    0.179568  -0.006745
    18  H    0.185668  -0.009655
    19  H    0.180343   0.002146
    20  H    0.188156   0.006482
    21  H    0.156351  -0.000293
    22  H    0.186068  -0.000694
    23  H    0.170508  -0.000283
    24  H    0.198424  -0.000012
    25  H    0.198889   0.000035
    26  C   -0.593098   0.005351
    27  H    0.203290  -0.001381
    28  H    0.141471   0.001335
    29  H    0.131497  -0.000203
    30  C   -0.642704   0.014752
    31  H    0.170954  -0.000801
    32  H    0.157932  -0.000775
    33  H    0.142886  -0.000691
    34  H    0.172308   0.000005
 Sum of Mulliken charges =  -1.00000   1.00000

 Dipole moment (field-independent basis, Debye):
    X=             14.6792    Y=             -3.0521    Z=              0.9888  Tot=             15.0257
 Quadrupole moment (field-independent basis, Debye-Ang):
   XX=           -158.8188   YY=           -150.0712   ZZ=           -111.9845
   XY=              5.2928   XZ=             -2.4899   YZ=            -13.7086

  Exact polarizability: 305.489  11.887 339.761  39.453  13.837 244.832
 Approx polarizability: 318.454  24.679 386.548  40.383  15.444 280.802

                      1                      2                      3
                      A                      A                      A
 Frequencies --     34.9286                59.9037                61.8557
 Red. masses --      5.1753                 4.9934                 3.6023
 Frc consts  --      0.0037                 0.0106                 0.0081
 IR Inten    --      0.7783                 0.3223                 0.0703

                      4                      5                      6
                      A                      A                      A
 Frequencies --     88.4059               116.5288               164.9186
 Red. masses --      5.4136                 4.4835                 1.4318
 Frc consts  --      0.0249                 0.0359                 0.0229
 IR Inten    --     13.4397                 8.9076                 0.4500

                      7                      8                      9
                      A                      A                      A
 Frequencies --    196.8660               210.1916               231.1220
 Red. masses --      2.2805                 2.2733                 3.4969
 Frc consts  --      0.0521                 0.0592                 0.1101
 IR Inten    --      1.5601                 1.4221                 4.7974

                     10                     11                     12
                      A                      A                      A
 Frequencies --    249.0008               290.5012               299.9920
 Red. masses --      2.9611                 1.7603                 1.2568
 Frc consts  --      0.1082                 0.0875                 0.0666
 IR Inten    --      0.8278                 0.3681                 0.1405

                     13                     14                     15
                      A                      A                      A
 Frequencies --    306.8532               324.6565               338.8290
 Red. masses --      2.9052                 4.0540                 2.6637
 Frc consts  --      0.1612                 0.2518                 0.1802
 IR Inten    --      0.8572                 1.8329                 0.5264

                     16                     17                     18
                      A                      A                      A
 Frequencies --    350.5321               369.5948               409.1279
 Red. masses --      2.4396                 2.7302                 3.9137
 Frc consts  --      0.1766                 0.2197                 0.3860
 IR Inten    --      3.6516                 6.3224                11.3674

                     19                     20                     21
                      A                      A                      A
 Frequencies --    416.9169               420.4377               472.4737
 Red. masses --      2.9329                 5.1365                 8.7132
 Frc consts  --      0.3004                 0.5350                 1.1460
 IR Inten    --      0.3215                20.4091                 0.3957

                     22                     23                     24
                      A                      A                      A
 Frequencies --    484.6320               521.6278               565.8435
 Red. masses --      3.4644                 5.0756                 3.4900
 Frc consts  --      0.4794                 0.8137                 0.6584
 IR Inten    --      1.0712                 5.9078                 5.3878

                     25                     26                     27
                      A                      A                      A
 Frequencies --    570.2255               623.4036               632.6909
 Red. masses --      3.3104                 3.7193                 6.2181
 Frc consts  --      0.6342                 0.8516                 1.4665
 IR Inten    --     21.9541                 3.3174                 0.1408

                     28                     29                     30
                      A                      A                      A
 Frequencies --    640.2606               648.9310               714.2966
 Red. masses --      3.0166                 4.0759                 1.5261
 Frc consts  --      0.7286                 1.0113                 0.4588
 IR Inten    --      2.2341                 0.7542                86.6131

                     31                     32                     33
                      A                      A                      A
 Frequencies --    739.3210               780.3702               783.7022
 Red. masses --      5.4622                 3.6561                 4.0419
 Frc consts  --      1.7591                 1.3118                 1.4626
 IR Inten    --     31.8164                45.7538                30.2970

                     34                     35                     36
                      A                      A                      A
 Frequencies --    788.5065               823.6091               839.8612
 Red. masses --      2.5803                 2.1490                 3.0829
 Frc consts  --      0.9452                 0.8589                 1.2812
 IR Inten    --      2.9007                73.5300                14.4503

                     37                     38                     39
                      A                      A                      A
 Frequencies --    857.6401               917.8835               941.8011
 Red. masses --      1.2548                 1.6771                 1.5839
 Frc consts  --      0.5438                 0.8325                 0.8278
 IR Inten    --      0.2365                 0.6232                 6.0944

                     40                     41                     42
                      A                      A                      A
 Frequencies --    943.2537               951.2157               989.6545
 Red. masses --      1.8100                 1.3012                 3.4085
 Frc consts  --      0.9488                 0.6937                 1.9669
 IR Inten    --      0.1239                 0.9935                44.8202

                     43                     44                     45
                      A                      A                      A
 Frequencies --    992.3590              1005.7055              1012.8826
 Red. masses --      1.3836                 1.2938                 5.3636
 Frc consts  --      0.8028                 0.7710                 3.2421
 IR Inten    --      0.4108                 0.2186                 0.3187

                     46                     47                     48
                      A                      A                      A
 Frequencies --   1026.7878              1039.0325              1045.4500
 Red. masses --      1.3832                 1.6817                 2.2419
 Frc consts  --      0.8592                 1.0697                 1.4437
 IR Inten    --     15.2811                40.7428                25.6876

                     49                     50                     51
                      A                      A                      A
 Frequencies --   1048.1823              1091.9560              1108.2811
 Red. masses --      1.9423                 1.8017                 1.7720
 Frc consts  --      1.2573                 1.2657                 1.2824
 IR Inten    --     45.9967                12.8455                 8.5347

                     52                     53                     54
                      A                      A                      A
 Frequencies --   1120.8437              1141.5100              1165.7340
 Red. masses --      2.0164                 2.4890                 2.5837
 Frc consts  --      1.4925                 1.9109                 2.0686
 IR Inten    --     23.9987                15.7547                15.6063

                     55                     56                     57
                      A                      A                      A
 Frequencies --   1173.7298              1198.3506              1202.8838
 Red. masses --      1.0992                 2.2480                 1.1416
 Frc consts  --      0.8922                 1.9020                 0.9732
 IR Inten    --      0.1034                17.7579                 0.7234

                     58                     59                     60
                      A                      A                      A
 Frequencies --   1220.1040              1245.6167              1316.4297
 Red. masses --      3.0976                 3.2516                 5.1482
 Frc consts  --      2.7168                 2.9725                 5.2566
 IR Inten    --      9.2583                21.3603                 2.6485

                     61                     62                     63
                      A                      A                      A
 Frequencies --   1339.9251              1354.1801              1389.1359
 Red. masses --      2.2292                 1.4525                 1.2056
 Frc consts  --      2.3581                 1.5693                 1.3707
 IR Inten    --      4.8113                 0.2185                13.0709

                     64                     65                     66
                      A                      A                      A
 Frequencies --   1401.7940              1410.1649              1416.0984
 Red. masses --      1.2937                 1.2676                 4.4775
 Frc consts  --      1.4978                 1.4852                 5.2902
 IR Inten    --    103.4978                13.2378               442.3766

                     67                     68                     69
                      A                      A                      A
 Frequencies --   1455.7581              1466.4681              1468.7315
 Red. masses --      1.8819                 1.7438                 1.2305
 Frc consts  --      2.3498                 2.2094                 1.5639
 IR Inten    --     20.2443                41.1407               114.0217

                     70                     71                     72
                      A                      A                      A
 Frequencies --   1470.0415              1477.4104              1482.2833
 Red. masses --      1.7866                 1.7783                 1.1342
 Frc consts  --      2.2747                 2.2870                 1.4683
 IR Inten    --     41.8676                 7.0113                10.5046

                     73                     74                     75
                      A                      A                      A
 Frequencies --   1496.9384              1498.9074              1502.5380
 Red. masses --      1.1866                 2.0096                 1.2312
 Frc consts  --      1.5666                 2.6602                 1.6376
 IR Inten    --    135.4645               131.9708               161.0706

                     76                     77                     78
                      A                      A                      A
 Frequencies --   1509.3285              1521.3746              1612.3694
 Red. masses --      2.0177                 2.0510                 5.4174
 Frc consts  --      2.7081                 2.7970                 8.2980
 IR Inten    --    395.4158                24.1509                 0.7659

                     79                     80                     81
                      A                      A                      A
 Frequencies --   1629.1013              1634.0641              3024.1582
 Red. masses --      6.7634                 5.6451                 1.0424
 Frc consts  --     10.5757                 8.8810                 5.6169
 IR Inten    --     48.8304                12.7720                49.0439

                     82                     83                     84
                      A                      A                      A
 Frequencies --   3024.8077              3029.3604              3079.3300
 Red. masses --      1.0473                 1.0414                 1.0884
 Frc consts  --      5.6455                 5.6310                 6.0808
 IR Inten    --     54.1568                83.7828                34.7377

                     85                     86                     87
                      A                      A                      A
 Frequencies --   3087.0199              3089.5818              3102.2659
 Red. masses --      1.0992                 1.0984                 1.1024
 Frc consts  --      6.1717                 6.1777                 6.2510
 IR Inten    --     36.8906                84.0427                39.0113

                     88                     89                     90
                      A                      A                      A
 Frequencies --   3142.6056              3155.5606              3159.7112
 Red. masses --      1.0853                 1.0851                 1.0961
 Frc consts  --      6.3150                 6.3658                 6.4477
 IR Inten    --     34.7563                 4.3470                29.1600

                     91                     92                     93
                      A                      A                      A
 Frequencies --   3162.4001              3162.9249              3163.0224
 Red. masses --      1.0882                 1.0940                 1.0955
 Frc consts  --      6.4122                 6.4483                 6.4575
 IR Inten    --      8.7010                 3.1556                68.8291

                     94                     95                     96
                      A                      A                      A
 Frequencies --   3173.7734              3182.2514              3191.1002
 Red. masses --      1.0918                 1.0953                 1.0933
 Frc consts  --      6.4795                 6.5349                 6.5597
 IR Inten    --     39.9905                40.1640                16.8101

 - Thermochemistry -
 -------------------
 Temperature   298.150 Kelvin.  Pressure   1.00000 Atm.
 Atom     1 has atomic number  6 and mass  12.00000

 Molecular mass:   240.11503 amu.
 Principal axes and moments of inertia in atomic units:
                           1         2         3
     Eigenvalues --  2675.683685361.272566626.02809
           X            0.95810   0.23843  -0.15873
           Y           -0.25641   0.96093  -0.10426
           Z            0.12767   0.14059   0.98180
 This molecule is an asymmetric top.
 Rotational symmetry number  1.
 Warning -- assumption of classical behavior for rotation
           may cause significant error
 Rotational temperatures (Kelvin)      0.03237     0.01616     0.01307
 Rotational constants (GHZ):           0.67450     0.33663     0.27237
 Zero-point vibrational energy     722512.7 (Joules/Mol)
                                  172.68468 (Kcal/Mol)
 Warning -- explicit consideration of  25 degrees of freedom as
           vibrations may cause significant error
 Vibrational temperatures:     50.25    86.19    89.00   127.20   167.66
          (Kelvin)            237.28   283.25   302.42   332.53   358.26
                              417.97   431.62   441.49   467.11   487.50
                              504.34   531.76   588.64   599.85   604.92
                              679.78   697.28   750.51   814.12   820.43
                              896.94   910.30   921.19   933.67  1027.71
                             1063.72  1122.78  1127.57  1134.49  1184.99
                             1208.37  1233.95  1320.63  1355.04  1357.13
                             1368.59  1423.89  1427.78  1446.99  1457.31
                             1477.32  1494.94  1504.17  1508.10  1571.08
                             1594.57  1612.64  1642.38  1677.23  1688.74
                             1724.16  1730.68  1755.46  1792.16  1894.05
                             1927.85  1948.36  1998.66  2016.87  2028.91
                             2037.45  2094.51  2109.92  2113.18  2115.06
                             2125.66  2132.68  2153.76  2156.59  2161.82
                             2171.59  2188.92  2319.84  2343.91  2351.05
                             4351.09  4352.02  4358.57  4430.47  4441.53
                             4445.22  4463.47  4521.51  4540.15  4546.12
                             4549.99  4550.74  4550.88  4566.35  4578.55
                             4591.28

 Zero-point correction=                           0.275191 (Hartree/Particle)
 Thermal correction to Energy=                    0.291365
 Thermal correction to Enthalpy=                  0.292309
 Thermal correction to Gibbs Free Energy=         0.231386
 Sum of electronic and zero-point Energies=           -769.831150
 Sum of electronic and thermal Energies=              -769.814976
 Sum of electronic and thermal Enthalpies=            -769.814032
 Sum of electronic and thermal Free Energies=         -769.874955

                     E (Thermal)             CV                S
                      KCal/Mol        Cal/Mol-Kelvin    Cal/Mol-Kelvin
 Total                  182.834             64.507            128.224
 Electronic               0.000              0.000              1.377
 Translational            0.889              2.981             42.329
 Rotational               0.889              2.981             32.919
 Vibrational            181.057             58.545             51.598
 Vibration     1          0.594              1.983              5.528
 Vibration     2          0.597              1.973              4.460
 Vibration     3          0.597              1.973              4.397
 Vibration     4          0.601              1.957              3.695
 Vibration     5          0.608              1.936              3.157
 Vibration     6          0.623              1.886              2.493
 Vibration     7          0.636              1.844              2.162
 Vibration     8          0.642              1.825              2.042
 Vibration     9          0.653              1.793              1.870
 Vibration    10          0.662              1.764              1.738
 Vibration    11          0.686              1.691              1.471
 Vibration    12          0.693              1.674              1.417
 Vibration    13          0.697              1.661              1.379
 Vibration    14          0.709              1.626              1.287
 Vibration    15          0.719              1.598              1.218
 Vibration    16          0.727              1.574              1.164
 Vibration    17          0.742              1.535              1.081
 Vibration    18          0.773              1.450              0.930
 Vibration    19          0.780              1.433              0.903
 Vibration    20          0.783              1.426              0.890
 Vibration    21          0.829              1.311              0.731
 Vibration    22          0.841              1.284              0.698
 Vibration    23          0.877              1.202              0.606
 Vibration    24          0.922              1.105              0.512
 Vibration    25          0.926              1.096              0.504

 Optimization completed.
    -- Stationary point found.
 Normal termination of Gaussian 16 at Sun Mar  3 01:23:41 2024.
