 Gaussian 16, Revision A.03,
 Gaussian 16:  ES64L-G16RevA.03 25-Dec-2016

 --------------------------------------
 #P UB3LYP/6-311++G(d,p) nosym opt freq
 --------------------------------------

 -------
 Reduced
 -------
 Symbolic Z-matrix:
 Charge = -2 Multiplicity = 1

 SCF Done:  E(UB3LYP) =  -1148.53537878     A.U. after   34 cycles
 SCF Done:  E(UB3LYP) =  -1148.56095636     A.U. after   20 cycles
 SCF Done:  E(UB3LYP) =  -1148.56329456     A.U. after   16 cycles
 SCF Done:  E(UB3LYP) =  -1148.56344430     A.U. after   14 cycles
 SCF Done:  E(UB3LYP) =  -1148.56346871     A.U. after   14 cycles
 SCF Done:  E(UB3LYP) =  -1148.56347105     A.U. after   13 cycles
 Optimization completed.
    -- Stationary point found.
 Normal termination of Gaussian 16 at Thu Dec 21 06:07:09 2023.

 ----------------------------------------------------------------------
 #P Geom=AllCheck Guess=TCheck SCRF=Check GenChk UB3LYP/6-311++G(d,p) F
 req
 ----------------------------------------------------------------------

 Structure from the checkpoint file:  "118-an.chk"
 -------
 Reduced
 -------
 Charge = -2 Multiplicity = 1

                          Input orientation:
 ---------------------------------------------------------------------
 Center     Atomic      Atomic             Coordinates (Angstroms)
 Number     Number       Type             X           Y           Z
 ---------------------------------------------------------------------
      1         17           0        5.211466   -1.493459   -0.002790
      2          6           0        3.614633   -0.647455   -0.147940
      3          6           0        3.634854    0.732746   -0.482382
      4          6           0        2.419499    1.377567   -0.593079
      5          6           0        1.177465    0.727563   -0.389782
      6          6           0       -0.044735    1.484666   -0.527404
      7          8           0       -0.063201    2.736932   -0.828587
      8          6           0       -1.248495    0.714307   -0.295839
      9          6           0       -2.510128    1.354988   -0.403128
     10          6           0       -3.699794    0.687812   -0.197165
     11          6           0       -3.678609   -0.697387    0.136820
     12          6           0       -2.470387   -1.352367    0.249661
     13          6           0       -1.226403   -0.698441    0.044764
     14          6           0       -0.002127   -1.458542    0.182371
     15          8           0        0.014459   -2.711538    0.485350
     16          6           0        1.194597   -0.689283   -0.047948
     17          6           0        2.456447   -1.339894    0.062456
     18          1           0        4.574884    1.249289   -0.642263
     19          1           0        2.373456    2.432723   -0.846551
     20          1           0       -2.490217    2.410366   -0.658903
     21          1           0       -4.649052    1.213729   -0.288515
     22          1           0       -4.612136   -1.233706    0.301615
     23          1           0       -2.419376   -2.407236    0.502779
     24          1           0        2.442903   -2.393378    0.317597
 ---------------------------------------------------------------------

 SCF Done:  E(UB3LYP) =  -1148.56347105     A.U. after    1 cycles

 Alpha  occ. eigenvalues -- -101.33143 -18.77671 -18.77360  -9.98630  -9.93733
 Alpha  occ. eigenvalues --   -9.93550  -9.93515  -9.92816  -9.92766  -9.92759
 Alpha  occ. eigenvalues --   -9.92681  -9.91925  -9.91868  -9.90612  -9.90364
 Alpha  occ. eigenvalues --   -9.90334  -9.90284  -9.24575  -7.00944  -7.00101
 Alpha  occ. eigenvalues --   -7.00097  -0.69396  -0.68886  -0.64390  -0.59458
 Alpha  occ. eigenvalues --   -0.58394  -0.51964  -0.49975  -0.49366  -0.47346
 Alpha  occ. eigenvalues --   -0.40503  -0.38371  -0.35788  -0.33477  -0.29700
 Alpha  occ. eigenvalues --   -0.28219  -0.26936  -0.22174  -0.21322  -0.20994
 Alpha  occ. eigenvalues --   -0.19626  -0.18102  -0.17007  -0.15637  -0.14862
 Alpha  occ. eigenvalues --   -0.14455  -0.13725  -0.13384  -0.11373  -0.10090
 Alpha  occ. eigenvalues --   -0.10057  -0.09438  -0.08799  -0.08110  -0.06527
 Alpha  occ. eigenvalues --   -0.06505  -0.00835   0.00602   0.01501   0.01782
 Alpha  occ. eigenvalues --    0.04325   0.04947   0.13282
 Alpha virt. eigenvalues --    0.16145   0.17242   0.17890   0.18891   0.20062
 Alpha virt. eigenvalues --    0.20244   0.21224   0.21472   0.22260   0.22312
 Alpha virt. eigenvalues --    0.24214   0.24811   0.25530   0.25767   0.26163

  Beta  occ. eigenvalues -- -101.33143 -18.77671 -18.77360  -9.98630  -9.93733
  Beta  occ. eigenvalues --   -9.93550  -9.93515  -9.92816  -9.92766  -9.92759
  Beta  occ. eigenvalues --   -9.92681  -9.91925  -9.91868  -9.90612  -9.90364
  Beta  occ. eigenvalues --   -9.90334  -9.90284  -9.24575  -7.00944  -7.00101
  Beta  occ. eigenvalues --   -7.00097  -0.69396  -0.68886  -0.64390  -0.59458
  Beta  occ. eigenvalues --   -0.58394  -0.51964  -0.49975  -0.49366  -0.47346
  Beta  occ. eigenvalues --   -0.40503  -0.38371  -0.35788  -0.33477  -0.29700
  Beta  occ. eigenvalues --   -0.28219  -0.26936  -0.22174  -0.21322  -0.20994
  Beta  occ. eigenvalues --   -0.19626  -0.18102  -0.17007  -0.15637  -0.14862
  Beta  occ. eigenvalues --   -0.14455  -0.13725  -0.13384  -0.11373  -0.10090
  Beta  occ. eigenvalues --   -0.10057  -0.09438  -0.08799  -0.08110  -0.06527
  Beta  occ. eigenvalues --   -0.06505  -0.00835   0.00602   0.01501   0.01782
  Beta  occ. eigenvalues --    0.04325   0.04947   0.13282
  Beta virt. eigenvalues --    0.16145   0.17242   0.17890   0.18891   0.20062
  Beta virt. eigenvalues --    0.20244   0.21224   0.21472   0.22260   0.22312
  Beta virt. eigenvalues --    0.24214   0.24811   0.25530   0.25767   0.26163

 Mulliken charges and spin densities:
               1          2
     1  Cl   0.335434  -0.000000
     2  C    0.803911  -0.000000
     3  C   -0.629059  -0.000000
     4  C   -0.079336   0.000000
     5  C    0.411121   0.000000
     6  C   -0.840171  -0.000000
     7  O   -0.514552   0.000000
     8  C    0.400390   0.000000
     9  C    0.009627  -0.000000
    10  C   -0.449757   0.000000
    11  C   -0.445858  -0.000000
    12  C    0.020142  -0.000000
    13  C    0.425124  -0.000000
    14  C   -1.054938   0.000000
    15  O   -0.516472  -0.000000
    16  C   -0.289401   0.000000
    17  C   -0.382406   0.000000
    18  H    0.100872   0.000000
    19  H    0.132873  -0.000000
    20  H    0.128525   0.000000
    21  H    0.073359  -0.000000
    22  H    0.073697   0.000000
    23  H    0.130643  -0.000000
    24  H    0.156232  -0.000000
 Sum of Mulliken charges =  -2.00000  -0.00000

 Dipole moment (field-independent basis, Debye):
    X=             -3.6143    Y=              1.3841    Z=              1.4286  Tot=              4.1255
 Quadrupole moment (field-independent basis, Debye-Ang):
   XX=           -180.7175   YY=           -163.1966   ZZ=           -121.0265
   XY=              9.5470   XZ=              0.6356   YZ=             10.2656

  Exact polarizability: 453.139  -9.819 243.362  -9.573 -26.185 140.278
 Approx polarizability: 761.464  -7.799 450.781 -19.460 -62.629 206.323

                      1                      2                      3
                      A                      A                      A
 Frequencies --     46.1200                88.4652               128.7466
 Red. masses --      9.0919                 6.0604                 4.4755
 Frc consts  --      0.0114                 0.0279                 0.0437
 IR Inten    --      3.5227                 2.6015                 0.2826

                      4                      5                      6
                      A                      A                      A
 Frequencies --    150.6656               163.7670               199.4691
 Red. masses --     11.1107                 7.2779                 6.2966
 Frc consts  --      0.1486                 0.1150                 0.1476
 IR Inten    --      1.7686                 4.3337                 0.4257

                      7                      8                      9
                      A                      A                      A
 Frequencies --    259.4755               277.8601               287.3126
 Red. masses --      7.4308                 6.4307                11.2802
 Frc consts  --      0.2948                 0.2925                 0.5486
 IR Inten    --      4.2577                 0.5610                 3.1822

                     10                     11                     12
                      A                      A                      A
 Frequencies --    341.6049               363.8872               395.7500
 Red. masses --      7.0374                10.3061                 8.0942
 Frc consts  --      0.4839                 0.8040                 0.7469
 IR Inten    --      5.1693                 1.1252                 0.0002

                     13                     14                     15
                      A                      A                      A
 Frequencies --    419.1027               419.5177               467.6777
 Red. masses --      3.4141                 6.9130                 3.0581
 Frc consts  --      0.3533                 0.7168                 0.3941
 IR Inten    --      3.0780                 2.8799                 0.3524

                     16                     17                     18
                      A                      A                      A
 Frequencies --    472.7299               506.3302               507.2981
 Red. masses --      9.7460                 4.7787                 9.6271
 Frc consts  --      1.2832                 0.7218                 1.4597
 IR Inten    --      7.1152                 1.6824                 8.4391

                     19                     20                     21
                      A                      A                      A
 Frequencies --    614.2650               626.9903               633.8982
 Red. masses --      5.3437                 6.8943                 7.1455
 Frc consts  --      1.1880                 1.5969                 1.6917
 IR Inten    --      0.2254                32.2634                42.2030

                     22                     23                     24
                      A                      A                      A
 Frequencies --    667.5512               684.8641               690.7700
 Red. masses --      1.7600                 6.4925                 2.0270
 Frc consts  --      0.4621                 1.7942                 0.5699
 IR Inten    --     76.2342                 2.8595                29.7155

                     25                     26                     27
                      A                      A                      A
 Frequencies --    691.0971               723.3839               755.9972
 Red. masses --      7.3847                 1.8707                 2.6991
 Frc consts  --      2.0781                 0.5768                 0.9089
 IR Inten    --     39.1422                 0.4010                10.9188

                     28                     29                     30
                      A                      A                      A
 Frequencies --    776.5416               816.2968               827.0109
 Red. masses --      1.6703                 6.7729                 4.1281
 Frc consts  --      0.5934                 2.6590                 1.6635
 IR Inten    --      5.0387                59.1521                 0.3165

                     31                     32                     33
                      A                      A                      A
 Frequencies --    916.3935               925.5972               942.0987
 Red. masses --      1.3860                 5.9839                 7.3035
 Frc consts  --      0.6858                 3.0205                 3.8192
 IR Inten    --     11.2037                 5.3193                55.6470

                     34                     35                     36
                      A                      A                      A
 Frequencies --    953.0098               956.4924               960.8815
 Red. masses --      1.2316                 1.3048                 1.3674
 Frc consts  --      0.6591                 0.7033                 0.7439
 IR Inten    --      0.0138                 0.0314                 5.8280

                     37                     38                     39
                      A                      A                      A
 Frequencies --   1010.7245              1036.5568              1088.6268
 Red. masses --      2.0834                 2.0258                 2.5157
 Frc consts  --      1.2540                 1.2825                 1.7566
 IR Inten    --    100.7279                 5.8758               193.0557

                     40                     41                     42
                      A                      A                      A
 Frequencies --   1098.3817              1123.7605              1163.4259
 Red. masses --      1.6632                 1.4739                 2.7815
 Frc consts  --      1.1822                 1.0966                 2.2182
 IR Inten    --     81.0535               101.1551                65.2996

                     43                     44                     45
                      A                      A                      A
 Frequencies --   1175.1827              1198.3243              1206.8163
 Red. masses --      2.2355                 1.7788                 2.2722
 Frc consts  --      1.8190                 1.5050                 1.9497
 IR Inten    --     67.9592                54.6151               157.9645

                     46                     47                     48
                      A                      A                      A
 Frequencies --   1234.6428              1316.2665              1326.8409
 Red. masses --      2.1697                 2.6241                 6.3591
 Frc consts  --      1.9487                 2.6787                 6.5961
 IR Inten    --    198.7427               214.9813                 7.2783

                     49                     50                     51
                      A                      A                      A
 Frequencies --   1347.5831              1367.9182              1432.0431
 Red. masses --      6.6730                 2.6494                 3.2122
 Frc consts  --      7.1398                 2.9209                 3.8812
 IR Inten    --    481.9783               755.2527               121.2182

                     52                     53                     54
                      A                      A                      A
 Frequencies --   1458.5581              1469.1393              1472.9957
 Red. masses --      3.4537                 3.8098                 5.8644
 Frc consts  --      4.3289                 4.8448                 7.4968
 IR Inten    --    117.9710                87.1669               265.8624

                     55                     56                     57
                      A                      A                      A
 Frequencies --   1481.2871              1515.9301              1552.0692
 Red. masses --      4.6102                 5.7825                 6.5473
 Frc consts  --      5.9601                 7.8293                 9.2925
 IR Inten    --     38.2848                42.7159               135.9432

                     58                     59                     60
                      A                      A                      A
 Frequencies --   1583.0269              1585.2887              3086.6408
 Red. masses --      9.0510                 5.2451                 1.0823
 Frc consts  --     13.3636                 7.7665                 6.0756
 IR Inten    --      2.3454                 6.7141                45.5007

                     61                     62                     63
                      A                      A                      A
 Frequencies --   3110.8553              3146.5559              3153.2575
 Red. masses --      1.0903                 1.0849                 1.0902
 Frc consts  --      6.2164                 6.3288                 6.3869
 IR Inten    --    131.3321                 0.1684                28.9081

                     64                     65                     66
                      A                      A                      A
 Frequencies --   3156.0999              3165.6882              3179.3443
 Red. masses --      1.0913                 1.0934                 1.0897
 Frc consts  --      6.4048                 6.4562                 6.4898
 IR Inten    --     64.2117                46.9547                13.4975

 - Thermochemistry -
 -------------------
 Temperature   298.150 Kelvin.  Pressure   1.00000 Atm.
 Atom     1 has atomic number 17 and mass  34.96885

 Molecular mass:   242.01346 amu.
 Principal axes and moments of inertia in atomic units:
                           1         2         3
     Eigenvalues --  1829.729966989.856058819.58581
           X            0.98711   0.15588   0.03627
           Y           -0.16004   0.95877   0.23482
           Z            0.00183  -0.23759   0.97136
 This molecule is an asymmetric top.
 Rotational symmetry number  1.
 Warning -- assumption of classical behavior for rotation
           may cause significant error
 Rotational temperatures (Kelvin)      0.04734     0.01239     0.00982
 Rotational constants (GHZ):           0.98634     0.25819     0.20463
 Zero-point vibrational energy     430074.0 (Joules/Mol)
                                  102.79014 (Kcal/Mol)
 Warning -- explicit consideration of  19 degrees of freedom as
           vibrations may cause significant error
 Vibrational temperatures:     66.36   127.28   185.24   216.77   235.62
          (Kelvin)            286.99   373.33   399.78   413.38   491.49
                              523.55   569.40   603.00   603.59   672.88
                              680.15   728.50   729.89   883.79   902.10
                              912.04   960.46   985.37   993.86   994.33
                             1040.79  1087.71  1117.27  1174.47  1189.88
                             1318.49  1331.73  1355.47  1371.17  1376.18
                             1382.49  1454.21  1491.37  1566.29  1580.33
                             1616.84  1673.91  1690.83  1724.12  1736.34
                             1776.38  1893.81  1909.03  1938.87  1968.13
                             2060.39  2098.54  2113.76  2119.31  2131.24
                             2181.09  2233.08  2277.62  2280.88  4440.99
                             4475.83  4527.19  4536.83  4540.92  4554.72
                             4574.37

 Zero-point correction=                           0.163807 (Hartree/Particle)
 Thermal correction to Energy=                    0.176576
 Thermal correction to Enthalpy=                  0.177520
 Thermal correction to Gibbs Free Energy=         0.124277
 Sum of electronic and zero-point Energies=          -1148.399665
 Sum of electronic and thermal Energies=             -1148.386895
 Sum of electronic and thermal Enthalpies=           -1148.385951
 Sum of electronic and thermal Free Energies=        -1148.439194

                     E (Thermal)             CV                S
                      KCal/Mol        Cal/Mol-Kelvin    Cal/Mol-Kelvin
 Total                  110.803             51.442            112.060
 Electronic               0.000              0.000              0.000
 Translational            0.889              2.981             42.353
 Rotational               0.889              2.981             33.089
 Vibrational            109.026             45.480             36.619
 Vibration     1          0.595              1.979              4.977
 Vibration     2          0.601              1.957              3.694
 Vibration     3          0.611              1.924              2.965
 Vibration     4          0.618              1.902              2.664
 Vibration     5          0.623              1.887              2.506
 Vibration     6          0.638              1.841              2.138
 Vibration     7          0.668              1.747              1.665
 Vibration     8          0.679              1.714              1.547
 Vibration     9          0.684              1.697              1.490
 Vibration    10          0.721              1.592              1.205
 Vibration    11          0.737              1.547              1.105
 Vibration    12          0.762              1.479              0.978
 Vibration    13          0.782              1.429              0.895
 Vibration    14          0.782              1.428              0.894
 Vibration    15          0.825              1.322              0.744
 Vibration    16          0.830              1.311              0.730
 Vibration    17          0.862              1.236              0.642
 Vibration    18          0.862              1.234              0.640
 Vibration    19          0.974              1.002              0.426

 Optimization completed.
    -- Stationary point found.
 Normal termination of Gaussian 16 at Thu Dec 21 06:46:04 2023.
