 Q-Chem 5.4, Q-Chem, Inc., Pleasanton, CA (2021)
 Q-Chem 5.4.0 for Intel X86 EM64T Linux

User input:
--------------------------------------------------------------
$molecule
0 1
C                 -3.2616290000      3.6623860000      0.0827750000
C                 -4.5063210000      3.0250390000      0.0878230000
C                 -4.5717330000      1.6241390000      0.0641930000
C                 -2.0916170000      2.9137040000      0.0544360000
C                 -2.1481150000      1.5046890000      0.0305400000
C                 -3.3969530000      0.8819010000      0.0359050000
C                 -0.7817220000      3.6341170000      0.0499280000
C                  0.4570130000      2.7977970000      0.0194820000
C                  0.3846150000      1.3895040000     -0.0041560000
C                 -0.9171240000      0.6732790000      0.0000700000
C                  1.6905290000      3.4370710000      0.0147960000
C                  2.8718480000      2.6892780000     -0.0134550000
C                  2.8090740000      1.2882570000     -0.0371240000
C                  1.5713970000      0.6558470000     -0.0322410000
O                 -0.7260940000      4.8517410000      0.0706470000
O                 -0.9729810000     -0.5495080000     -0.0204350000
H                 -3.4314460000     -0.2005770000      0.0174660000
H                  1.5068550000     -0.4252580000     -0.0502980000
H                 -3.2090260000      4.7434240000      0.1009670000
H                  1.7369000000      4.5183960000      0.0330690000
O                  4.0243550000      3.4050050000     -0.0158350000
C                  5.2684050000      2.7115550000     -0.0429010000
O                 -5.5886780000      3.8425090000      0.1162810000
H                  3.7106200000      0.6910600000     -0.0591830000
H                  6.0352620000      3.4836680000     -0.0388120000
H                  5.3665330000      2.1064020000     -0.9498660000
H                  5.3881640000      2.0754020000      0.8399270000
C                 -6.8909120000      3.2650770000      0.1213810000
H                 -5.5240460000      1.1113210000      0.0676800000
H                 -7.5840290000      4.1037120000      0.1442700000
H                 -7.0456600000      2.6411770000      1.0075140000
H                 -7.0665990000      2.6726750000     -0.7822840000
$end
$rem
MAX_SCF_CYCLES=200
BASIS  =  6-311++G(d,p)
GUI  =  2
JOB_TYPE  =  SP
METHOD  =  B3LYP
SOLVENT_METHOD = PCM
$end
$pcm
theory = CPCM
$end
$solvent
dielectric 37.219
opticaldielectric 1.43
$end

--------------------------------------------------------------

             Standard Nuclear Orientation (Angstroms)
    I     Atom           X                Y                Z
 ----------------------------------------------------------------
    1      C      -3.2616290000     3.6623860000     0.0827750000
    2      C      -4.5063210000     3.0250390000     0.0878230000
    3      C      -4.5717330000     1.6241390000     0.0641930000
    4      C      -2.0916170000     2.9137040000     0.0544360000
    5      C      -2.1481150000     1.5046890000     0.0305400000
    6      C      -3.3969530000     0.8819010000     0.0359050000
    7      C      -0.7817220000     3.6341170000     0.0499280000
    8      C       0.4570130000     2.7977970000     0.0194820000
    9      C       0.3846150000     1.3895040000    -0.0041560000
   10      C      -0.9171240000     0.6732790000     0.0000700000
   11      C       1.6905290000     3.4370710000     0.0147960000
   12      C       2.8718480000     2.6892780000    -0.0134550000
   13      C       2.8090740000     1.2882570000    -0.0371240000
   14      C       1.5713970000     0.6558470000    -0.0322410000
   15      O      -0.7260940000     4.8517410000     0.0706470000
   16      O      -0.9729810000    -0.5495080000    -0.0204350000
   17      H      -3.4314460000    -0.2005770000     0.0174660000
   18      H       1.5068550000    -0.4252580000    -0.0502980000
   19      H      -3.2090260000     4.7434240000     0.1009670000
   20      H       1.7369000000     4.5183960000     0.0330690000
   21      O       4.0243550000     3.4050050000    -0.0158350000
   22      C       5.2684050000     2.7115550000    -0.0429010000
   23      O      -5.5886780000     3.8425090000     0.1162810000
   24      H       3.7106200000     0.6910600000    -0.0591830000
   25      H       6.0352620000     3.4836680000    -0.0388120000
   26      H       5.3665330000     2.1064020000    -0.9498660000
   27      H       5.3881640000     2.0754020000     0.8399270000
   28      C      -6.8909120000     3.2650770000     0.1213810000
   29      H      -5.5240460000     1.1113210000     0.0676800000
   30      H      -7.5840290000     4.1037120000     0.1442700000
   31      H      -7.0456600000     2.6411770000     1.0075140000
   32      H      -7.0665990000     2.6726750000    -0.7822840000
 ----------------------------------------------------------------

    9    -918.0895380740      1.88e-06  Convergence criterion met
 Total energy in the final basis set =     -918.0895380740

                    Orbital Energies (a.u.)
 --------------------------------------------------------------

 Alpha MOs
 -- Occupied --
-19.1729 -19.1729 -19.1327 -19.1224 -10.2845 -10.2763 -10.2609 -10.2609
-10.2237 -10.2237 -10.2090 -10.2090 -10.1994 -10.1994 -10.1980 -10.1980
-10.1951 -10.1951 -10.1939 -10.1939  -1.0881  -1.0881  -1.0680  -1.0572
 -0.8918  -0.8798  -0.8102  -0.7844  -0.7833  -0.7711  -0.7261  -0.7135
 -0.6814  -0.6579  -0.6301  -0.6195  -0.5874  -0.5642  -0.5609  -0.5237
 -0.5230  -0.5160  -0.4939  -0.4810  -0.4802  -0.4727  -0.4677  -0.4587
 -0.4528  -0.4519  -0.4490  -0.4314  -0.4229  -0.4189  -0.4175  -0.4048
 -0.3995  -0.3856  -0.3845  -0.3809  -0.3482  -0.3468  -0.3422  -0.3344
 -0.2872  -0.2838  -0.2805  -0.2736  -0.2541  -0.2441

          Ground-State Mulliken Net Atomic Charges

     Atom                 Charge (a.u.)
  ----------------------------------------
      1 C                    -0.476155
      2 C                    -0.807477
      3 C                     0.093551
      4 C                     0.799665
      5 C                     0.506402
      6 C                     0.130035
      7 C                    -0.746016
      8 C                     0.800729
      9 C                     0.505121
     10 C                    -0.483566
     11 C                    -0.475010
     12 C                    -0.816147
     13 C                     0.093673
     14 C                     0.134016
     15 O                    -0.277057
     16 O                    -0.318184
     17 H                     0.200030
     18 H                     0.199540
     19 H                     0.207306
     20 H                     0.207546
     21 O                    -0.190341
     22 C                    -0.381673
     23 O                    -0.191436
     24 H                     0.258669
     25 H                     0.205826
     26 H                     0.184514
     27 H                     0.184500
     28 C                    -0.380769
     29 H                     0.257792
     30 H                     0.205954
     31 H                     0.184461
     32 H                     0.184481
  ----------------------------------------
  Sum of atomic charges =    -0.000020

                    Cartesian Multipole Moments
 -----------------------------------------------------------------
    Charge (ESU x 10^10)
                -0.0001
    Dipole Moment (Debye)
         X      -0.0898      Y      -1.9588      Z      -0.0346
       Tot       1.9611
    Quadrupole Moments (Debye-Ang)
        XX     -44.7397     XY      -2.7256     YY    -145.1327
        XZ      -0.9535     YZ      -0.4093     ZZ    -117.3130

 Total job time:  76.39s(wall), 451.16s(cpu)
        *  Thank you very much for using Q-Chem.  Have a nice day.  *
