 Gaussian 16, Revision A.03,
 Gaussian 16:  ES64L-G16RevA.03 25-Dec-2016

 --------------------------------------
 #P UB3LYP/6-311++G(d,p) nosym opt freq
 --------------------------------------

 -------
 Radical
 -------
 Symbolic Z-matrix:
 Charge = -2 Multiplicity = 2

 SCF Done:  E(UB3LYP) =  -1312.27245669     A.U. after   26 cycles
 SCF Done:  E(UB3LYP) =  -1312.30928754     A.U. after   19 cycles
 SCF Done:  E(UB3LYP) =  -1312.31974827     A.U. after   19 cycles
 SCF Done:  E(UB3LYP) =  -1312.32014998     A.U. after   15 cycles
 SCF Done:  E(UB3LYP) =  -1312.32019825     A.U. after   16 cycles
 SCF Done:  E(UB3LYP) =  -1312.32017090     A.U. after   16 cycles
 SCF Done:  E(UB3LYP) =  -1312.32023502     A.U. after   14 cycles
 SCF Done:  E(UB3LYP) =  -1312.32027469     A.U. after   17 cycles
 SCF Done:  E(UB3LYP) =  -1312.32034398     A.U. after   21 cycles
 SCF Done:  E(UB3LYP) =  -1312.32042174     A.U. after   15 cycles
 SCF Done:  E(UB3LYP) =  -1312.32060182     A.U. after   16 cycles
 SCF Done:  E(UB3LYP) =  -1312.32061778     A.U. after   15 cycles
 SCF Done:  E(UB3LYP) =  -1312.32061826     A.U. after   14 cycles
 SCF Done:  E(UB3LYP) =  -1312.32061688     A.U. after   15 cycles
 SCF Done:  E(UB3LYP) =  -1312.32062346     A.U. after   15 cycles
 SCF Done:  E(UB3LYP) =  -1312.32062378     A.U. after   13 cycles
 SCF Done:  E(UB3LYP) =  -1312.32062383     A.U. after   11 cycles
 SCF Done:  E(UB3LYP) =  -1312.32062384     A.U. after   11 cycles
 SCF Done:  E(UB3LYP) =  -1312.32062384     A.U. after    9 cycles
 Optimization completed.
    -- Stationary point found.
 Normal termination of Gaussian 16 at Sat Dec 23 07:15:34 2023.

 ----------------------------------------------------------------------
 #P Geom=AllCheck Guess=TCheck SCRF=Check GenChk UB3LYP/6-311++G(d,p) F
 req
 ----------------------------------------------------------------------

 Structure from the checkpoint file:  "223-rad.chk"
 -------
 Radical
 -------
 Charge = -2 Multiplicity = 2

                          Input orientation:
 ---------------------------------------------------------------------
 Center     Atomic      Atomic             Coordinates (Angstroms)
 Number     Number       Type             X           Y           Z
 ---------------------------------------------------------------------
      1          6           0        2.753326    0.571749    0.214135
      2          6           0        2.700072   -0.606865    0.989461
      3          6           0        1.504251   -1.271230    1.154642
      4          6           0       -0.933384   -1.546209    0.770435
      5          8           0       -0.977489   -2.599534    1.464031
      6          6           0       -2.126469   -1.001756    0.128485
      7          6           0       -3.365580   -1.665536    0.283236
      8          6           0       -4.519069   -1.186968   -0.305537
      9          6           0       -4.473183   -0.005304   -1.084595
     10          6           0       -3.273955    0.660099   -1.249744
     11          6           0       -2.080109    0.190931   -0.657829
     12          6           0       -0.835982    0.937148   -0.866604
     13          8           0       -0.811639    1.983645   -1.560267
     14          6           0        0.364587    0.389514   -0.220851
     15          6           0        1.604954    1.056543   -0.377470
     16          1           0        3.610379   -0.976942    1.447166
     17          1           0        1.442512   -2.178041    1.745776
     18          1           0       -3.369212   -2.567718    0.885332
     19          1           0       -5.460443   -1.714517   -0.172409
     20          1           0       -5.378790    0.375427   -1.550195
     21          1           0       -3.206397    1.567332   -1.840324
     22          1           0        1.641282    1.959405   -0.973227
     23          6           0        0.310102   -0.799670    0.561264
     24         16           0        4.365629    1.414941    0.032697
     25          8           0        5.261612    0.386127   -0.571908
     26          8           0        4.114008    2.586762   -0.847143
     27          8           0        4.759069    1.778385    1.425454
 ---------------------------------------------------------------------

 SCF Done:  E(UB3LYP) =  -1312.32062384     A.U. after    2 cycles

 Alpha  occ. eigenvalues --  -88.79674 -18.86454 -18.86369 -18.84046 -18.83960
 Alpha  occ. eigenvalues --  -18.83955 -10.01424 -10.01375  -9.98624  -9.98542
 Alpha  occ. eigenvalues --   -9.97803  -9.97752  -9.97092  -9.97045  -9.96833
 Alpha  occ. eigenvalues --   -9.96240  -9.96190  -9.96110  -9.95812  -9.95350
 Alpha  occ. eigenvalues --   -7.85527  -5.81789  -5.81781  -5.81731  -0.85647
 Alpha  occ. eigenvalues --   -0.78994  -0.78696  -0.72139  -0.71790  -0.66062
 Alpha  occ. eigenvalues --   -0.64223  -0.58138  -0.55548  -0.53805  -0.53477
 Alpha  occ. eigenvalues --   -0.46211  -0.43996  -0.41650  -0.38791  -0.35864
 Alpha  occ. eigenvalues --   -0.35106  -0.32601  -0.30613  -0.26894  -0.26154
 Alpha  occ. eigenvalues --   -0.25384  -0.24949  -0.23066  -0.21337  -0.21321
 Alpha  occ. eigenvalues --   -0.20940  -0.20412  -0.20070  -0.19759  -0.18970
 Alpha  occ. eigenvalues --   -0.18301  -0.16726  -0.16386  -0.15435  -0.14464
 Alpha  occ. eigenvalues --   -0.13277  -0.12482  -0.08146  -0.08142  -0.06548
 Alpha  occ. eigenvalues --   -0.06250  -0.05908  -0.04602  -0.04439  -0.04067
 Alpha  occ. eigenvalues --   -0.03336  -0.02409  -0.02219  -0.00256   0.06687
 Alpha virt. eigenvalues --    0.13392   0.14986   0.15343   0.17509   0.17832
 Alpha virt. eigenvalues --    0.18482   0.19353   0.20153   0.21488   0.21764
 Alpha virt. eigenvalues --    0.22151   0.23261   0.24095   0.24618   0.24919

  Beta  occ. eigenvalues --  -88.79675 -18.85870 -18.85790 -18.84044 -18.83957
  Beta  occ. eigenvalues --  -18.83952 -10.01304 -10.01216  -9.98563  -9.98461
  Beta  occ. eigenvalues --   -9.97819  -9.97786  -9.96965  -9.96906  -9.96782
  Beta  occ. eigenvalues --   -9.96184  -9.96139  -9.96089  -9.95799  -9.95354
  Beta  occ. eigenvalues --   -7.85528  -5.81790  -5.81781  -5.81733  -0.85643
  Beta  occ. eigenvalues --   -0.78001  -0.77667  -0.72135  -0.71784  -0.65813
  Beta  occ. eigenvalues --   -0.64091  -0.57717  -0.55352  -0.53631  -0.53297
  Beta  occ. eigenvalues --   -0.45479  -0.43839  -0.41421  -0.38711  -0.35736
  Beta  occ. eigenvalues --   -0.34900  -0.32427  -0.30457  -0.26641  -0.26034
  Beta  occ. eigenvalues --   -0.25260  -0.24860  -0.23038  -0.21254  -0.20844
  Beta  occ. eigenvalues --   -0.20315  -0.20146  -0.19837  -0.19378  -0.18864
  Beta  occ. eigenvalues --   -0.18025  -0.15979  -0.15315  -0.14410  -0.14343
  Beta  occ. eigenvalues --   -0.12329  -0.12235  -0.08133  -0.08115  -0.05932
  Beta  occ. eigenvalues --   -0.05555  -0.04567  -0.04397  -0.04228  -0.03325
  Beta  occ. eigenvalues --   -0.02806  -0.01893  -0.01705  -0.00244
  Beta virt. eigenvalues --    0.12601   0.13375   0.15331   0.15739   0.17496
  Beta virt. eigenvalues --    0.18469   0.18902   0.19332   0.20424   0.21478
  Beta virt. eigenvalues --    0.21804   0.22149   0.23271   0.24221   0.24929

 Mulliken charges and spin densities:
               1          2
     1  C   -1.093615   0.023563
     2  C   -0.610021   0.017683
     3  C   -0.210053   0.035519
     4  C   -0.673134   0.086305
     5  O   -0.389912   0.218016
     6  C    0.410602   0.067207
     7  C    0.061420   0.018036
     8  C   -0.438801   0.049231
     9  C   -0.408561   0.066622
    10  C    0.035231  -0.001942
    11  C    0.339662   0.087231
    12  C   -0.938263   0.057643
    13  O   -0.360989   0.216188
    14  C    0.684390   0.046840
    15  C    0.256667   0.015167
    16  H    0.177421  -0.001666
    17  H    0.139310  -0.002504
    18  H    0.142573  -0.001153
    19  H    0.100479  -0.004232
    20  H    0.102364  -0.005467
    21  H    0.142698  -0.000358
    22  H    0.227577  -0.001367
    23  C    0.647989   0.013592
    24  S    0.668406  -0.001363
    25  O   -0.328082   0.000303
    26  O   -0.362269   0.000506
    27  O   -0.323088   0.000401
 Sum of Mulliken charges =  -2.00000   1.00000

 Dipole moment (field-independent basis, Debye):
    X=            -16.0798    Y=             -5.6128    Z=              0.3977  Tot=             17.0359
 Quadrupole moment (field-independent basis, Debye-Ang):
   XX=           -266.8417   YY=           -171.5374   ZZ=           -147.9922
   XY=            -40.8165   XZ=             -1.8767   YZ=             12.1594

  Exact polarizability: 387.196  37.354 212.214  36.685 -50.603 165.753
 Approx polarizability: 534.922  34.481 385.465  55.401-116.454 289.861

                      1                      2                      3
                      A                      A                      A
 Frequencies --      8.2745                38.1954                78.0157
 Red. masses --     13.0781                 8.3647                 7.3145
 Frc consts  --      0.0005                 0.0072                 0.0262
 IR Inten    --      0.1719                 0.0429                 7.7562

                      4                      5                      6
                      A                      A                      A
 Frequencies --    104.9518               124.6585               150.7831
 Red. masses --      9.9853                 4.5601                 5.8259
 Frc consts  --      0.0648                 0.0418                 0.0780
 IR Inten    --      0.6406                 0.6570                 0.5042

                      7                      8                      9
                      A                      A                      A
 Frequencies --    170.2023               206.7641               225.2545
 Red. masses --      9.4832                12.8193                 7.8645
 Frc consts  --      0.1619                 0.3229                 0.2351
 IR Inten    --      2.4472                 1.8963                 3.2573

                     10                     11                     12
                      A                      A                      A
 Frequencies --    227.9593               287.6159               327.3434
 Red. masses --      6.5539                 8.0505                 7.1446
 Frc consts  --      0.2007                 0.3924                 0.4511
 IR Inten    --      0.2795                 0.9804                 0.3961

                     13                     14                     15
                      A                      A                      A
 Frequencies --    375.5018               377.7852               406.3355
 Red. masses --      7.6898                10.2648                 7.8014
 Frc consts  --      0.6388                 0.8632                 0.7589
 IR Inten    --      6.5177                 3.2513                 8.7794

                     16                     17                     18
                      A                      A                      A
 Frequencies --    419.8780               431.4227               453.8337
 Red. masses --      3.6731                 6.1420                 8.4606
 Frc consts  --      0.3815                 0.6735                 1.0267
 IR Inten    --      1.0417                 0.0083                14.3003

                     19                     20                     21
                      A                      A                      A
 Frequencies --    464.0523               488.9315               496.8671
 Red. masses --      3.2964                 7.9418                11.3228
 Frc consts  --      0.4182                 1.1186                 1.6470
 IR Inten    --      1.1830                 6.8925                10.8962

                     22                     23                     24
                      A                      A                      A
 Frequencies --    519.8552               557.6013               605.7627
 Red. masses --     14.2549                 6.3115                11.9655
 Frc consts  --      2.2698                 1.1562                 2.5869
 IR Inten    --      7.4430                18.5019               193.5256

                     25                     26                     27
                      A                      A                      A
 Frequencies --    635.3740               648.7980               654.7214
 Red. masses --      7.0588                 4.3831                 7.5518
 Frc consts  --      1.6790                 1.0871                 1.9073
 IR Inten    --      6.2690                14.3190                46.5656

                     28                     29                     30
                      A                      A                      A
 Frequencies --    694.9942               699.5994               710.0688
 Red. masses --      6.5880                 2.0697                 7.9907
 Frc consts  --      1.8748                 0.5968                 2.3738
 IR Inten    --      0.4630                66.8527                20.0105

                     31                     32                     33
                      A                      A                      A
 Frequencies --    725.1824               765.0849               795.9877
 Red. masses --      5.2166                 1.9378                 3.2762
 Frc consts  --      1.6164                 0.6683                 1.2230
 IR Inten    --      0.6976                10.2852                 1.0553

                     34                     35                     36
                      A                      A                      A
 Frequencies --    825.0704               829.5524               842.8732
 Red. masses --      6.7317                 1.5640                 1.7090
 Frc consts  --      2.6999                 0.6341                 0.7153
 IR Inten    --      0.2500                12.8047                 1.0584

                     37                     38                     39
                      A                      A                      A
 Frequencies --    932.2948               946.6466               949.5954
 Red. masses --      6.6959                 1.2980                 9.2119
 Frc consts  --      3.4290                 0.6853                 4.8941
 IR Inten    --     51.8054                 2.4061                71.1668

                     40                     41                     42
                      A                      A                      A
 Frequencies --    968.7484               972.6357               979.7147
 Red. masses --      1.2610                 1.3351                 1.3458
 Frc consts  --      0.6973                 0.7441                 0.7611
 IR Inten    --      0.1704                 1.0945                 7.8194

                     43                     44                     45
                      A                      A                      A
 Frequencies --    983.9884              1028.9719              1078.0042
 Red. masses --      7.8398                 2.0085                 2.1519
 Frc consts  --      4.4724                 1.2530                 1.4734
 IR Inten    --    236.4514                30.7503                80.9785

                     46                     47                     48
                      A                      A                      A
 Frequencies --   1105.6300              1123.9597              1134.4196
 Red. masses --      2.0076                 2.0456                20.2391
 Frc consts  --      1.4459                 1.5226                15.3458
 IR Inten    --      7.4136                38.0004               333.4423

                     49                     50                     51
                      A                      A                      A
 Frequencies --   1142.6201              1158.5116              1175.3608
 Red. masses --      1.3728                 7.5694                 4.8506
 Frc consts  --      1.0560                 5.9856                 3.9481
 IR Inten    --     39.2153               208.2695                14.5103

                     52                     53                     54
                      A                      A                      A
 Frequencies --   1191.5437              1214.0560              1225.8437
 Red. masses --      2.0321                 1.7554                 2.7380
 Frc consts  --      1.6999                 1.5244                 2.4241
 IR Inten    --      2.3219                 8.6634                15.4197

                     55                     56                     57
                      A                      A                      A
 Frequencies --   1255.9472              1321.3873              1355.3371
 Red. masses --      1.7682                 2.2561                10.8530
 Frc consts  --      1.6433                 2.3209                11.7462
 IR Inten    --     64.6456                26.9938                 4.0614

                     58                     59                     60
                      A                      A                      A
 Frequencies --   1359.2215              1404.5312              1448.4258
 Red. masses --     10.4667                 2.9521                 3.4720
 Frc consts  --     11.3931                 3.4312                 4.2916
 IR Inten    --     57.2699               209.4344               161.9018

                     61                     62                     63
                      A                      A                      A
 Frequencies --   1466.9778              1484.5222              1513.7664
 Red. masses --      2.9119                 2.6595                 5.7487
 Frc consts  --      3.6922                 3.4532                 7.7613
 IR Inten    --     48.7023                11.5637               384.5138

                     64                     65                     66
                      A                      A                      A
 Frequencies --   1530.4135              1549.6101              1605.6098
 Red. masses --      7.0648                 6.0314                 6.6264
 Frc consts  --      9.7491                 8.5333                10.0649
 IR Inten    --    131.8554                66.9280                20.6264

                     67                     68                     69
                      A                      A                      A
 Frequencies --   1608.0189              1624.3724              3115.5020
 Red. masses --      7.4832                 6.7906                 1.0836
 Frc consts  --     11.4003                10.5567                 6.1972
 IR Inten    --      7.2817                14.3091                26.7922

                     70                     71                     72
                      A                      A                      A
 Frequencies --   3136.9733              3166.7145              3172.3772
 Red. masses --      1.0909                 1.0857                 1.0908
 Frc consts  --      6.3248                 6.4149                 6.4682
 IR Inten    --     80.1701                 0.2937                17.7247

                     73                     74                     75
                      A                      A                      A
 Frequencies --   3175.0151              3184.2733              3208.2819
 Red. masses --      1.0921                 1.0940                 1.0893
 Frc consts  --      6.4865                 6.5356                 6.6063
 IR Inten    --     41.4927                20.8987                 2.1480

 - Thermochemistry -
 -------------------
 Temperature   298.150 Kelvin.  Pressure   1.00000 Atm.
 Atom     1 has atomic number  6 and mass  12.00000

 Molecular mass:   287.00142 amu.
 Principal axes and moments of inertia in atomic units:
                           1         2         3
     Eigenvalues --  2160.45019********************
           X            0.96544  -0.17755  -0.19080
           Y            0.25463   0.79873   0.54516
           Z            0.05561  -0.57490   0.81633
 This molecule is an asymmetric top.
 Rotational symmetry number  1.
 Warning -- assumption of classical behavior for rotation
           may cause significant error
 Rotational temperatures (Kelvin)      0.04009     0.00796     0.00683
 Rotational constants (GHZ):           0.83535     0.16583     0.14221
 Zero-point vibrational energy     468786.5 (Joules/Mol)
                                  112.04265 (Kcal/Mol)
 Warning -- explicit consideration of  24 degrees of freedom as
           vibrations may cause significant error
 Vibrational temperatures:     11.91    54.95   112.25   151.00   179.36
          (Kelvin)            216.94   244.88   297.49   324.09   327.98
                              413.82   470.97   540.26   543.55   584.63
                              604.11   620.72   652.97   667.67   703.46
                              714.88   747.96   802.26   871.56   914.16
                              933.48   942.00   999.94  1006.57  1021.63
                             1043.38  1100.79  1145.25  1187.09  1193.54
                             1212.71  1341.36  1362.01  1366.26  1393.81
                             1399.41  1409.59  1415.74  1480.46  1551.01
                             1590.75  1617.13  1632.18  1643.98  1666.84
                             1691.08  1714.37  1746.76  1763.72  1807.03
                             1901.18  1950.03  1955.62  2020.81  2083.96
                             2110.65  2135.90  2177.97  2201.92  2229.54
                             2310.11  2313.58  2337.11  4482.51  4513.40
                             4556.20  4564.34  4568.14  4581.46  4616.00

 Zero-point correction=                           0.178551 (Hartree/Particle)
 Thermal correction to Energy=                    0.193936
 Thermal correction to Enthalpy=                  0.194880
 Thermal correction to Gibbs Free Energy=         0.132998
 Sum of electronic and zero-point Energies=          -1312.142073
 Sum of electronic and thermal Energies=             -1312.126688
 Sum of electronic and thermal Enthalpies=           -1312.125744
 Sum of electronic and thermal Free Energies=        -1312.187626

                     E (Thermal)             CV                S
                      KCal/Mol        Cal/Mol-Kelvin    Cal/Mol-Kelvin
 Total                  121.697             60.356            130.243
 Electronic               0.000              0.000              1.377
 Translational            0.889              2.981             42.861
 Rotational               0.889              2.981             34.055
 Vibrational            119.919             54.395             51.949
 Vibration     1          0.593              1.987              8.387
 Vibration     2          0.594              1.982              5.351
 Vibration     3          0.599              1.964              3.940
 Vibration     4          0.605              1.945              3.360
 Vibration     5          0.610              1.928              3.027
 Vibration     6          0.618              1.902              2.662
 Vibration     7          0.625              1.879              2.433
 Vibration     8          0.641              1.830              2.072
 Vibration     9          0.650              1.803              1.916
 Vibration    10          0.651              1.798              1.895
 Vibration    11          0.685              1.697              1.488
 Vibration    12          0.711              1.621              1.273
 Vibration    13          0.746              1.522              1.057
 Vibration    14          0.748              1.517              1.048
 Vibration    15          0.771              1.456              0.940
 Vibration    16          0.783              1.427              0.892
 Vibration    17          0.792              1.402              0.854
 Vibration    18          0.812              1.352              0.784
 Vibration    19          0.822              1.330              0.754
 Vibration    20          0.845              1.275              0.686
 Vibration    21          0.852              1.257              0.666
 Vibration    22          0.875              1.206              0.610
 Vibration    23          0.913              1.123              0.529
 Vibration    24          0.964              1.020              0.440

 Optimization completed.
    -- Stationary point found.
 Normal termination of Gaussian 16 at Sat Dec 23 08:21:52 2023.
