 Gaussian 16, Revision A.03,
 Gaussian 16:  ES64L-G16RevA.03 25-Dec-2016

 --------------------------------------
 #P UB3LYP/6-311++G(d,p) nosym opt freq
 --------------------------------------

 -------
 Reduced
 -------
 Symbolic Z-matrix:
 Charge = -2 Multiplicity = 1

 SCF Done:  E(UB3LYP) =  -573.528160386     A.U. after   63 cycles
 SCF Done:  E(UB3LYP) =  -573.561029564     A.U. after   52 cycles
 SCF Done:  E(UB3LYP) =  -573.567685374     A.U. after   20 cycles
 SCF Done:  E(UB3LYP) =  -573.568487250     A.U. after   20 cycles
 SCF Done:  E(UB3LYP) =  -573.568787711     A.U. after   15 cycles
 SCF Done:  E(UB3LYP) =  -573.568815411     A.U. after   18 cycles
 SCF Done:  E(UB3LYP) =  -573.568816607     A.U. after   17 cycles
 SCF Done:  E(UB3LYP) =  -573.568816869     A.U. after   16 cycles
 Optimization completed.
    -- Stationary point found.
 Normal termination of Gaussian 16 at Sun Dec 17 21:29:25 2023.

 ----------------------------------------------------------------------
 #P Geom=AllCheck Guess=TCheck SCRF=Check GenChk UB3LYP/6-311++G(d,p) F
 req
 ----------------------------------------------------------------------

 Structure from the checkpoint file:  "058-an.chk"
 -------
 Reduced
 -------
 Charge = -2 Multiplicity = 1

                          Input orientation:
 ---------------------------------------------------------------------
 Center     Atomic      Atomic             Coordinates (Angstroms)
 Number     Number       Type             X           Y           Z
 ---------------------------------------------------------------------
      1          6           0       -0.577951    1.190189   -0.291320
      2          6           0       -1.451642    0.145341   -0.796919
      3          6           0       -1.218517   -1.208167   -0.697322
      4          6           0       -0.024704   -1.733974   -0.048865
      5          6           0        0.837026   -0.744091    0.447649
      6          6           0        0.636164    0.687092    0.367395
      7          8           0       -0.904115    2.408148   -0.446471
      8          8           0        0.174733   -3.021739    0.033098
      9          6           0        1.607943    1.604583    0.922816
     10          6           0        2.887779    1.056873    1.616198
     11          8           0        1.552967    2.850982    0.920578
     12          1           0       -2.356211    0.507344   -1.289018
     13          1           0        3.001439   -0.025476    1.654610
     14          1           0        2.901282    1.452668    2.639089
     15          1           0        3.752092    1.487218    1.095715
     16          6           0       -2.193533   -2.211693   -1.257790
     17          1           0        1.726344   -1.133326    0.930127
     18          1           0       -3.054485   -1.715555   -1.723588
     19          1           0       -2.547871   -2.890940   -0.471045
     20          1           0       -1.703442   -2.858759   -1.997376
 ---------------------------------------------------------------------

 SCF Done:  E(UB3LYP) =  -573.568816869     A.U. after    1 cycles

 Alpha  occ. eigenvalues --  -18.80053 -18.76062 -18.74403  -9.96050  -9.92524
 Alpha  occ. eigenvalues --   -9.91539  -9.91434  -9.90439  -9.89159  -9.87308
 Alpha  occ. eigenvalues --   -9.87103  -9.85730  -0.72634  -0.67875  -0.65318
 Alpha  occ. eigenvalues --   -0.53100  -0.49387  -0.46146  -0.41692  -0.38649
 Alpha  occ. eigenvalues --   -0.31372  -0.28846  -0.22800  -0.19212  -0.18484
 Alpha  occ. eigenvalues --   -0.17620  -0.16121  -0.15501  -0.15084  -0.13815
 Alpha  occ. eigenvalues --   -0.11589  -0.10051  -0.09424  -0.08897  -0.07184
 Alpha  occ. eigenvalues --   -0.06000  -0.05179  -0.04187   0.03161   0.03873
 Alpha  occ. eigenvalues --    0.04334   0.07587   0.08199   0.14240
 Alpha virt. eigenvalues --    0.17678   0.17804   0.20448   0.20833   0.21699
 Alpha virt. eigenvalues --    0.21930   0.22584   0.24276   0.24297   0.26501
 Alpha virt. eigenvalues --    0.27871   0.28046   0.28190   0.29325   0.30099

  Beta  occ. eigenvalues --  -18.80053 -18.76062 -18.74403  -9.96050  -9.92524
  Beta  occ. eigenvalues --   -9.91539  -9.91434  -9.90439  -9.89159  -9.87308
  Beta  occ. eigenvalues --   -9.87103  -9.85730  -0.72634  -0.67875  -0.65318
  Beta  occ. eigenvalues --   -0.53100  -0.49387  -0.46146  -0.41692  -0.38649
  Beta  occ. eigenvalues --   -0.31372  -0.28846  -0.22800  -0.19212  -0.18484
  Beta  occ. eigenvalues --   -0.17620  -0.16121  -0.15501  -0.15084  -0.13815
  Beta  occ. eigenvalues --   -0.11589  -0.10051  -0.09424  -0.08897  -0.07184
  Beta  occ. eigenvalues --   -0.06000  -0.05179  -0.04187   0.03161   0.03873
  Beta  occ. eigenvalues --    0.04334   0.07587   0.08199   0.14240
  Beta virt. eigenvalues --    0.17678   0.17804   0.20448   0.20833   0.21699
  Beta virt. eigenvalues --    0.21930   0.22584   0.24276   0.24297   0.26501
  Beta virt. eigenvalues --    0.27871   0.28046   0.28190   0.29325   0.30099

 Mulliken charges and spin densities:
               1          2
     1  C   -0.779365   0.000000
     2  C   -0.483904  -0.000000
     3  C    1.560707  -0.000000
     4  C   -1.437658   0.000000
     5  C   -0.768563   0.000000
     6  C    1.969170  -0.000000
     7  O   -0.455615  -0.000000
     8  O   -0.581649  -0.000000
     9  C   -0.527971   0.000000
    10  C   -0.239942   0.000000
    11  O   -0.371567  -0.000000
    12  H    0.024405   0.000000
    13  H    0.115500  -0.000000
    14  H    0.076099   0.000000
    15  H    0.076272  -0.000000
    16  C   -0.474340   0.000000
    17  H   -0.019957  -0.000000
    18  H    0.087254  -0.000000
    19  H    0.115479  -0.000000
    20  H    0.115646  -0.000000
 Sum of Mulliken charges =  -2.00000  -0.00000

 Dipole moment (field-independent basis, Debye):
    X=             -1.1567    Y=             -1.7709    Z=             -0.6915  Tot=              2.2254
 Quadrupole moment (field-independent basis, Debye-Ang):
   XX=            -97.4281   YY=           -154.1511   ZZ=            -85.4907
   XY=             -4.6168   XZ=             -9.6983   YZ=             -4.1415

  Exact polarizability: 235.488  48.648 215.584  61.524  28.735 160.512
 Approx polarizability: 329.489  51.740 327.497  97.742  32.263 209.075

 ******    1 imaginary frequencies (negative Signs) ******

                      1                      2                      3
                      A                      A                      A
 Frequencies --   -135.6206                25.2346                58.3641
 Red. masses --      1.0504                 3.5080                 6.0918
 Frc consts  --      0.0114                 0.0013                 0.0122
 IR Inten    --      0.6885                 5.5100                 2.3163

                      4                      5                      6
                      A                      A                      A
 Frequencies --    120.6067               155.0413               192.8185
 Red. masses --      1.0830                 5.9473                 3.7190
 Frc consts  --      0.0093                 0.0842                 0.0815
 IR Inten    --      0.3476                 5.4487                 1.7897

                      7                      8                      9
                      A                      A                      A
 Frequencies --    201.4916               286.5969               327.7073
 Red. masses --      5.7848                 3.2612                 7.9614
 Frc consts  --      0.1384                 0.1578                 0.5037
 IR Inten    --      2.6546                 2.5364                 0.7916

                     10                     11                     12
                      A                      A                      A
 Frequencies --    355.5074               385.1006               410.6983
 Red. masses --      6.0227                 7.6902                 4.2996
 Frc consts  --      0.4485                 0.6719                 0.4273
 IR Inten    --      0.3230                 6.8179                25.0204

                     13                     14                     15
                      A                      A                      A
 Frequencies --    428.4619               475.0688               533.9828
 Red. masses --      3.2317                 8.7896                 4.4934
 Frc consts  --      0.3496                 1.1688                 0.7549
 IR Inten    --      0.0464                 7.6889                11.8503

                     16                     17                     18
                      A                      A                      A
 Frequencies --    585.5714               639.2712               659.2141
 Red. masses --      2.8632                 3.9773                 2.4089
 Frc consts  --      0.5784                 0.9577                 0.6168
 IR Inten    --      5.6818                 6.6046                 0.4866

                     19                     20                     21
                      A                      A                      A
 Frequencies --    662.2193               715.5111               718.1778
 Red. masses --      4.9880                 6.3027                 2.1372
 Frc consts  --      1.2888                 1.9011                 0.6495
 IR Inten    --     10.2922                33.0794                 0.3600

                     22                     23                     24
                      A                      A                      A
 Frequencies --    791.0436               840.4685               844.3839
 Red. masses --      2.4215                 1.8779                 3.0220
 Frc consts  --      0.8928                 0.7816                 1.2695
 IR Inten    --      7.7297                45.3730                31.8815

                     25                     26                     27
                      A                      A                      A
 Frequencies --    892.1118              1004.8666              1017.2747
 Red. masses --      4.4253                 1.5310                 1.6895
 Frc consts  --      2.0751                 0.9109                 1.0301
 IR Inten    --     55.1574                32.7292                 0.8659

                     28                     29                     30
                      A                      A                      A
 Frequencies --   1018.3506              1037.0032              1142.9473
 Red. masses --      1.9731                 1.4988                 3.4394
 Frc consts  --      1.2056                 0.9497                 2.6472
 IR Inten    --     37.0765                 1.1347                18.0850

                     31                     32                     33
                      A                      A                      A
 Frequencies --   1169.7033              1220.6618              1249.1018
 Red. masses --      4.3202                 2.0554                 2.2113
 Frc consts  --      3.4826                 1.8044                 2.0328
 IR Inten    --    169.1200               190.6311                89.1483

                     34                     35                     36
                      A                      A                      A
 Frequencies --   1285.3943              1338.8915              1353.6993
 Red. masses --      3.5746                 1.4456                 2.3761
 Frc consts  --      3.4798                 1.5268                 2.5654
 IR Inten    --     12.3470                41.3675               137.7575

                     37                     38                     39
                      A                      A                      A
 Frequencies --   1374.9680              1411.9143              1446.8025
 Red. masses --      1.5096                 6.6534                 1.0507
 Frc consts  --      1.6815                 7.8147                 1.2958
 IR Inten    --     90.3621               394.9366                 0.4401

                     40                     41                     42
                      A                      A                      A
 Frequencies --   1454.9862              1461.5061              1473.4474
 Red. masses --      2.0525                 1.6789                 1.0500
 Frc consts  --      2.5601                 2.1129                 1.3431
 IR Inten    --    232.2231                 1.4583                 0.3881

                     43                     44                     45
                      A                      A                      A
 Frequencies --   1481.8498              1492.3365              1586.0322
 Red. masses --      1.5795                 2.0381                 8.1538
 Frc consts  --      2.0435                 2.6742                12.0847
 IR Inten    --    332.5777                 7.5412               778.3109

                     46                     47                     48
                      A                      A                      A
 Frequencies --   1631.0958              2970.8578              2993.1302
 Red. masses --      7.2597                 1.0326                 1.0395
 Frc consts  --     11.3796                 5.3699                 5.4871
 IR Inten    --    176.6445               257.1714               178.0064

                     49                     50                     51
                      A                      A                      A
 Frequencies --   3003.7005              3032.7681              3034.0106
 Red. masses --      1.0977                 1.1021                 1.0995
 Frc consts  --      5.8353                 5.9722                 5.9631
 IR Inten    --    127.3318                49.3525               124.4356

                     52                     53                     54
                      A                      A                      A
 Frequencies --   3076.8400              3110.7885              3164.8065
 Red. masses --      1.0870                 1.0950                 1.0832
 Frc consts  --      6.0632                 6.2431                 6.3925
 IR Inten    --    121.9087                20.4367                57.3492

 - Thermochemistry -
 -------------------
 Temperature   298.150 Kelvin.  Pressure   1.00000 Atm.
 Atom     1 has atomic number  6 and mass  12.00000

 Molecular mass:   164.04734 amu.
 Principal axes and moments of inertia in atomic units:
                           1         2         3
     Eigenvalues --  1101.889042667.968523747.72007
           X            0.52962   0.69723  -0.48310
           Y            0.78985  -0.61302  -0.01882
           Z            0.30927   0.37160   0.87537
 This molecule is an asymmetric top.
 Rotational symmetry number  1.
 Warning -- assumption of classical behavior for rotation
           may cause significant error
 Rotational temperatures (Kelvin)      0.07860     0.03246     0.02311
 Rotational constants (GHZ):           1.63786     0.67645     0.48156
    1 imaginary frequencies ignored.
 Zero-point vibrational energy     378883.6 (Joules/Mol)
                                   90.55535 (Kcal/Mol)
 Warning -- explicit consideration of  15 degrees of freedom as
           vibrations may cause significant error
 Vibrational temperatures:     36.31    83.97   173.53   223.07   277.42
          (Kelvin)            289.90   412.35   471.50   511.50   554.07
                              590.90   616.46   683.52   768.28   842.51
                              919.77   948.46   952.79  1029.46  1033.30
                             1138.14  1209.25  1214.88  1283.55  1445.78
                             1463.63  1465.18  1492.02  1644.45  1682.94
                             1756.26  1797.18  1849.40  1926.37  1947.67
                             1978.27  2031.43  2081.63  2093.40  2102.78
                             2119.96  2132.05  2147.14  2281.95  2346.78
                             4274.40  4306.45  4321.66  4363.48  4365.26
                             4426.89  4475.73  4553.45

 Zero-point correction=                           0.144309 (Hartree/Particle)
 Thermal correction to Energy=                    0.155178
 Thermal correction to Enthalpy=                  0.156122
 Thermal correction to Gibbs Free Energy=         0.106578
 Sum of electronic and zero-point Energies=           -573.424508
 Sum of electronic and thermal Energies=              -573.413639
 Sum of electronic and thermal Enthalpies=            -573.412695
 Sum of electronic and thermal Free Energies=         -573.462239

                     E (Thermal)             CV                S
                      KCal/Mol        Cal/Mol-Kelvin    Cal/Mol-Kelvin
 Total                   97.375             40.416            104.273
 Electronic               0.000              0.000              0.000
 Translational            0.889              2.981             41.193
 Rotational               0.889              2.981             30.778
 Vibrational             95.598             34.454             32.302
 Vibration     1          0.593              1.985              6.173
 Vibration     2          0.596              1.974              4.512
 Vibration     3          0.609              1.932              3.091
 Vibration     4          0.620              1.897              2.609
 Vibration     5          0.635              1.850              2.201
 Vibration     6          0.638              1.838              2.119
 Vibration     7          0.684              1.699              1.494
 Vibration     8          0.711              1.620              1.271
 Vibration     9          0.731              1.564              1.142
 Vibration    10          0.754              1.502              1.019
 Vibration    11          0.775              1.447              0.924
 Vibration    12          0.790              1.408              0.864
 Vibration    13          0.832              1.305              0.723
 Vibration    14          0.889              1.175              0.578
 Vibration    15          0.943              1.063              0.475

                           ! Non-Optimized Parameters !
 Normal termination of Gaussian 16 at Sun Dec 17 21:42:41 2023.
