 Q-Chem 5.4, Q-Chem, Inc., Pleasanton, CA (2021)
 Q-Chem 5.4.0 for Intel X86 EM64T Linux

User input:
--------------------------------------------------------------
$molecule
-2 1
C                 -1.0484710000     -2.2477170000      1.2618910000
C                 -1.8151780000     -2.1123770000      0.0373080000
C                 -1.9173410000     -0.9488050000     -0.6658460000
C                 -1.2309380000      0.2759020000     -0.2988440000
C                 -0.3840690000      0.1679090000      0.8663780000
C                 -0.4165300000     -1.0309670000      1.7165940000
O                 -1.0484310000     -3.3826800000      1.8661540000
O                 -1.3677000000      1.3082260000     -1.0530850000
H                 -2.5163250000     -0.8931520000     -1.5744980000
C                  0.4149390000     -2.0991810000      3.8650880000
C                 -0.1140900000      0.2463100000      3.8726220000
C                  0.7339980000     -2.0202250000      5.2180200000
C                  0.6375530000     -0.8156160000      5.9237720000
C                  0.2019860000      0.3169240000      5.2231750000
H                 -2.3404980000     -3.0109110000     -0.2854990000
H                  0.4567800000     -3.0452790000      3.3450940000
H                 -0.4598650000      1.1392500000      3.3673790000
H                  1.0643980000     -2.9212400000      5.7333690000
H                  0.8895320000     -0.7596340000      6.9799580000
H                  0.1027050000      1.2696370000      5.7402320000
C                  0.6615540000      1.1816230000      1.0392890000
C                  0.5108090000      2.5303310000      0.6084840000
C                  1.9361030000      0.8569960000      1.5830440000
C                  1.5388380000      3.4612830000      0.7307130000
C                  2.9585040000      1.7898830000      1.6983380000
C                  2.7792220000      3.1144340000      1.2780760000
H                 -0.4268620000      2.8047240000      0.1472570000
H                  2.1155240000     -0.1606070000      1.9062760000
H                  1.3673400000      4.4813040000      0.3890690000
H                  3.9132090000      1.4786250000      2.1184860000
H                  3.5779210000      3.8461010000      1.3724260000
C                 -0.0174570000     -0.9615220000      3.1261020000
$end
$rem
MAX_SCF_CYCLES=200
BASIS  =  6-311++G(d,p)
GUI  =  2
JOB_TYPE  =  SP
METHOD  =  B3LYP
SOLVENT_METHOD = COSMO
$end
$solvent
dielectric 37.219
opticaldielectric 1.43
$end

--------------------------------------------------------------

             Standard Nuclear Orientation (Angstroms)
    I     Atom           X                Y                Z
 ----------------------------------------------------------------
    1      C       1.4239284144    -2.1506248931    -0.4262265290
    2      C       0.6494773398    -3.3579884426    -0.2065475458
    3      C      -0.6497875581    -3.3579098360     0.2065787601
    4      C      -1.4240846515    -2.1504458721     0.4262183947
    5      C      -0.7223244239    -0.9216292501     0.1361594470
    6      C       0.7223599100    -0.9217234553    -0.1360753652
    7      O       2.6544871785    -2.2644221059    -0.7812618917
    8      O      -2.6547033840    -2.2640712697     0.7811028488
    9      H      -1.1864668726    -4.2920845946     0.3703480478
   10      C       2.7781562652     0.5126303919    -0.5420047960
   11      C       1.1506554435     1.2574736303     1.0635188259
   12      C       3.5555206949     1.6318977821    -0.2566931334
   13      C       3.1513719155     2.5824749009     0.6875193806
   14      C       1.9330864895     2.3696144673     1.3460576683
   15      H       1.1860381330    -4.2922352422    -0.3702980984
   16      H       3.1238719586    -0.2317473678    -1.2445916341
   17      H       0.2214968577     1.1192928840     1.6017967161
   18      H       4.4998580224     1.7638439101    -0.7833752131
   19      H       3.7618939156     3.4554409759     0.9051185227
   20      H       1.5903194988     3.0804769715     2.0957589479
   21      C      -1.5301898143     0.2788827363    -0.1025165414
   22      C      -2.7781095293     0.5127477460     0.5419474331
   23      C      -1.1504177804     1.2577344185    -1.0633234570
   24      C      -3.5555447730     1.6319307577     0.2565021531
   25      C      -1.9328788527     2.3698333075    -1.3459281231
   26      C      -3.1512936383     2.5825758332    -0.6875941928
   27      H      -3.1238471113    -0.2316638159     1.2444897586
   28      H      -0.2211842305     1.1196136896    -1.6015003431
   29      H      -4.5000007458     1.7637755523     0.7829951663
   30      H      -1.5899666524     3.0807893233    -2.0954748449
   31      H      -3.7618629993     3.4554758107    -0.9053309578
   32      C       1.5303378604     0.2786872621     0.1026303334
 ----------------------------------------------------------------

   12    -843.7831385294      3.57e-06  Convergence criterion met
 Total energy in the final basis set =     -843.7831385294
    6    -844.0480921289      5.04e-06  Convergence criterion met
 Total energy in the final basis set =     -844.0480921289

                    Orbital Energies (a.u.)
 --------------------------------------------------------------

 Alpha MOs
 -- Occupied --
-19.0275 -19.0275 -10.1828 -10.1828 -10.1631 -10.1631 -10.1570 -10.1570
-10.1566 -10.1566 -10.1545 -10.1545 -10.1500 -10.1500 -10.1448 -10.1448
-10.1360 -10.1357 -10.1342 -10.1335  -0.9482  -0.9454  -0.8400  -0.8325
 -0.7881  -0.7495  -0.7355  -0.7259  -0.7242  -0.6814  -0.6506  -0.6029
 -0.5886  -0.5791  -0.5789  -0.5460  -0.5272  -0.4905  -0.4846  -0.4520
 -0.4471  -0.4447  -0.4290  -0.4207  -0.4116  -0.4044  -0.3997  -0.3977
 -0.3872  -0.3694  -0.3669  -0.3612  -0.3483  -0.3467  -0.3440  -0.3307
 -0.3229  -0.3200  -0.3184  -0.3119  -0.2587  -0.2516  -0.2395  -0.2388
 -0.2333  -0.2024  -0.2000  -0.1800  -0.1278

          Ground-State Mulliken Net Atomic Charges

     Atom                 Charge (a.u.)
  ----------------------------------------
      1 C                    -0.308038
      2 C                    -0.327077
      3 C                    -0.328042
      4 C                    -0.308589
      5 C                     0.334682
      6 C                     0.334416
      7 O                    -0.673348
      8 O                    -0.673345
      9 H                     0.166780
     10 C                    -0.214450
     11 C                    -0.345528
     12 C                    -0.161415
     13 C                    -0.463583
     14 C                    -0.365152
     15 H                     0.166735
     16 H                     0.213185
     17 H                     0.215957
     18 H                     0.194005
     19 H                     0.172136
     20 H                     0.192380
     21 C                     0.370404
     22 C                    -0.214091
     23 C                    -0.345202
     24 C                    -0.161141
     25 C                    -0.365910
     26 C                    -0.463107
     27 H                     0.213183
     28 H                     0.215610
     29 H                     0.193942
     30 H                     0.192358
     31 H                     0.172111
     32 C                     0.370131
  ----------------------------------------
  Sum of atomic charges =    -2.000000

                    Cartesian Multipole Moments
 -----------------------------------------------------------------
    Charge (ESU x 10^10)
                -9.6064
    Dipole Moment (Debye)
         X       0.0016      Y      14.7376      Z       0.0033
       Tot      14.7376
    Quadrupole Moments (Debye-Ang)
        XX    -185.2522     XY      -0.0001     YY    -166.6235
        XZ       7.8278     YZ      -0.0071     ZZ    -131.2150

 Total job time:  118.31s(wall), 895.97s(cpu)
        *  Thank you very much for using Q-Chem.  Have a nice day.  *
