 Gaussian 16, Revision A.03,
 Gaussian 16:  ES64L-G16RevA.03 25-Dec-2016

 --------------------------------------
 #P UB3LYP/6-311++G(d,p) nosym opt freq
 --------------------------------------

 -------
 Reduced
 -------
 Symbolic Z-matrix:
 Charge = -2 Multiplicity = 1

 SCF Done:  E(UB3LYP) =  -843.782915925     A.U. after   22 cycles
 Optimization completed.
    -- Stationary point found.
 Normal termination of Gaussian 16 at Wed Jan 10 05:01:22 2024.

 ----------------------------------------------------------------------
 #P Geom=AllCheck Guess=TCheck SCRF=Check GenChk UB3LYP/6-311++G(d,p) F
 req
 ----------------------------------------------------------------------

 Structure from the checkpoint file:  "063-an.chk"
 -------
 Reduced
 -------
 Charge = -2 Multiplicity = 1

                          Input orientation:
 ---------------------------------------------------------------------
 Center     Atomic      Atomic             Coordinates (Angstroms)
 Number     Number       Type             X           Y           Z
 ---------------------------------------------------------------------
      1          6           0       -1.048471   -2.247717    1.261891
      2          6           0       -1.815178   -2.112377    0.037308
      3          6           0       -1.917341   -0.948805   -0.665846
      4          6           0       -1.230938    0.275902   -0.298844
      5          6           0       -0.384069    0.167909    0.866378
      6          6           0       -0.416530   -1.030967    1.716594
      7          8           0       -1.048431   -3.382680    1.866154
      8          8           0       -1.367700    1.308226   -1.053085
      9          1           0       -2.516325   -0.893152   -1.574498
     10          6           0        0.414939   -2.099181    3.865088
     11          6           0       -0.114090    0.246310    3.872622
     12          6           0        0.733998   -2.020225    5.218020
     13          6           0        0.637553   -0.815616    5.923772
     14          6           0        0.201986    0.316924    5.223175
     15          1           0       -2.340498   -3.010911   -0.285499
     16          1           0        0.456780   -3.045279    3.345094
     17          1           0       -0.459865    1.139250    3.367379
     18          1           0        1.064398   -2.921240    5.733369
     19          1           0        0.889532   -0.759634    6.979958
     20          1           0        0.102705    1.269637    5.740232
     21          6           0        0.661554    1.181623    1.039289
     22          6           0        0.510809    2.530331    0.608484
     23          6           0        1.936103    0.856996    1.583044
     24          6           0        1.538838    3.461283    0.730713
     25          6           0        2.958504    1.789883    1.698338
     26          6           0        2.779222    3.114434    1.278076
     27          1           0       -0.426862    2.804724    0.147257
     28          1           0        2.115524   -0.160607    1.906276
     29          1           0        1.367340    4.481304    0.389069
     30          1           0        3.913209    1.478625    2.118486
     31          1           0        3.577921    3.846101    1.372426
     32          6           0       -0.017457   -0.961522    3.126102
 ---------------------------------------------------------------------

 SCF Done:  E(UB3LYP) =  -843.782915925     A.U. after    1 cycles

 Alpha  occ. eigenvalues --  -18.78362 -18.78361  -9.94573  -9.94572  -9.94541
 Alpha  occ. eigenvalues --   -9.94540  -9.94492  -9.94491  -9.94332  -9.94332
 Alpha  occ. eigenvalues --   -9.93709  -9.93709  -9.92955  -9.92955  -9.92217
 Alpha  occ. eigenvalues --   -9.92216  -9.90393  -9.90324  -9.89693  -9.89660
 Alpha  occ. eigenvalues --   -0.70232  -0.69900  -0.61951  -0.61436  -0.55612
 Alpha  occ. eigenvalues --   -0.52236  -0.51419  -0.50901  -0.50783  -0.45495
 Alpha  occ. eigenvalues --   -0.41744  -0.37742  -0.36974  -0.36216  -0.36074
 Alpha  occ. eigenvalues --   -0.32239  -0.30336  -0.27498  -0.26616  -0.22773
 Alpha  occ. eigenvalues --   -0.22772  -0.22117  -0.21020  -0.19609  -0.18841
 Alpha  occ. eigenvalues --   -0.18618  -0.18469  -0.17359  -0.16521  -0.13763
 Alpha  occ. eigenvalues --   -0.13463  -0.13245  -0.12077  -0.11944  -0.11541
 Alpha  occ. eigenvalues --   -0.10128  -0.10075  -0.09100  -0.09063  -0.07248
 Alpha  occ. eigenvalues --   -0.03129  -0.03050  -0.01716  -0.01711   0.00755
 Alpha  occ. eigenvalues --    0.04375   0.04412   0.05240   0.11507
 Alpha virt. eigenvalues --    0.15151   0.15470   0.17156   0.17254   0.18333
 Alpha virt. eigenvalues --    0.18599   0.18864   0.19796   0.20429   0.21197
 Alpha virt. eigenvalues --    0.21473   0.22103   0.22527   0.22968   0.23065

  Beta  occ. eigenvalues --  -18.78362 -18.78361  -9.94573  -9.94572  -9.94541
  Beta  occ. eigenvalues --   -9.94540  -9.94492  -9.94491  -9.94332  -9.94332
  Beta  occ. eigenvalues --   -9.93709  -9.93709  -9.92955  -9.92955  -9.92217
  Beta  occ. eigenvalues --   -9.92216  -9.90393  -9.90324  -9.89693  -9.89660
  Beta  occ. eigenvalues --   -0.70232  -0.69900  -0.61951  -0.61436  -0.55612
  Beta  occ. eigenvalues --   -0.52236  -0.51419  -0.50901  -0.50783  -0.45495
  Beta  occ. eigenvalues --   -0.41744  -0.37742  -0.36974  -0.36216  -0.36074
  Beta  occ. eigenvalues --   -0.32239  -0.30336  -0.27498  -0.26616  -0.22773
  Beta  occ. eigenvalues --   -0.22772  -0.22117  -0.21020  -0.19609  -0.18841
  Beta  occ. eigenvalues --   -0.18618  -0.18469  -0.17359  -0.16521  -0.13763
  Beta  occ. eigenvalues --   -0.13463  -0.13245  -0.12077  -0.11944  -0.11541
  Beta  occ. eigenvalues --   -0.10128  -0.10075  -0.09100  -0.09063  -0.07248
  Beta  occ. eigenvalues --   -0.03129  -0.03050  -0.01716  -0.01711   0.00755
  Beta  occ. eigenvalues --    0.04375   0.04412   0.05240   0.11507
  Beta virt. eigenvalues --    0.15151   0.15470   0.17156   0.17254   0.18333
  Beta virt. eigenvalues --    0.18599   0.18864   0.19796   0.20429   0.21197
  Beta virt. eigenvalues --    0.21473   0.22103   0.22527   0.22968   0.23065

 Mulliken charges and spin densities:
               1          2
     1  C   -0.594232   0.000000
     2  C   -0.101375  -0.000000
     3  C   -0.101311   0.000000
     4  C   -0.594318  -0.000000
     5  C    0.409290  -0.000000
     6  C    0.409416   0.000000
     7  O   -0.485254  -0.000000
     8  O   -0.485219  -0.000000
     9  H    0.092359  -0.000000
    10  C   -0.226638   0.000000
    11  C   -0.400548  -0.000000
    12  C   -0.075474  -0.000000
    13  C   -0.419444   0.000000
    14  C   -0.282141  -0.000000
    15  H    0.092367  -0.000000
    16  H    0.222078  -0.000000
    17  H    0.199546   0.000000
    18  H    0.098960   0.000000
    19  H    0.063466   0.000000
    20  H    0.103125  -0.000000
    21  C    0.395619  -0.000000
    22  C   -0.226748  -0.000000
    23  C   -0.400192   0.000000
    24  C   -0.075135   0.000000
    25  C   -0.282083   0.000000
    26  C   -0.419463  -0.000000
    27  H    0.222088   0.000000
    28  H    0.199594  -0.000000
    29  H    0.098957   0.000000
    30  H    0.103125   0.000000
    31  H    0.063467  -0.000000
    32  C    0.396114   0.000000
 Sum of Mulliken charges =  -2.00000  -0.00000

 Dipole moment (field-independent basis, Debye):
    X=              2.9791    Y=              3.4963    Z=            -13.3540  Tot=             14.1219
 Quadrupole moment (field-independent basis, Debye-Ang):
   XX=           -150.4589   YY=           -180.4012   ZZ=           -195.3795
   XY=            -17.7070   XZ=             -6.7177   YZ=             23.6182

  Exact polarizability: 261.985  74.030 316.093  80.775  -6.090 336.383
 Approx polarizability: 457.297 120.282 541.783 184.669  32.524 558.899

                      1                      2                      3
                      A                      A                      A
 Frequencies --     39.6949                68.1599                73.3485
 Red. masses --      8.0634                 3.7512                 5.2107
 Frc consts  --      0.0075                 0.0103                 0.0165
 IR Inten    --      3.3063                 0.8091                 1.2683

                      4                      5                      6
                      A                      A                      A
 Frequencies --     85.6892                86.7400               116.8954
 Red. masses --      3.9794                 4.6436                 8.2605
 Frc consts  --      0.0172                 0.0206                 0.0665
 IR Inten    --      2.7978                 2.3295                 6.1210

                      7                      8                      9
                      A                      A                      A
 Frequencies --    153.5812               224.9842               255.2677
 Red. masses --      5.0963                 4.7767                 5.8869
 Frc consts  --      0.0708                 0.1425                 0.2260
 IR Inten    --      0.7905                 0.0168                 2.7315

                     10                     11                     12
                      A                      A                      A
 Frequencies --    277.8769               317.0319               332.7836
 Red. masses --      4.9544                 7.2949                 5.5288
 Frc consts  --      0.2254                 0.4320                 0.3607
 IR Inten    --      0.8643                 2.9847                 0.8170

                     13                     14                     15
                      A                      A                      A
 Frequencies --    335.9037               365.6674               426.0545
 Red. masses --      6.4962                 6.5038                 3.5083
 Frc consts  --      0.4319                 0.5124                 0.3752
 IR Inten    --      4.2863                 0.4758                 4.0372

                     16                     17                     18
                      A                      A                      A
 Frequencies --    426.1059               431.9183               468.4585
 Red. masses --      3.9315                 4.0595                 9.0434
 Frc consts  --      0.4206                 0.4462                 1.1693
 IR Inten    --      5.2523                 2.3840                37.0613

                     19                     20                     21
                      A                      A                      A
 Frequencies --    504.7044               506.8383               572.3096
 Red. masses --      4.2891                 2.9184                 4.5517
 Frc consts  --      0.6437                 0.4417                 0.8784
 IR Inten    --      1.0615                14.9938                10.8274

                     22                     23                     24
                      A                      A                      A
 Frequencies --    579.2933               626.5153               629.9082
 Red. masses --      4.2862                 2.8178                 6.0963
 Frc consts  --      0.8475                 0.6517                 1.4252
 IR Inten    --     14.3730                20.6815                 0.7658

                     25                     26                     27
                      A                      A                      A
 Frequencies --    630.0178               651.4501               679.8969
 Red. masses --      3.8046                 5.5797                 5.6890
 Frc consts  --      0.8897                 1.3951                 1.5494
 IR Inten    --     19.6982                 2.2075                 3.6757

                     28                     29                     30
                      A                      A                      A
 Frequencies --    684.8415               685.8877               720.9370
 Red. masses --      1.5190                 1.5062                 2.8773
 Frc consts  --      0.4198                 0.4175                 0.8811
 IR Inten    --     11.6234                80.4599                23.3103

                     31                     32                     33
                      A                      A                      A
 Frequencies --    735.9824               753.6244               780.8913
 Red. masses --      2.5325                 6.8053                 4.3755
 Frc consts  --      0.8082                 2.2772                 1.5720
 IR Inten    --      6.9231                 6.6692                 0.6312

                     34                     35                     36
                      A                      A                      A
 Frequencies --    816.0474               817.3540               830.5490
 Red. masses --      1.2588                 1.2626                 2.1692
 Frc consts  --      0.4939                 0.4970                 0.8816
 IR Inten    --      1.0696                 1.4455                39.9018

                     37                     38                     39
                      A                      A                      A
 Frequencies --    854.9709               859.1618               890.4271
 Red. masses --      1.7603                 1.6874                 5.7330
 Frc consts  --      0.7581                 0.7339                 2.6781
 IR Inten    --     23.0787                13.3238                53.6477

                     40                     41                     42
                      A                      A                      A
 Frequencies --    905.9048               945.1232               946.3900
 Red. masses --      6.4929                 1.2855                 1.2800
 Frc consts  --      3.1395                 0.6766                 0.6755
 IR Inten    --      5.2538                 4.0198                 1.4525

                     43                     44                     45
                      A                      A                      A
 Frequencies --    946.4351               957.4055               959.7172
 Red. masses --      1.2698                 1.3295                 1.3231
 Frc consts  --      0.6701                 0.7180                 0.7180
 IR Inten    --      5.2304                 0.5604                 0.9572

                     46                     47                     48
                      A                      A                      A
 Frequencies --    995.7843               998.4370              1028.5620
 Red. masses --      6.0204                 5.9246                 3.6978
 Frc consts  --      3.5173                 3.4798                 2.3049
 IR Inten    --     45.1940               117.2502                13.1925

                     49                     50                     51
                      A                      A                      A
 Frequencies --   1039.4167              1044.8436              1079.9774
 Red. masses --      2.2326                 2.1327                 1.7214
 Frc consts  --      1.4211                 1.3718                 1.1829
 IR Inten    --     26.3178                13.7681                10.7042

                     52                     53                     54
                      A                      A                      A
 Frequencies --   1092.5304              1094.9147              1156.9477
 Red. masses --      1.8981                 1.6547                 1.1604
 Frc consts  --      1.3349                 1.1688                 0.9151
 IR Inten    --      6.9720                 5.6291                88.1414

                     55                     56                     57
                      A                      A                      A
 Frequencies --   1159.6014              1164.3791              1186.1708
 Red. masses --      1.0841                 1.5508                 1.2593
 Frc consts  --      0.8589                 1.2387                 1.0440
 IR Inten    --      2.4944               411.3749                 9.0147

                     58                     59                     60
                      A                      A                      A
 Frequencies --   1198.5483              1210.9785              1228.5577
 Red. masses --      1.3110                 5.1236                 2.7735
 Frc consts  --      1.1096                 4.4269                 2.4664
 IR Inten    --      5.3868                20.9169                27.4860

                     61                     62                     63
                      A                      A                      A
 Frequencies --   1300.2304              1300.7940              1336.6425
 Red. masses --      3.6694                 2.9235                 2.8790
 Frc consts  --      3.6550                 2.9146                 3.0306
 IR Inten    --     15.8220                11.6973               305.0856

                     64                     65                     66
                      A                      A                      A
 Frequencies --   1343.5517              1349.4167              1352.0839
 Red. masses --      2.8962                 1.7695                 2.5662
 Frc consts  --      3.0803                 1.8984                 2.7641
 IR Inten    --     80.5266                37.1128                54.6253

                     67                     68                     69
                      A                      A                      A
 Frequencies --   1413.3949              1431.2840              1461.6070
 Red. masses --      4.7910                 4.6327                 2.8215
 Frc consts  --      5.6390                 5.5916                 3.5513
 IR Inten    --     52.2135               102.0488                47.8392

                     70                     71                     72
                      A                      A                      A
 Frequencies --   1465.3742              1483.3440              1503.3863
 Red. masses --      3.0796                 3.8072                 2.2306
 Frc consts  --      3.8962                 4.9356                 2.9704
 IR Inten    --      6.6636               344.2943               109.8563

                     73                     74                     75
                      A                      A                      A
 Frequencies --   1505.1262              1561.5070              1563.6230
 Red. masses --      2.1473                 4.6387                 4.7108
 Frc consts  --      2.8660                 6.6640                 6.7860
 IR Inten    --     89.2141                 1.9531                 4.2070

                     76                     77                     78
                      A                      A                      A
 Frequencies --   1594.6842              1606.2189              1623.5205
 Red. masses --      5.5917                 5.3947                 6.1517
 Frc consts  --      8.3780                 8.2003                 9.5534
 IR Inten    --    603.6158               281.5096                 3.6947

                     79                     80                     81
                      A                      A                      A
 Frequencies --   3086.1001              3094.4862              3094.6720
 Red. masses --      1.0831                 1.0827                 1.0828
 Frc consts  --      6.0776                 6.1088                 6.1098
 IR Inten    --     31.6678                53.2924                 4.0384

                     82                     83                     84
                      A                      A                      A
 Frequencies --   3106.7289              3106.8037              3115.4222
 Red. masses --      1.0876                 1.0876                 1.0943
 Frc consts  --      6.1850                 6.1853                 6.2579
 IR Inten    --     82.2260                72.6162               181.9779

                     85                     86                     87
                      A                      A                      A
 Frequencies --   3134.1075              3134.7628              3186.3346
 Red. masses --      1.0948                 1.0946                 1.0904
 Frc consts  --      6.3360                 6.3377                 6.5223
 IR Inten    --    105.1374               139.5784                 6.1011

                     88                     89                     90
                      A                      A                      A
 Frequencies --   3186.8933              3210.3410              3210.4255
 Red. masses --      1.0904                 1.0912                 1.0912
 Frc consts  --      6.5250                 6.6264                 6.6267
 IR Inten    --     13.7641                 3.6767                 6.4901

 - Thermochemistry -
 -------------------
 Temperature   298.150 Kelvin.  Pressure   1.00000 Atm.
 Atom     1 has atomic number  6 and mass  12.00000

 Molecular mass:   260.08373 amu.
 Principal axes and moments of inertia in atomic units:
                           1         2         3
     Eigenvalues --  4271.982065124.192828421.22415
           X            0.17054   0.60174   0.78027
           Y            0.73357   0.45116  -0.50826
           Z           -0.65787   0.65906  -0.36448
 This molecule is an asymmetric top.
 Rotational symmetry number  1.
 Warning -- assumption of classical behavior for rotation
           may cause significant error
 Rotational temperatures (Kelvin)      0.02027     0.01690     0.01029
 Rotational constants (GHZ):           0.42246     0.35220     0.21431
 Zero-point vibrational energy     631037.7 (Joules/Mol)
                                  150.82163 (Kcal/Mol)
 Warning -- explicit consideration of  22 degrees of freedom as
           vibrations may cause significant error
 Vibrational temperatures:     57.11    98.07   105.53   123.29   124.80
          (Kelvin)            168.19   220.97   323.70   367.27   399.80
                              456.14   478.80   483.29   526.11   613.00
                              613.07   621.43   674.01   726.16   729.23
                              823.43   833.47   901.42   906.30   906.46
                              937.29   978.22   985.33   986.84  1037.27
                             1058.91  1084.30  1123.53  1174.11  1175.99
                             1194.97  1230.11  1236.14  1281.13  1303.39
                             1359.82  1361.64  1361.71  1377.49  1380.82
                             1432.71  1436.53  1479.87  1495.49  1503.30
                             1553.85  1571.91  1575.34  1664.59  1668.41
                             1675.28  1706.64  1724.44  1742.33  1767.62
                             1870.74  1871.55  1923.13  1933.07  1941.51
                             1945.35  2033.56  2059.30  2102.93  2108.35
                             2134.20  2163.04  2165.54  2246.66  2249.70
                             2294.39  2310.99  2335.88  4440.21  4452.28
                             4452.54  4469.89  4470.00  4482.40  4509.28
                             4510.22  4584.42  4585.23  4618.96  4619.09

 Zero-point correction=                           0.240350 (Hartree/Particle)
 Thermal correction to Energy=                    0.255794
 Thermal correction to Enthalpy=                  0.256738
 Thermal correction to Gibbs Free Energy=         0.197266
 Sum of electronic and zero-point Energies=           -843.542566
 Sum of electronic and thermal Energies=              -843.527122
 Sum of electronic and thermal Enthalpies=            -843.526178
 Sum of electronic and thermal Free Energies=         -843.585650

                     E (Thermal)             CV                S
                      KCal/Mol        Cal/Mol-Kelvin    Cal/Mol-Kelvin
 Total                  160.513             62.840            125.170
 Electronic               0.000              0.000              0.000
 Translational            0.889              2.981             42.567
 Rotational               0.889              2.981             33.577
 Vibrational            158.736             56.878             49.026
 Vibration     1          0.594              1.981              5.274
 Vibration     2          0.598              1.969              4.206
 Vibration     3          0.599              1.967              4.061
 Vibration     4          0.601              1.959              3.756
 Vibration     5          0.601              1.958              3.732
 Vibration     6          0.608              1.935              3.151
 Vibration     7          0.619              1.899              2.627
 Vibration     8          0.650              1.803              1.919
 Vibration     9          0.666              1.754              1.694
 Vibration    10          0.679              1.714              1.547
 Vibration    11          0.704              1.641              1.325
 Vibration    12          0.715              1.610              1.247
 Vibration    13          0.717              1.604              1.232
 Vibration    14          0.739              1.543              1.098
 Vibration    15          0.788              1.414              0.872
 Vibration    16          0.788              1.413              0.871
 Vibration    17          0.793              1.401              0.852
 Vibration    18          0.826              1.320              0.742
 Vibration    19          0.860              1.240              0.646
 Vibration    20          0.862              1.235              0.641
 Vibration    21          0.929              1.091              0.500
 Vibration    22          0.936              1.076              0.487

 Optimization completed.
    -- Stationary point found.
 Normal termination of Gaussian 16 at Wed Jan 10 06:56:58 2024.
