 Gaussian 16, Revision A.03,
 Gaussian 16:  ES64L-G16RevA.03 25-Dec-2016

 ----------------------------------------------------------------
 #P UB3LYP/6-311++G(d,p) SCRF=(PCM,Solvent=n,n-DiMethylFormamide)
 ----------------------------------------------------------------

 ------------------
 Quinone PCM in DMF
 ------------------
 Symbolic Z-matrix:
 Charge =  0 Multiplicity = 1

                         Standard orientation:
 ---------------------------------------------------------------------
 Center     Atomic      Atomic             Coordinates (Angstroms)
 Number     Number       Type             X           Y           Z
 ---------------------------------------------------------------------
      1          6           0       -2.420492    1.409900   -0.000481
      2          6           0       -3.855455    1.035468   -0.000645
      3          6           0       -4.241519   -0.246051   -0.000161
      4          6           0       -3.242112   -1.346167    0.000573
      5          6           0       -1.809297   -0.973548    0.000598
      6          6           0       -1.410554    0.308906    0.000218
      7          8           0       -2.074183    2.581131   -0.001095
      8          8           0       -3.595708   -2.514330    0.001048
      9          6           0        0.024895    0.748180    0.000394
     10          8           0        0.862445   -0.392304   -0.000410
     11          6           0        2.222506   -0.208204   -0.000221
     12          6           0        2.849077    1.039492    0.001186
     13          6           0        2.988723   -1.378714   -0.001461
     14          6           0        4.374605   -1.297862   -0.001237
     15          6           0        4.245263    1.103249    0.001398
     16          6           0        5.013556   -0.055191    0.000194
     17          1           0       -4.556801    1.862561   -0.001174
     18          1           0       -5.283344   -0.546757   -0.000247
     19          1           0       -1.096774   -1.788857    0.000957
     20          1           0        0.211766    1.374039    0.882320
     21          1           0        0.211612    1.375240   -0.880689
     22          1           0        2.275964    1.956881    0.002176
     23          1           0        2.479898   -2.335148   -0.002535
     24          1           0        4.960329   -2.210246   -0.002170
     25          1           0        4.726449    2.074883    0.002509
     26          1           0        6.095295    0.004673    0.000372
 ---------------------------------------------------------------------

 SCF Done:  E(UB3LYP) =  -727.241596834     A.U. after   14 cycles

 The electronic state is 1-A.
 Alpha  occ. eigenvalues --  -19.17103 -19.15077 -19.14703 -10.29588 -10.29153
 Alpha  occ. eigenvalues --  -10.25152 -10.24802 -10.22827 -10.21703 -10.21620
 Alpha  occ. eigenvalues --  -10.21114 -10.18506 -10.18448 -10.18331 -10.18056
 Alpha  occ. eigenvalues --  -10.17670  -1.08884  -1.08096  -1.07643  -0.87682
 Alpha  occ. eigenvalues --   -0.86412  -0.81697  -0.76627  -0.75851  -0.73067
 Alpha  occ. eigenvalues --   -0.70053  -0.64554  -0.62600  -0.60540  -0.59826
 Alpha  occ. eigenvalues --   -0.55778  -0.52398  -0.51923  -0.50184  -0.49883
 Alpha  occ. eigenvalues --   -0.49241  -0.48270  -0.46136  -0.45553  -0.45243
 Alpha  occ. eigenvalues --   -0.44442  -0.43645  -0.42969  -0.42737  -0.41012
 Alpha  occ. eigenvalues --   -0.39665  -0.38300  -0.37248  -0.34553  -0.34152
 Alpha  occ. eigenvalues --   -0.31799  -0.30027  -0.29870  -0.28640  -0.26816
 Alpha  occ. eigenvalues --   -0.24031
 Alpha virt. eigenvalues --   -0.14149  -0.03540  -0.02433  -0.01296  -0.00744
 Alpha virt. eigenvalues --   -0.00665   0.00134   0.00710   0.01285   0.02069
 Alpha virt. eigenvalues --    0.02959   0.03112   0.03462   0.03719   0.05531

  Beta  occ. eigenvalues --  -19.17103 -19.15077 -19.14703 -10.29588 -10.29153
  Beta  occ. eigenvalues --  -10.25152 -10.24802 -10.22827 -10.21703 -10.21620
  Beta  occ. eigenvalues --  -10.21114 -10.18506 -10.18448 -10.18331 -10.18056
  Beta  occ. eigenvalues --  -10.17670  -1.08884  -1.08096  -1.07643  -0.87682
  Beta  occ. eigenvalues --   -0.86412  -0.81697  -0.76627  -0.75851  -0.73067
  Beta  occ. eigenvalues --   -0.70053  -0.64554  -0.62600  -0.60540  -0.59826
  Beta  occ. eigenvalues --   -0.55778  -0.52398  -0.51923  -0.50184  -0.49883
  Beta  occ. eigenvalues --   -0.49241  -0.48270  -0.46136  -0.45553  -0.45243
  Beta  occ. eigenvalues --   -0.44442  -0.43645  -0.42969  -0.42737  -0.41012
  Beta  occ. eigenvalues --   -0.39665  -0.38300  -0.37248  -0.34553  -0.34152
  Beta  occ. eigenvalues --   -0.31799  -0.30027  -0.29870  -0.28640  -0.26816
  Beta  occ. eigenvalues --   -0.24031
  Beta virt. eigenvalues --   -0.14149  -0.03540  -0.02433  -0.01296  -0.00744
  Beta virt. eigenvalues --   -0.00665   0.00134   0.00710   0.01285   0.02069
  Beta virt. eigenvalues --    0.02959   0.03112   0.03462   0.03719   0.05531

 Mulliken charges and spin densities:
               1          2
     1  C   -1.221621   0.000000
     2  C    0.296922  -0.000000
     3  C    0.136076   0.000000
     4  C   -0.389441  -0.000000
     5  C   -0.468907   0.000000
     6  C    0.837601   0.000000
     7  O   -0.252911  -0.000000
     8  O   -0.283770   0.000000
     9  C   -0.113536  -0.000000
    10  O   -0.114512   0.000000
    11  C    0.481905   0.000000
    12  C   -0.023553  -0.000000
    13  C   -0.086253   0.000000
    14  C   -0.249550   0.000000
    15  C   -0.327878  -0.000000
    16  C   -0.395731  -0.000000
    17  H    0.242630   0.000000
    18  H    0.249460   0.000000
    19  H    0.230204  -0.000000
    20  H    0.252230  -0.000000
    21  H    0.252077  -0.000000
    22  H    0.174439  -0.000000
    23  H    0.182572   0.000000
    24  H    0.204533   0.000000
    25  H    0.214602   0.000000
    26  H    0.172412  -0.000000
 Sum of Mulliken charges =  -0.00000   0.00000

 Dipole moment (field-independent basis, Debye):
    X=              0.2866    Y=              1.9177    Z=              0.0016  Tot=              1.9390
 Quadrupole moment (field-independent basis, Debye-Ang):
   XX=            -80.2532   YY=           -105.0905   ZZ=            -95.3677
   XY=             -8.3894   XZ=              0.0066   YZ=              0.0181

 Normal termination of Gaussian 16 at Wed Jan 24 22:51:11 2024.
