 Gaussian 16, Revision A.03,
 Gaussian 16:  ES64L-G16RevA.03 25-Dec-2016

 ----------------------------------------------------------------
 #P UB3LYP/6-311++G(d,p) SCRF=(PCM,Solvent=n,n-DiMethylFormamide)
 ----------------------------------------------------------------

 ------------------
 Radical PCM in DMF
 ------------------
 Symbolic Z-matrix:
 Charge = -1 Multiplicity = 2

                         Standard orientation:
 ---------------------------------------------------------------------
 Center     Atomic      Atomic             Coordinates (Angstroms)
 Number     Number       Type             X           Y           Z
 ---------------------------------------------------------------------
      1          6           0       -0.306144    0.598585    0.354446
      2          6           0       -1.440553    1.486070    0.186659
      3          6           0       -2.698601    0.995847   -0.080433
      4          6           0       -2.940127   -0.435569   -0.210544
      5          6           0       -1.797727   -1.336361   -0.073158
      6          6           0       -0.541818   -0.825285    0.196761
      7          8           0        0.850836    1.061315    0.640293
      8          8           0       -4.095634   -0.887522   -0.445328
      9          6           0       -1.193740    2.968170    0.331707
     10          6           0       -3.881400    1.915125   -0.248936
     11          6           0       -2.078615   -2.807611   -0.227090
     12         16           0        0.810042   -1.974973    0.494799
     13          6           0        2.229931   -1.263591   -0.447142
     14          6           0        3.307008   -0.593907    0.434030
     15          6           0        3.955050    0.600339   -0.256495
     16          8           0        5.110365    0.615737   -0.626605
     17          8           0        3.152819    1.653589   -0.437271
     18          1           0       -0.159970    3.147295    0.623826
     19          1           0       -1.854085    3.412105    1.085511
     20          1           0       -1.384814    3.500488   -0.608346
     21          1           0       -3.714167    2.643527   -1.051438
     22          1           0       -4.076807    2.492020    0.663645
     23          1           0       -4.768378    1.327688   -0.484812
     24          1           0       -3.021304   -2.939934   -0.758220
     25          1           0       -2.182353   -3.300784    0.747998
     26          1           0       -1.265331   -3.312122   -0.753529
     27          1           0        1.806722   -0.568542   -1.168806
     28          1           0        2.663474   -2.094598   -1.007561
     29          1           0        4.095358   -1.302820    0.689413
     30          1           0        2.830582   -0.241857    1.350238
     31          1           0        2.243722    1.481266   -0.052243
 ---------------------------------------------------------------------

 SCF Done:  E(UB3LYP) =  -1165.20921472     A.U. after   22 cycles

 The electronic state is 2-A.
 Alpha  occ. eigenvalues --  -88.84369 -19.15295 -19.11216 -19.08375 -19.07961
 Alpha  occ. eigenvalues --  -10.30507 -10.23017 -10.22033 -10.20511 -10.19400
 Alpha  occ. eigenvalues --  -10.18198 -10.17760 -10.17013 -10.16951 -10.15461
 Alpha  occ. eigenvalues --  -10.15407 -10.15392  -7.92964  -5.89357  -5.88971
 Alpha  occ. eigenvalues --   -5.88369  -1.09926  -1.02051  -1.00491  -1.00232
 Alpha  occ. eigenvalues --   -0.84050  -0.81245  -0.78844  -0.73432  -0.72437
 Alpha  occ. eigenvalues --   -0.70616  -0.66292  -0.64073  -0.61565  -0.60801
 Alpha  occ. eigenvalues --   -0.54906  -0.54705  -0.51594  -0.50618  -0.48117
 Alpha  occ. eigenvalues --   -0.46498  -0.45077  -0.44487  -0.43930  -0.42613
 Alpha  occ. eigenvalues --   -0.41453  -0.41271  -0.41062  -0.40004  -0.39099
 Alpha  occ. eigenvalues --   -0.38844  -0.38597  -0.38162  -0.37206  -0.36942
 Alpha  occ. eigenvalues --   -0.36660  -0.35501  -0.35060  -0.34679  -0.32401
 Alpha  occ. eigenvalues --   -0.31642  -0.28800  -0.27823  -0.25680  -0.25149
 Alpha  occ. eigenvalues --   -0.24036  -0.21910  -0.16529
 Alpha virt. eigenvalues --   -0.01670  -0.00651  -0.00295   0.00577   0.00875
 Alpha virt. eigenvalues --    0.01747   0.02123   0.02256   0.02550   0.03408
 Alpha virt. eigenvalues --    0.03567   0.04039   0.04222   0.04717   0.04919

  Beta  occ. eigenvalues --  -88.84365 -19.15279 -19.11214 -19.07849 -19.07240
  Beta  occ. eigenvalues --  -10.30507 -10.22753 -10.21906 -10.20509 -10.19364
  Beta  occ. eigenvalues --  -10.18198 -10.17575 -10.16954 -10.16837 -10.15466
  Beta  occ. eigenvalues --  -10.15419 -10.15402  -7.92961  -5.89356  -5.88970
  Beta  occ. eigenvalues --   -5.88353  -1.09904  -1.01957  -0.99539  -0.99014
  Beta  occ. eigenvalues --   -0.83571  -0.81126  -0.78700  -0.73163  -0.72199
  Beta  occ. eigenvalues --   -0.70413  -0.66028  -0.63594  -0.61358  -0.60700
  Beta  occ. eigenvalues --   -0.54559  -0.54339  -0.51523  -0.50436  -0.48064
  Beta  occ. eigenvalues --   -0.46322  -0.44947  -0.44333  -0.43223  -0.42087
  Beta  occ. eigenvalues --   -0.41191  -0.41083  -0.40924  -0.39330  -0.38971
  Beta  occ. eigenvalues --   -0.38762  -0.38537  -0.37180  -0.37020  -0.36799
  Beta  occ. eigenvalues --   -0.35503  -0.34888  -0.34579  -0.33976  -0.32319
  Beta  occ. eigenvalues --   -0.31490  -0.28522  -0.26343  -0.25040  -0.23974
  Beta  occ. eigenvalues --   -0.23402  -0.21355
  Beta virt. eigenvalues --   -0.09525  -0.01254  -0.00612   0.00366   0.00657
  Beta virt. eigenvalues --    0.01025   0.01873   0.02195   0.02563   0.03279
  Beta virt. eigenvalues --    0.03452   0.03963   0.04114   0.04595   0.04774

 Mulliken charges and spin densities:
               1          2
     1  C   -1.103059   0.192827
     2  C    0.885094   0.038385
     3  C    0.573131   0.116015
     4  C   -2.089515   0.048368
     5  C    0.424874   0.127909
     6  C    1.320252  -0.002929
     7  O   -0.458057   0.177135
     8  O   -0.446401   0.263464
     9  C   -0.462442   0.007247
    10  C   -0.502276   0.001453
    11  C   -0.163667  -0.006335
    12  S   -0.441627   0.008383
    13  C   -0.288102  -0.001670
    14  C   -0.198895  -0.004121
    15  C   -0.128176   0.002081
    16  O   -0.373438   0.000715
    17  O   -0.309180   0.001817
    18  H    0.172955  -0.000616
    19  H    0.141551   0.001892
    20  H    0.159496   0.001375
    21  H    0.155365   0.004256
    22  H    0.155558   0.004639
    23  H    0.182939  -0.001753
    24  H    0.176785  -0.000890
    25  H    0.185890   0.008660
    26  H    0.133693   0.003053
    27  H    0.201928  -0.000017
    28  H    0.256070   0.000237
    29  H    0.219014  -0.000553
    30  H    0.187581   0.004214
    31  H    0.432659   0.004761
 Sum of Mulliken charges =  -1.00000   1.00000

 Dipole moment (field-independent basis, Debye):
    X=             -0.6633    Y=             -0.5947    Z=              0.6958  Tot=              1.1304
 Quadrupole moment (field-independent basis, Debye-Ang):
   XX=           -193.2448   YY=           -120.0905   ZZ=           -114.7784
   XY=            -24.0989   XZ=              2.6694   YZ=              1.9212

 Normal termination of Gaussian 16 at Sun Jan 21 07:25:26 2024.
