 Gaussian 16, Revision A.03,
 Gaussian 16:  ES64L-G16RevA.03 25-Dec-2016

 --------------------------------------
 #P UB3LYP/6-311++G(d,p) nosym opt freq
 --------------------------------------

 -------
 Radical
 -------
 Symbolic Z-matrix:
 Charge = -1 Multiplicity = 2

 SCF Done:  E(UB3LYP) =  -1165.14007558     A.U. after   25 cycles
 SCF Done:  E(UB3LYP) =  -1165.14007518     A.U. after   11 cycles
 SCF Done:  E(UB3LYP) =  -1165.14007554     A.U. after   13 cycles
 Optimization completed.
    -- Stationary point found.
 Normal termination of Gaussian 16 at Sat Jan  6 06:04:06 2024.

 ----------------------------------------------------------------------
 #P Geom=AllCheck Guess=TCheck SCRF=Check GenChk UB3LYP/6-311++G(d,p) F
 req
 ----------------------------------------------------------------------

 Structure from the checkpoint file:  "052-rad.chk"
 -------
 Radical
 -------
 Charge = -1 Multiplicity = 2

                          Input orientation:
 ---------------------------------------------------------------------
 Center     Atomic      Atomic             Coordinates (Angstroms)
 Number     Number       Type             X           Y           Z
 ---------------------------------------------------------------------
      1          6           0        1.836096    2.798855    1.392985
      2          6           0        0.401115    2.739980    1.192908
      3          6           0       -0.195844    1.642826    0.614778
      4          6           0        0.591516    0.497697    0.175508
      5          6           0        2.041580    0.560203    0.345179
      6          6           0        2.622884    1.670122    0.929583
      7          8           0        2.376804    3.805847    1.965725
      8          8           0        0.044278   -0.513989   -0.345647
      9          6           0       -0.416607    3.920836    1.657112
     10          6           0       -1.687993    1.575425    0.411241
     11          6           0        2.826881   -0.632707   -0.131725
     12         16           0        4.394321    1.648876    1.245322
     13          6           0        4.970123    3.325099    0.727507
     14          6           0        5.308189    4.272402    1.899413
     15          6           0        4.986650    5.726605    1.575511
     16          8           0        5.832200    6.584495    1.430457
     17          8           0        3.685385    6.005199    1.454328
     18          1           0        0.224216    4.643638    2.160105
     19          1           0       -1.208827    3.612091    2.348790
     20          1           0       -0.910046    4.422676    0.815538
     21          1           0       -2.049896    2.414003   -0.195686
     22          1           0       -2.227512    1.622023    1.365465
     23          1           0       -1.945552    0.641618   -0.087876
     24          1           0        2.223442   -1.200467   -0.840090
     25          1           0        3.075930   -1.307169    0.697643
     26          1           0        3.771325   -0.327353   -0.587669
     27          1           0        4.194016    3.735350    0.085362
     28          1           0        5.854387    3.159584    0.108408
     29          1           0        6.366580    4.211218    2.155027
     30          1           0        4.712631    3.975001    2.763832
     31          1           0        3.127375    5.191203    1.628788
 ---------------------------------------------------------------------

 SCF Done:  E(UB3LYP) =  -1165.14007554     A.U. after    1 cycles

 Alpha  occ. eigenvalues --  -88.73515 -19.03471 -18.99337 -18.96888 -18.96279
 Alpha  occ. eigenvalues --  -10.18822 -10.11731 -10.10534 -10.10273 -10.08278
 Alpha  occ. eigenvalues --  -10.07710 -10.06652 -10.06064 -10.06002 -10.05440
 Alpha  occ. eigenvalues --  -10.05382 -10.04827  -7.82109  -5.78508  -5.78118
 Alpha  occ. eigenvalues --   -5.77502  -0.98099  -0.90244  -0.88922  -0.88542
 Alpha  occ. eigenvalues --   -0.72980  -0.70603  -0.68152  -0.62557  -0.61961
 Alpha  occ. eigenvalues --   -0.59955  -0.55584  -0.53242  -0.50890  -0.49161
 Alpha  occ. eigenvalues --   -0.44078  -0.43701  -0.40594  -0.39615  -0.37101
 Alpha  occ. eigenvalues --   -0.35188  -0.33808  -0.33428  -0.32934  -0.31243
 Alpha  occ. eigenvalues --   -0.30925  -0.30581  -0.30217  -0.29560  -0.28412
 Alpha  occ. eigenvalues --   -0.28225  -0.28159  -0.27210  -0.26536  -0.25958
 Alpha  occ. eigenvalues --   -0.25512  -0.24534  -0.24332  -0.23609  -0.21076
 Alpha  occ. eigenvalues --   -0.20119  -0.17233  -0.16301  -0.14401  -0.13957
 Alpha  occ. eigenvalues --   -0.12470  -0.10908  -0.05068
 Alpha virt. eigenvalues --    0.07781   0.08278   0.09159   0.10068   0.10427
 Alpha virt. eigenvalues --    0.10559   0.10916   0.11129   0.11871   0.12317
 Alpha virt. eigenvalues --    0.12843   0.13126   0.13413   0.13618   0.13904

  Beta  occ. eigenvalues --  -88.73512 -19.03456 -18.99335 -18.96355 -18.95505
  Beta  occ. eigenvalues --  -10.18822 -10.11476 -10.10448 -10.10272 -10.08252
  Beta  occ. eigenvalues --  -10.07710 -10.06451 -10.06006 -10.05871 -10.05444
  Beta  occ. eigenvalues --  -10.05394 -10.04841  -7.82106  -5.78508  -5.78118
  Beta  occ. eigenvalues --   -5.77491  -0.98077  -0.90114  -0.88033  -0.87222
  Beta  occ. eigenvalues --   -0.72520  -0.70481  -0.67996  -0.62298  -0.61768
  Beta  occ. eigenvalues --   -0.59753  -0.55360  -0.52706  -0.50685  -0.49057
  Beta  occ. eigenvalues --   -0.43750  -0.43342  -0.40520  -0.39446  -0.37049
  Beta  occ. eigenvalues --   -0.34994  -0.33648  -0.33069  -0.32736  -0.30855
  Beta  occ. eigenvalues --   -0.30639  -0.30364  -0.29970  -0.29219  -0.28276
  Beta  occ. eigenvalues --   -0.28107  -0.28020  -0.26453  -0.26223  -0.25680
  Beta  occ. eigenvalues --   -0.24563  -0.24116  -0.23492  -0.22482  -0.20889
  Beta  occ. eigenvalues --   -0.20085  -0.16789  -0.15053  -0.13582  -0.12739
  Beta  occ. eigenvalues --   -0.11783  -0.10317
  Beta virt. eigenvalues --    0.01998   0.07805   0.08356   0.09309   0.10285
  Beta virt. eigenvalues --    0.10475   0.10717   0.11145   0.11566   0.11904
  Beta virt. eigenvalues --    0.12343   0.12916   0.13133   0.13572   0.13847

 Mulliken charges and spin densities:
               1          2
     1  C   -1.183338   0.181579
     2  C    0.962807   0.033007
     3  C    0.680784   0.133121
     4  C   -2.320442   0.015610
     5  C    0.480586   0.140396
     6  C    1.455432  -0.003462
     7  O   -0.415848   0.179735
     8  O   -0.356745   0.285175
     9  C   -0.488188   0.007415
    10  C   -0.542086   0.000503
    11  C   -0.142692  -0.006952
    12  S   -0.415292   0.004511
    13  C   -0.274605  -0.001214
    14  C   -0.213165  -0.004635
    15  C   -0.201767   0.002470
    16  O   -0.315144   0.000782
    17  O   -0.270634   0.002052
    18  H    0.183898  -0.000722
    19  H    0.113528   0.001861
    20  H    0.131367   0.001079
    21  H    0.126977   0.004719
    22  H    0.124637   0.005080
    23  H    0.200282  -0.002142
    24  H    0.188222  -0.001133
    25  H    0.154744   0.009460
    26  H    0.123035   0.003090
    27  H    0.190369  -0.000120
    28  H    0.222569   0.000209
    29  H    0.190157  -0.000499
    30  H    0.184933   0.004797
    31  H    0.425619   0.004226
 Sum of Mulliken charges =  -1.00000   1.00000

 Dipole moment (field-independent basis, Debye):
    X=            -12.1377    Y=            -14.1050    Z=             -4.3751  Tot=             19.1159
 Quadrupole moment (field-independent basis, Debye-Ang):
   XX=           -172.8042   YY=           -211.7017   ZZ=           -121.5189
   XY=            -68.9162   XZ=            -19.4294   YZ=            -25.1599

  Exact polarizability: 245.511  33.443 228.382  17.096  37.039 133.982
 Approx polarizability: 335.958  55.508 351.197  31.486  63.193 222.938

                      1                      2                      3
                      A                      A                      A
 Frequencies --     31.4064                54.9161                58.7362
 Red. masses --      6.6206                 4.3473                 1.1384
 Frc consts  --      0.0038                 0.0077                 0.0023
 IR Inten    --      1.4697                 1.6798                 0.0461

                      4                      5                      6
                      A                      A                      A
 Frequencies --     82.4699                87.4159                96.8720
 Red. masses --      5.9735                 1.4547                 2.3657
 Frc consts  --      0.0239                 0.0065                 0.0131
 IR Inten    --      1.8084                 0.9473                 0.5712

                      7                      8                      9
                      A                      A                      A
 Frequencies --    112.4111               115.7072               124.8476
 Red. masses --      1.8776                 1.5077                 3.3996
 Frc consts  --      0.0140                 0.0119                 0.0312
 IR Inten    --      5.2101                 3.6448                 2.6310

                     10                     11                     12
                      A                      A                      A
 Frequencies --    160.5642               169.3494               214.3968
 Red. masses --      3.8891                 5.4648                 5.7069
 Frc consts  --      0.0591                 0.0923                 0.1546
 IR Inten    --      5.3005                 1.0935                12.2045

                     13                     14                     15
                      A                      A                      A
 Frequencies --    218.9169               260.2408               292.8420
 Red. masses --      4.2760                 3.6542                 4.6576
 Frc consts  --      0.1207                 0.1458                 0.2353
 IR Inten    --      2.9140                 8.4953                 1.0811

                     16                     17                     18
                      A                      A                      A
 Frequencies --    314.2435               323.4355               333.1698
 Red. masses --      2.6019                 4.3261                 3.9618
 Frc consts  --      0.1514                 0.2666                 0.2591
 IR Inten    --      1.0975                 5.3563                 2.4806

                     19                     20                     21
                      A                      A                      A
 Frequencies --    345.6245               380.0407               413.4951
 Red. masses --      4.7047                 4.7000                 7.9075
 Frc consts  --      0.3311                 0.4000                 0.7966
 IR Inten    --      3.1978                 0.4050                22.0206

                     22                     23                     24
                      A                      A                      A
 Frequencies --    424.4370               445.3152               455.4003
 Red. masses --      6.0396                 3.6718                 3.5305
 Frc consts  --      0.6410                 0.4290                 0.4314
 IR Inten    --      0.9901                 3.1895                13.0604

                     25                     26                     27
                      A                      A                      A
 Frequencies --    528.7111               560.4276               594.2982
 Red. masses --      8.1479                 4.3273                 5.2462
 Frc consts  --      1.3419                 0.8008                 1.0917
 IR Inten    --      2.9498                 0.2544                33.3351

                     28                     29                     30
                      A                      A                      A
 Frequencies --    613.0764               657.7285               688.7243
 Red. masses --      4.6471                 6.4149                 3.5823
 Frc consts  --      1.0291                 1.6351                 1.0012
 IR Inten    --     11.0333                 2.5444                 2.3769

                     31                     32                     33
                      A                      A                      A
 Frequencies --    703.2901               720.7073               765.5460
 Red. masses --      4.7578                 2.5930                 6.2462
 Frc consts  --      1.3865                 0.7935                 2.1568
 IR Inten    --      4.9530                 9.5393                 0.3134

                     34                     35                     36
                      A                      A                      A
 Frequencies --    798.6560               816.3925               885.2875
 Red. masses --      5.5054                 3.0947                 2.5577
 Frc consts  --      2.0690                 1.2153                 1.1811
 IR Inten    --     49.7422                 1.5916                 8.9073

                     37                     38                     39
                      A                      A                      A
 Frequencies --    920.8209               961.2563               979.8426
 Red. masses --      3.7826                 2.6895                 1.6663
 Frc consts  --      1.8897                 1.4642                 0.9426
 IR Inten    --     16.6124                14.4658                30.5948

                     40                     41                     42
                      A                      A                      A
 Frequencies --    993.3234              1012.1355              1014.5930
 Red. masses --      1.1387                 2.1558                 3.3242
 Frc consts  --      0.6620                 1.3012                 2.0161
 IR Inten    --     91.1788                13.1278                 2.5188

                     43                     44                     45
                      A                      A                      A
 Frequencies --   1026.7036              1043.7570              1052.8438
 Red. masses --      1.4026                 1.5584                 1.6820
 Frc consts  --      0.8711                 1.0003                 1.0985
 IR Inten    --      0.0596                 9.6090                22.3971

                     46                     47                     48
                      A                      A                      A
 Frequencies --   1057.8141              1113.9063              1124.5821
 Red. masses --      1.5263                 2.8968                 4.4049
 Frc consts  --      1.0063                 2.1177                 3.2822
 IR Inten    --      0.3398                28.4468                15.9395

                     49                     50                     51
                      A                      A                      A
 Frequencies --   1157.6699              1216.0359              1240.3297
 Red. masses --      1.2901                 6.9454                 1.2334
 Frc consts  --      1.0187                 6.0512                 1.1180
 IR Inten    --     16.4731                15.5021                 7.7972

                     52                     53                     54
                      A                      A                      A
 Frequencies --   1273.3308              1281.5873              1298.4426
 Red. masses --      3.7641                 1.7927                 1.4548
 Frc consts  --      3.5958                 1.7349                 1.4451
 IR Inten    --     62.8898                41.2645                23.5343

                     55                     56                     57
                      A                      A                      A
 Frequencies --   1338.5094              1372.3866              1389.8291
 Red. masses --      1.3465                 1.4503                 1.3442
 Frc consts  --      1.4214                 1.6094                 1.5298
 IR Inten    --     13.3015                34.6326                37.5263

                     58                     59                     60
                      A                      A                      A
 Frequencies --   1392.4272              1414.6047              1432.0065
 Red. masses --      1.2665                 2.3994                 1.4881
 Frc consts  --      1.4468                 2.8289                 1.7980
 IR Inten    --     16.9813                34.7291               310.5384

                     61                     62                     63
                      A                      A                      A
 Frequencies --   1465.8427              1469.3627              1474.5890
 Red. masses --      1.3512                 1.0702                 1.8677
 Frc consts  --      1.7106                 1.3613                 2.3928
 IR Inten    --     83.1378                23.6687                10.1385

                     64                     65                     66
                      A                      A                      A
 Frequencies --   1477.4265              1481.3462              1487.5309
 Red. masses --      1.1522                 1.1580                 1.3022
 Frc consts  --      1.4818                 1.4971                 1.6977
 IR Inten    --      2.8256                12.8660                19.1356

                     67                     68                     69
                      A                      A                      A
 Frequencies --   1492.0160              1498.6259              1505.6754
 Red. masses --      1.0547                 2.1784                 1.9319
 Frc consts  --      1.3834                 2.8825                 2.5805
 IR Inten    --      6.5035               298.1845               111.3290

                     70                     71                     72
                      A                      A                      A
 Frequencies --   1507.5885              1517.7539              1612.0222
 Red. masses --      1.3593                 2.6812                 8.2395
 Frc consts  --      1.8202                 3.6389                12.6152
 IR Inten    --    121.5597                12.3275                26.1603

                     73                     74                     75
                      A                      A                      A
 Frequencies --   1783.0003              2996.2115              2999.6991
 Red. masses --      7.9041                 1.0415                 1.0431
 Frc consts  --     14.8049                 5.5090                 5.5302
 IR Inten    --    589.6772                84.0105               106.7634

                     76                     77                     78
                      A                      A                      A
 Frequencies --   3000.9018              3030.3994              3036.7030
 Red. masses --      1.0519                 1.0984                 1.0979
 Frc consts  --      5.5810                 5.9430                 5.9649
 IR Inten    --     37.6761                57.8468                16.2600

                     79                     80                     81
                      A                      A                      A
 Frequencies --   3057.4893              3064.1862              3064.7645
 Red. masses --      1.0671                 1.0580                 1.0807
 Frc consts  --      5.8773                 5.8529                 5.9807
 IR Inten    --     20.7833                20.9266                24.3263

                     82                     83                     84
                      A                      A                      A
 Frequencies --   3081.5245              3114.3058              3118.1498
 Red. masses --      1.0779                 1.1027                 1.0950
 Frc consts  --      6.0308                 6.3011                 6.2727
 IR Inten    --   2227.5452                12.8520                 2.6853

                     85                     86                     87
                      A                      A                      A
 Frequencies --   3119.1048              3124.9371              3133.0219
 Red. masses --      1.1002                 1.0940                 1.1012
 Frc consts  --      6.3062                 6.2945                 6.3687
 IR Inten    --      9.6313                 9.6219                10.0949

 - Thermochemistry -
 -------------------
 Temperature   298.150 Kelvin.  Pressure   1.00000 Atm.
 Atom     1 has atomic number  6 and mass  12.00000

 Molecular mass:   254.06128 amu.
 Principal axes and moments of inertia in atomic units:
                           1         2         3
     Eigenvalues --  2456.780186888.526589001.00510
           X            0.72385  -0.68987  -0.01085
           Y            0.66546   0.70223  -0.25306
           Z            0.18220   0.17595   0.96739
 This molecule is an asymmetric top.
 Rotational symmetry number  1.
 Warning -- assumption of classical behavior for rotation
           may cause significant error
 Rotational temperatures (Kelvin)      0.03526     0.01257     0.00962
 Rotational constants (GHZ):           0.73460     0.26199     0.20050
 Zero-point vibrational energy     626077.7 (Joules/Mol)
                                  149.63616 (Kcal/Mol)
 Warning -- explicit consideration of  28 degrees of freedom as
           vibrations may cause significant error
 Vibrational temperatures:     45.19    79.01    84.51   118.66   125.77
          (Kelvin)            139.38   161.73   166.48   179.63   231.02
                              243.66   308.47   314.97   374.43   421.33
                              452.13   465.35   479.36   497.28   546.79
                              594.93   610.67   640.71   655.22   760.70
                              806.33   855.06   882.08   946.32   990.92
                             1011.88  1036.94  1101.45  1149.09  1174.61
                             1273.73  1324.86  1383.03  1409.77  1429.17
                             1456.24  1459.77  1477.20  1501.73  1514.81
                             1521.96  1602.66  1618.02  1665.63  1749.60
                             1784.56  1832.04  1843.92  1868.17  1925.82
                             1974.56  1999.65  2003.39  2035.30  2060.34
                             2109.02  2114.09  2121.60  2125.69  2131.33
                             2140.23  2146.68  2156.19  2166.33  2169.08
                             2183.71  2319.34  2565.34  4310.88  4315.90
                             4317.63  4360.07  4369.14  4399.05  4408.68
                             4409.51  4433.63  4480.79  4486.32  4487.70
                             4496.09  4507.72

 Zero-point correction=                           0.238460 (Hartree/Particle)
 Thermal correction to Energy=                    0.256438
 Thermal correction to Enthalpy=                  0.257382
 Thermal correction to Gibbs Free Energy=         0.190986
 Sum of electronic and zero-point Energies=          -1164.901615
 Sum of electronic and thermal Energies=             -1164.883638
 Sum of electronic and thermal Enthalpies=           -1164.882693
 Sum of electronic and thermal Free Energies=        -1164.949090

                     E (Thermal)             CV                S
                      KCal/Mol        Cal/Mol-Kelvin    Cal/Mol-Kelvin
 Total                  160.917             65.125            139.743
 Electronic               0.000              0.000              1.377
 Translational            0.889              2.981             42.497
 Rotational               0.889              2.981             33.387
 Vibrational            159.140             59.163             62.480
 Vibration     1          0.594              1.983              5.739
 Vibration     2          0.596              1.976              4.632
 Vibration     3          0.596              1.974              4.499
 Vibration     4          0.600              1.961              3.831
 Vibration     5          0.601              1.958              3.717
 Vibration     6          0.603              1.951              3.516
 Vibration     7          0.607              1.939              3.227
 Vibration     8          0.608              1.936              3.171
 Vibration     9          0.610              1.928              3.024
 Vibration    10          0.622              1.891              2.543
 Vibration    11          0.625              1.880              2.443
 Vibration    12          0.644              1.819              2.006
 Vibration    13          0.647              1.812              1.968
 Vibration    14          0.668              1.745              1.660
 Vibration    15          0.688              1.687              1.457
 Vibration    16          0.702              1.646              1.340
 Vibration    17          0.708              1.629              1.293
 Vibration    18          0.715              1.609              1.245
 Vibration    19          0.724              1.584              1.186
 Vibration    20          0.750              1.513              1.039
 Vibration    21          0.777              1.441              0.914
 Vibration    22          0.786              1.417              0.877
 Vibration    23          0.805              1.371              0.810
 Vibration    24          0.814              1.349              0.780
 Vibration    25          0.884              1.186              0.590
 Vibration    26          0.916              1.117              0.523
 Vibration    27          0.952              1.044              0.460
 Vibration    28          0.972              1.004              0.428

 Optimization completed.
    -- Stationary point found.
 Normal termination of Gaussian 16 at Sat Jan  6 07:25:40 2024.
