 Q-Chem 5.4, Q-Chem, Inc., Pleasanton, CA (2021)
 Q-Chem 5.4.0 for Intel X86 EM64T Linux

User input:
--------------------------------------------------------------
$molecule
0 1
C                 -3.8078290000      0.0276940000     -0.0518960000
O                 -2.6401080000      0.8624090000     -0.2293250000
C                 -1.3792580000      0.4486450000     -0.1823640000
C                 -0.3905000000      1.3807570000     -0.1431700000
Cl                -0.7640530000      3.0738050000     -0.1349540000
C                  1.0328510000      1.0251420000     -0.1135950000
O                  1.9147820000      1.8636310000     -0.1291890000
C                  1.3869450000     -0.4464180000     -0.0621450000
C                  0.4000410000     -1.3779700000     -0.1432920000
Cl                 0.7733730000     -3.0711150000     -0.1453050000
C                 -1.0197970000     -1.0214020000     -0.2420860000
O                 -1.8949580000     -1.8574320000     -0.3695710000
O                  2.6465220000     -0.8612370000      0.0034590000
C                  3.7949370000     -0.0314310000      0.2932290000
H                 -3.7235820000     -0.5795530000      0.8480660000
H                 -4.6211610000      0.7441580000      0.0465620000
H                 -3.9610840000     -0.6152550000     -0.9155080000
H                  4.0176660000      0.6299390000     -0.5409370000
H                  3.6371550000      0.5563770000      1.1961450000
H                  4.5980560000     -0.7507420000      0.4417790000
$end
$rem
MAX_SCF_CYCLES=200
BASIS  =  6-311++G(d,p)
GUI  =  2
JOB_TYPE  =  SP
METHOD  =  B3LYP
SOLVENT_METHOD = PCM
$end
$pcm
theory = CPCM
$end
$solvent
dielectric 37.219
opticaldielectric 1.43
$end

--------------------------------------------------------------

             Standard Nuclear Orientation (Angstroms)
    I     Atom           X                Y                Z
 ----------------------------------------------------------------
    1      C      -3.8078290000     0.0276940000    -0.0518960000
    2      O      -2.6401080000     0.8624090000    -0.2293250000
    3      C      -1.3792580000     0.4486450000    -0.1823640000
    4      C      -0.3905000000     1.3807570000    -0.1431700000
    5      Cl     -0.7640530000     3.0738050000    -0.1349540000
    6      C       1.0328510000     1.0251420000    -0.1135950000
    7      O       1.9147820000     1.8636310000    -0.1291890000
    8      C       1.3869450000    -0.4464180000    -0.0621450000
    9      C       0.4000410000    -1.3779700000    -0.1432920000
   10      Cl      0.7733730000    -3.0711150000    -0.1453050000
   11      C      -1.0197970000    -1.0214020000    -0.2420860000
   12      O      -1.8949580000    -1.8574320000    -0.3695710000
   13      O       2.6465220000    -0.8612370000     0.0034590000
   14      C       3.7949370000    -0.0314310000     0.2932290000
   15      H      -3.7235820000    -0.5795530000     0.8480660000
   16      H      -4.6211610000     0.7441580000     0.0465620000
   17      H      -3.9610840000    -0.6152550000    -0.9155080000
   18      H       4.0176660000     0.6299390000    -0.5409370000
   19      H       3.6371550000     0.5563770000     1.1961450000
   20      H       4.5980560000    -0.7507420000     0.4417790000
 ----------------------------------------------------------------

    9   -1529.9210943687      4.74e-06  Convergence criterion met
 Total energy in the final basis set =    -1529.9210943687

                    Orbital Energies (a.u.)
 --------------------------------------------------------------

 Alpha MOs
 -- Occupied --
********-101.5738 -19.1955 -19.1954 -19.1507 -19.1506 -10.3083 -10.3082
-10.2939 -10.2938 -10.2571 -10.2570 -10.2305 -10.2304  -9.4882  -9.4882
 -7.2529  -7.2529  -7.2432  -7.2432  -7.2425  -7.2425  -1.1171  -1.1143
 -1.0827  -1.0815  -0.9121  -0.8968  -0.8367  -0.7913  -0.7446  -0.7225
 -0.6904  -0.6277  -0.6182  -0.5783  -0.5526  -0.5386  -0.5069  -0.4916
 -0.4871  -0.4842  -0.4737  -0.4671  -0.4503  -0.4450  -0.4370  -0.4236
 -0.3991  -0.3873  -0.3795  -0.3788  -0.3558  -0.3532  -0.3361  -0.3305
 -0.2987  -0.2978  -0.2778  -0.2501

          Ground-State Mulliken Net Atomic Charges

     Atom                 Charge (a.u.)
  ----------------------------------------
      1 C                    -0.278893
      2 O                    -0.155752
      3 C                    -1.302885
      4 C                     1.644453
      5 Cl                    0.274754
      6 C                    -0.528127
      7 O                    -0.252919
      8 C                    -1.300551
      9 C                     1.648246
     10 Cl                    0.273691
     11 C                    -0.525838
     12 O                    -0.253292
     13 O                    -0.157169
     14 C                    -0.276878
     15 H                     0.198701
     16 H                     0.190431
     17 H                     0.205917
     18 H                     0.205959
     19 H                     0.199020
     20 H                     0.191133
  ----------------------------------------
  Sum of atomic charges =     0.000000

                    Cartesian Multipole Moments
 -----------------------------------------------------------------
    Charge (ESU x 10^10)
                 0.0000
    Dipole Moment (Debye)
         X      -0.0410      Y      -0.0081      Z       1.2064
       Tot       1.2072
    Quadrupole Moments (Debye-Ang)
        XX     -73.7053     XY      -3.3241     YY    -113.3713
        XZ       0.6686     YZ      -0.4685     ZZ     -91.9997

 Total job time:  25.00s(wall), 185.60s(cpu)
        *  Thank you very much for using Q-Chem.  Have a nice day.  *
