 Gaussian 16, Revision A.03,
 Gaussian 16:  ES64L-G16RevA.03 25-Dec-2016

 ----------------------------------------------------------------
 #P UB3LYP/6-311++G(d,p) SCRF=(PCM,Solvent=n,n-DiMethylFormamide)
 ----------------------------------------------------------------

 ------------------
 Radical PCM in DMF
 ------------------
 Symbolic Z-matrix:
 Charge = -1 Multiplicity = 2

                         Standard orientation:
 ---------------------------------------------------------------------
 Center     Atomic      Atomic             Coordinates (Angstroms)
 Number     Number       Type             X           Y           Z
 ---------------------------------------------------------------------
      1          6           0        0.276161    1.393642   -0.000256
      2          6           0        1.471445    0.705454   -0.000001
      3          6           0        1.471462   -0.705487    0.000031
      4          6           0       -0.951582    0.710016   -0.000556
      5          6           0       -0.951561   -0.710014   -0.000549
      6          6           0        0.276169   -1.393658   -0.000220
      7          6           0       -2.209513    1.481269   -0.001101
      8          6           0       -3.409353    0.688749    0.000345
      9          6           0       -3.409342   -0.688762    0.000336
     10          6           0       -2.209491   -1.481272   -0.001136
     11          8           0       -2.213995    2.740060    0.000740
     12          8           0       -2.213971   -2.740069    0.000654
     13          1           0        0.256322    2.476408   -0.000339
     14          1           0        0.256204   -2.476413   -0.000269
     15         17           0        2.984591   -1.615719    0.000184
     16         17           0        2.984558    1.615747    0.000125
     17          1           0       -4.345359    1.240155    0.001440
     18          1           0       -4.345344   -1.240176    0.001407
 ---------------------------------------------------------------------

 SCF Done:  E(UB3LYP) =  -1454.65513821     A.U. after   19 cycles

 The electronic state is 2-A.
 Alpha  occ. eigenvalues -- -101.56377-101.56377 -19.08337 -19.08337 -10.25132
 Alpha  occ. eigenvalues --  -10.25085 -10.22913 -10.22911 -10.19121 -10.19120
 Alpha  occ. eigenvalues --  -10.18779 -10.18734 -10.16936 -10.16875  -9.47822
 Alpha  occ. eigenvalues --   -9.47821  -7.24283  -7.24283  -7.23315  -7.23315
 Alpha  occ. eigenvalues --   -7.23263  -7.23263  -1.00835  -1.00588  -0.91725
 Alpha  occ. eigenvalues --   -0.86272  -0.85140  -0.80151  -0.76120  -0.73640
 Alpha  occ. eigenvalues --   -0.68218  -0.63444  -0.61600  -0.57414  -0.51493
 Alpha  occ. eigenvalues --   -0.50841  -0.49092  -0.46305  -0.44643  -0.43665
 Alpha  occ. eigenvalues --   -0.43335  -0.43051  -0.41012  -0.40329  -0.40327
 Alpha  occ. eigenvalues --   -0.38478  -0.36940  -0.36383  -0.35438  -0.33690
 Alpha  occ. eigenvalues --   -0.33013  -0.31730  -0.28246  -0.26652  -0.25393
 Alpha  occ. eigenvalues --   -0.25169  -0.24507  -0.16127
 Alpha virt. eigenvalues --   -0.04857  -0.03018  -0.01550  -0.00024   0.01281
 Alpha virt. eigenvalues --    0.01472   0.02651   0.03903   0.03904   0.03969
 Alpha virt. eigenvalues --    0.04794   0.05118   0.05399   0.06879   0.06984

  Beta  occ. eigenvalues -- -101.56375-101.56375 -19.07691 -19.07691 -10.25095
  Beta  occ. eigenvalues --  -10.25047 -10.22771 -10.22769 -10.19121 -10.19120
  Beta  occ. eigenvalues --  -10.18722 -10.18676 -10.16786 -10.16724  -9.47820
  Beta  occ. eigenvalues --   -9.47819  -7.24284  -7.24283  -7.23306  -7.23306
  Beta  occ. eigenvalues --   -7.23262  -7.23262  -0.99722  -0.99443  -0.91650
  Beta  occ. eigenvalues --   -0.86235  -0.84890  -0.79680  -0.75961  -0.73447
  Beta  occ. eigenvalues --   -0.67243  -0.63346  -0.61268  -0.57109  -0.51377
  Beta  occ. eigenvalues --   -0.50597  -0.48773  -0.46152  -0.44602  -0.43383
  Beta  occ. eigenvalues --   -0.42769  -0.42676  -0.40475  -0.40165  -0.39047
  Beta  occ. eigenvalues --   -0.36722  -0.36142  -0.36108  -0.35047  -0.33674
  Beta  occ. eigenvalues --   -0.32325  -0.31713  -0.26067  -0.25386  -0.24850
  Beta  occ. eigenvalues --   -0.24564  -0.23918
  Beta virt. eigenvalues --   -0.09393  -0.04213  -0.01852  -0.01511  -0.00001
  Beta virt. eigenvalues --    0.01291   0.01496   0.02683   0.03925   0.04004
  Beta virt. eigenvalues --    0.04825   0.05101   0.05676   0.05717   0.06899

 Mulliken charges and spin densities:
               1          2
     1  C   -0.716605   0.031846
     2  C    0.690371   0.017285
     3  C    0.690334   0.017283
     4  C   -0.333208   0.022415
     5  C   -0.333043   0.022410
     6  C   -0.716517   0.031848
     7  C   -0.691642   0.082575
     8  C    0.071241   0.122964
     9  C    0.071289   0.122968
    10  C   -0.691686   0.082575
    11  O   -0.478954   0.232959
    12  O   -0.478953   0.232959
    13  H    0.216983  -0.002335
    14  H    0.216976  -0.002335
    15  Cl   0.553566   0.002288
    16  Cl   0.553575   0.002288
    17  H    0.188137  -0.009997
    18  H    0.188136  -0.009997
 Sum of Mulliken charges =  -1.00000   1.00000

 Dipole moment (field-independent basis, Debye):
    X=              6.1157    Y=             -0.0000    Z=             -0.0037  Tot=              6.1157
 Quadrupole moment (field-independent basis, Debye-Ang):
   XX=           -122.6209   YY=           -134.3195   ZZ=            -98.2794
   XY=             -0.0001   XZ=              0.0038   YZ=             -0.0007

 Normal termination of Gaussian 16 at Sun Jan 21 08:13:40 2024.
