 Q-Chem 5.4, Q-Chem, Inc., Pleasanton, CA (2021)
 Q-Chem 5.4.0 for Intel X86 EM64T Linux

User input:
--------------------------------------------------------------
$molecule
-3 1
C                  2.7527440000      0.5738170000      0.2065040000
C                  2.6973260000     -0.6080330000      0.9892110000
C                  1.4977010000     -1.2623480000      1.1575380000
C                 -0.9387080000     -1.5428970000      0.7901380000
O                 -0.9739620000     -2.6047590000      1.5001050000
C                 -2.1185450000     -1.0048190000      0.1355250000
C                 -3.3601380000     -1.6789790000      0.2621810000
C                 -4.5196710000     -1.2020020000     -0.3170090000
C                 -4.4814130000      0.0001680000     -1.0714560000
C                 -3.2811350000      0.6675910000     -1.2294230000
C                 -2.0728670000      0.1970150000     -0.6601830000
C                 -0.8384360000      0.9439830000     -0.8812040000
O                 -0.8078000000      2.0012650000     -1.5841860000
C                  0.3512640000      0.3973240000     -0.2286450000
C                  1.6025680000      1.0561270000     -0.3836200000
H                  3.6068930000     -0.9839890000      1.4450990000
H                  1.4323350000     -2.1682950000      1.7517000000
H                 -3.3600880000     -2.5934860000      0.8466750000
H                 -5.4621120000     -1.7368090000     -0.1977740000
H                 -5.3951170000      0.3841720000     -1.5240550000
H                 -3.2218880000      1.5858870000     -1.8048930000
H                  1.6339520000      1.9562110000     -0.9846440000
C                  0.2937640000     -0.7977040000      0.5678280000
S                  4.3679930000      1.4067550000      0.0324660000
O                  5.2905590000      0.3747370000     -0.5415660000
O                  4.1553670000      2.5726290000     -0.8726130000
O                  4.7694980000      1.8041590000      1.4203110000
$end

$rem
BASIS  =  6-311++G(d,p)
GUI  =  2
JOB_TYPE  =  SP
METHOD  =  B3LYP
SCF_CONVERGENCE  = 8
SOLVENT_METHOD = sm12
$end

$smx
solvent dimethylformamide
charges CM5
$end

--------------------------------------------------------------

             Standard Nuclear Orientation (Angstroms)
    I     Atom           X                Y                Z
 ----------------------------------------------------------------
    1      C       2.7527440000     0.5738170000     0.2065040000
    2      C       2.6973260000    -0.6080330000     0.9892110000
    3      C       1.4977010000    -1.2623480000     1.1575380000
    4      C      -0.9387080000    -1.5428970000     0.7901380000
    5      O      -0.9739620000    -2.6047590000     1.5001050000
    6      C      -2.1185450000    -1.0048190000     0.1355250000
    7      C      -3.3601380000    -1.6789790000     0.2621810000
    8      C      -4.5196710000    -1.2020020000    -0.3170090000
    9      C      -4.4814130000     0.0001680000    -1.0714560000
   10      C      -3.2811350000     0.6675910000    -1.2294230000
   11      C      -2.0728670000     0.1970150000    -0.6601830000
   12      C      -0.8384360000     0.9439830000    -0.8812040000
   13      O      -0.8078000000     2.0012650000    -1.5841860000
   14      C       0.3512640000     0.3973240000    -0.2286450000
   15      C       1.6025680000     1.0561270000    -0.3836200000
   16      H       3.6068930000    -0.9839890000     1.4450990000
   17      H       1.4323350000    -2.1682950000     1.7517000000
   18      H      -3.3600880000    -2.5934860000     0.8466750000
   19      H      -5.4621120000    -1.7368090000    -0.1977740000
   20      H      -5.3951170000     0.3841720000    -1.5240550000
   21      H      -3.2218880000     1.5858870000    -1.8048930000
   22      H       1.6339520000     1.9562110000    -0.9846440000
   23      C       0.2937640000    -0.7977040000     0.5678280000
   24      S       4.3679930000     1.4067550000     0.0324660000
   25      O       5.2905590000     0.3747370000    -0.5415660000
   26      O       4.1553670000     2.5726290000    -0.8726130000
   27      O       4.7694980000     1.8041590000     1.4203110000
 ----------------------------------------------------------------

   19   -1312.1369817729      7.36e-09  Convergence criterion met
 Total energy in the final basis set =    -1312.6688620838

                    Orbital Energies (a.u.)
 --------------------------------------------------------------

 Alpha MOs
 -- Occupied --
-89.0241 -19.0693 -19.0676 -19.0676 -19.0324 -19.0314 -10.1922 -10.1891
-10.1804 -10.1760 -10.1751 -10.1721 -10.1719 -10.1718 -10.1687 -10.1683
-10.1555 -10.1552 -10.1548 -10.1535  -8.0825  -6.0453  -6.0452  -6.0442
 -1.0815  -0.9564  -0.9513  -0.9466  -0.9418  -0.8480  -0.8441  -0.7724
 -0.7447  -0.7441  -0.7303  -0.6531  -0.6385  -0.6148  -0.5869  -0.5685
 -0.5456  -0.5229  -0.5071  -0.4702  -0.4582  -0.4549  -0.4469  -0.4284
 -0.4249  -0.4231  -0.4214  -0.4032  -0.3978  -0.3915  -0.3836  -0.3687
 -0.3623  -0.3479  -0.3390  -0.3378  -0.3242  -0.3188  -0.3083  -0.3080
 -0.2750  -0.2720  -0.2689  -0.2552  -0.2436  -0.2390  -0.2303  -0.2292
 -0.2105  -0.2036  -0.1163

          Ground-State Mulliken Net Atomic Charges

     Atom                 Charge (a.u.)
  ----------------------------------------
      1 C                    -0.935446
      2 C                     0.345085
      3 C                    -0.682371
      4 C                    -2.489287
      5 O                    -0.239376
      6 C                    -0.490731
      7 C                     0.773668
      8 C                     2.646866
      9 C                     2.476741
     10 C                     0.237431
     11 C                    -0.498810
     12 C                    -2.159021
     13 O                    -0.292741
     14 C                    -1.935246
     15 C                    -0.654337
     16 H                     0.224339
     17 H                     0.173840
     18 H                     0.155340
     19 H                     0.472763
     20 H                     0.457391
     21 H                     0.121573
     22 H                     0.044491
     23 C                    -1.377712
     24 S                     1.373339
     25 O                    -0.217426
     26 O                    -0.325763
     27 O                    -0.204601
  ----------------------------------------
  Sum of atomic charges =    -3.000000

                    Cartesian Multipole Moments
 -----------------------------------------------------------------
    Charge (ESU x 10^10)
               -14.4096
    Dipole Moment (Debye)
         X     -15.3136      Y      -4.9083      Z       0.3142
       Tot      16.0840
    Quadrupole Moments (Debye-Ang)
        XX    -303.7424     XY     -45.8432     YY    -193.4130
        XZ      -5.1132     YZ      20.4221     ZZ    -162.5557

 Total job time:  762.48s(wall), 5947.04s(cpu)
        *  Thank you very much for using Q-Chem.  Have a nice day.  *
