 Q-Chem 5.4, Q-Chem, Inc., Pleasanton, CA (2021)
 Q-Chem 5.4.0 for Intel X86 EM64T Linux

User input:
--------------------------------------------------------------
$molecule
0 1
C                 -5.9309310000     -2.7566450000      3.4706350000
C                 -6.6567290000     -3.1000250000      2.3346720000
C                 -7.5396140000     -2.1813090000      1.7612870000
C                 -6.0848490000     -1.4900320000      4.0396910000
C                 -6.9696860000     -0.5684090000      3.4638900000
C                 -7.6964880000     -0.9185820000      2.3233930000
C                 -5.3086080000     -1.1263170000      5.2586530000
C                 -5.5002310000      0.2351980000      5.8504690000
C                 -6.3383320000      1.1335670000      5.2771170000
C                 -7.1361020000      0.7852390000      4.0632650000
O                 -4.5304820000     -1.9208290000      5.7645350000
O                 -7.9096240000      1.5968150000      3.5758540000
H                 -6.5366780000     -4.0831760000      1.8938910000
H                 -8.1037730000     -2.4524180000      0.8761170000
C                 -4.7032150000      0.5380200000      7.0897800000
H                 -5.2417660000     -3.4534110000      3.9314080000
H                 -8.3749000000     -0.1909350000      1.8954970000
H                 -3.8885300000      1.2358750000      6.8661510000
H                 -4.2587300000     -0.3738510000      7.4844270000
H                 -5.3311350000      0.9978450000      7.8552670000
C                 -6.5559250000      2.5260980000      5.8310060000
C                 -7.6682280000      2.5570900000      6.8566020000
C                 -7.6564070000      3.1117460000      8.0766080000
C                 -8.9001750000      3.0583030000      8.9406350000
C                 -9.5769890000      4.4341410000      9.1639120000
C                -10.7737420000      4.3371590000     10.0693310000
C                -12.0633960000      4.5697110000      9.7862360000
C                 -6.4744410000      3.8286540000      8.6821190000
C                -13.1191800000      4.3957500000     10.8595260000
C                -14.0731230000      3.1972450000     10.6253930000
C                -15.1319560000      3.0982720000     11.6885170000
C                -15.3362320000      2.1225620000     12.5850240000
C                -12.5750170000      5.0199470000      8.4396190000
C                -14.5114240000      0.8619340000     12.6788920000
C                -16.4673220000      2.2364830000     13.5873870000
C                -16.0012350000      2.4475590000     15.0501140000
C                -17.1553600000      2.5008450000     16.0125650000
C                -17.5639190000      3.5204050000     16.7813730000
C                -16.8860130000      4.8675260000     16.8450670000
C                -18.7761000000      3.3588260000     17.6767120000
C                -20.0076710000      4.1894220000     17.2355080000
C                -21.1632500000      4.0413770000     18.1862220000
C                -22.3738160000      3.5097750000     17.9639660000
C                -22.8332500000      2.9559460000     16.6371610000
C                -23.3933110000      3.4476620000     19.0837450000
C                -23.6943490000      2.0144970000     19.5904860000
C                -24.7467740000      1.9999790000     20.6644200000
C                -24.6341860000      1.6300010000     21.9481380000
C                -23.3665250000      1.1064270000     22.5784080000
C                -25.8342720000      1.7100110000     22.8704070000
C                -25.7266960000      2.8063010000     23.9603000000
C                -26.9092940000      2.8027280000     24.8890290000
C                -27.8344360000      3.7543940000     25.0785630000
C                -27.8441470000      5.0890600000     24.3736830000
C                -28.9619000000      3.5313680000     26.0665310000
H                 -6.8350310000      3.1758430000      4.9962100000
H                 -5.6226010000      2.9064220000      6.2463360000
H                 -8.5893910000      2.0812360000      6.5273750000
H                 -8.6406130000      2.6354510000      9.9206680000
H                 -9.6307300000      2.3802070000      8.4909580000
H                 -9.8390700000      4.8576540000      8.1918290000
H                 -8.8512210000      5.1206800000      9.6166360000
H                -10.5405760000      4.0239530000     11.0873650000
H                 -5.5602220000      3.7176120000      8.0990810000
H                 -6.2774810000      3.4570300000      9.6940150000
H                 -6.6708310000      4.9020680000      8.7765170000
H                -13.7222620000      5.3114500000     10.9265240000
H                -12.6356230000      4.2690650000     11.8324050000
H                -13.4783850000      2.2833590000     10.5613910000
H                -14.5649760000      3.3161680000      9.6522950000
H                -15.8099300000      3.9514850000     11.7252650000
H                -11.7806150000      5.1751680000      7.7103930000
H                -13.1296500000      5.9605220000      8.5383580000
H                -13.2726960000      4.2896800000      8.0163310000
H                -13.7349680000      0.8020040000     11.9169740000
H                -15.1529790000     -0.0211380000     12.5751040000
H                -14.0228990000      0.7789940000     13.6555600000
H                -17.0815720000      1.3266690000     13.5465400000
H                -17.1219530000      3.0673160000     13.3089600000
H                -15.3944070000      3.3545080000     15.0966920000
H                -15.3434040000      1.6188100000     15.3390390000
H                -17.7325000000      1.5775180000     16.0705060000
H                -15.9958210000      4.9273030000     16.2197950000
H                -16.5890700000      5.0958060000     17.8755480000
H                -17.5640620000      5.6683950000     16.5315810000
H                -18.5109520000      3.6492670000     18.7024390000
H                -19.0652190000      2.3046810000     17.7162010000
H                -20.2807720000      3.8977860000     16.2189620000
H                -19.7268920000      5.2487020000     17.1895360000
H                -20.9655230000      4.4138410000     19.1917850000
H                -22.0861600000      3.0574740000     15.8506890000
H                -23.7432480000      3.4694410000     16.3048610000
H                -23.0864880000      1.8934260000     16.7168490000
H                -24.3345610000      3.9004620000     18.7434350000
H                -23.0461980000      4.0483710000     19.9293360000
H                -22.7616020000      1.5612220000     19.9332460000
H                -24.0452260000      1.4040200000     18.7495300000
H                -25.7255320000      2.3516090000     20.3366990000
H                -22.5395220000      1.0292390000     21.8733730000
H                -23.5371730000      0.1116460000     23.0067780000
H                -23.0386340000      1.7485280000     23.4027920000
H                -25.9756930000      0.7401470000     23.3665000000
H                -26.7378560000      1.8937880000     22.2820590000
H                -25.5995560000      3.7747340000     23.4714930000
H                -24.8185290000      2.6353640000     24.5511110000
H                -27.0170790000      1.8875190000     25.4719230000
H                -26.9924860000      5.2263420000     23.7082290000
H                -27.8344860000      5.9059190000     25.1050000000
H                -28.7535290000      5.2160600000     23.7767150000
H                -29.0010520000      4.3749310000     26.7691560000
H                -28.7551160000      2.6382280000     26.6630980000
C                -30.3583350000      3.3728310000     25.4136270000
C                -31.4472180000      3.2023190000     26.4366040000
C                -32.2432620000      2.1448690000     26.6501110000
C                -32.2098090000      0.8725660000     25.8386760000
C                -33.2725190000      2.1805150000     27.7621390000
C                -32.9535090000      1.2400430000     28.9518570000
C                -34.0302160000      1.2630060000     30.0013150000
C                -33.9590480000      1.6880730000     31.2708500000
C                -32.7088450000      2.2274530000     31.9222680000
C                -35.1845450000      1.6327540000     32.1609210000
C                -35.7743510000      3.0202770000     32.5183340000
C                -36.9489290000      2.9165290000     33.4514110000
C                -38.2250710000      3.2610520000     33.2329600000
C                -38.7502880000      3.8580480000     31.9514160000
C                -39.2716530000      3.0715920000     34.3044030000
H                -30.3252600000      2.5334810000     24.7154930000
H                -30.5772280000      4.2656690000     24.8153620000
H                -31.5839420000      4.0627350000     27.0923470000
H                -31.4802960000      0.9011060000     25.0299950000
H                -33.1941080000      0.6769910000     25.3969440000
H                -31.9728020000      0.0073240000     26.4668390000
H                -34.2557740000      1.9062940000     27.3563400000
H                -33.3661760000      3.2015090000     28.1431610000
H                -31.9808930000      1.5162330000     29.3650250000
H                -32.8516770000      0.2136180000     28.5790010000
H                -34.9957060000      0.8880880000     29.6603940000
H                -31.8448710000      2.2212580000     31.2585460000
H                -32.4558410000      1.6348870000     32.8094600000
H                -32.8534910000      3.2570820000     32.2662420000
H                -34.9315470000      1.1122390000     33.0946180000
H                -35.9645940000      1.0394440000     31.6752800000
H                -36.0389870000      3.5383480000     31.5937990000
H                -34.9976220000      3.6262620000     33.0005890000
H                -36.7117910000      2.4904250000     34.4264770000
H                -37.9874910000      3.9676520000     31.1812210000
H                -39.1854100000      4.8470710000     32.1383410000
H                -39.5559590000      3.2371750000     31.5422620000
H                -38.8489450000      2.6380430000     35.2129880000
H                -40.0772230000      2.4147010000     33.9549050000
H                -39.7407300000      4.0270910000     34.5684500000
$end
$rem
MAX_SCF_CYCLES=200
SCF_algorithm=DIIS_GDM
BASIS  =  6-311++G(d,p)
GUI  =  2
JOB_TYPE  =  SP
METHOD  =  B3LYP
THRESH = 14
SCF_CONVERGENCE = 8
SOLVENT_METHOD = COSMO
$end
$solvent
dielectric 37.219
opticaldielectric 1.43
$end

--------------------------------------------------------------

             Standard Nuclear Orientation (Angstroms)
    I     Atom           X                Y                Z
 ----------------------------------------------------------------
    1      C     -19.6084241697     4.1368582506     0.5191947160
    2      C     -19.8485193185     4.8705239348    -0.6380405591
    3      C     -19.5365224309     4.3311897319    -1.8886691730
    4      C     -19.0541259071     2.8574844790     0.4309894882
    5      C     -18.7421684293     2.3163610602    -0.8234985508
    6      C     -18.9848752824     3.0576356399    -1.9824640658
    7      C     -18.7947929947     2.0753521781     1.6726506953
    8      C     -18.1929092628     0.7105436441     1.5472621551
    9      C     -17.9149973152     0.1795830757     0.3310966703
   10      C     -18.1542477223     0.9513312237    -0.9252353261
   11      O     -19.0687076955     2.5361758692     2.7704932388
   12      O     -17.8705662409     0.4694454838    -2.0123748396
   13      H     -20.2785782909     5.8632509467    -0.5685540033
   14      H     -19.7248117294     4.9058944302    -2.7884263880
   15      C     -17.9381439279    -0.0230503288     2.8355796353
   16      H     -19.8421692117     4.5358531808     1.4984338668
   17      H     -18.7356168661     2.6200463440    -2.9412100359
   18      H     -18.6589551267    -0.8378269787     2.9670840328
   19      H     -18.0450232065     0.6530055382     3.6819525880
   20      H     -16.9386018319    -0.4618403672     2.8440533965
   21      C     -17.3178712308    -1.2005893966     0.1526402051
   22      C     -15.8051600835    -1.1676239921     0.1780151896
   23      C     -14.9702108061    -1.9447408407     0.8816818452
   24      C     -13.4723936352    -1.7667908529     0.7359589124
   25      C     -12.7576488276    -2.9519401943     0.0392373683
   26      C     -11.2689160400    -2.7525850417    -0.0338312782
   27      C     -10.4929339177    -2.6012038961    -1.1165898598
   28      C     -15.4062107314    -3.0358260899     1.8288256150
   29      C      -8.9996126854    -2.3973696438    -0.9574138468
   30      C      -8.5058289696    -0.9807525373    -1.3455032174
   31      C      -7.0135847425    -0.8452144601    -1.2190428981
   32      C      -6.3065473615    -0.0526508287    -0.4008714483
   33      C     -10.9960198745    -2.6294175520    -2.5392473582
   34      C      -6.9129031211     0.9226424945     0.5786376222
   35      C      -4.7916513978    -0.0890171567    -0.4298865377
   36      C      -4.1463025870    -0.7004310864     0.8393882019
   37      C      -2.6439230205    -0.6655637529     0.7865133670
   38      C      -1.7786076011    -1.6892618473     0.7589411454
   39      C      -2.1753582112    -3.1448497657     0.8058583516
   40      C      -0.2882071989    -1.4228408475     0.6893066217
   41      C       0.3665218856    -1.8205391454    -0.6577211073
   42      C       1.8527630489    -1.5920149554    -0.6566458104
   43      C       2.5754973019    -0.7476726447    -1.4064522643
   44      C       2.0004401140     0.1594776923    -2.4669262935
   45      C       4.0783072715    -0.6682037143    -1.2265079033
   46      C       4.5744420835     0.6610464385    -0.6033574279
   47      C       6.0731092619     0.7127377563    -0.4916968459
   48      C       6.8332339337     0.7748908511     0.6109541224
   49      C       6.2927921114     0.8341815262     2.0190527233
   50      C       8.3439480731     0.8037948954     0.4922298159
   51      C       9.0458995620    -0.4837881300     0.9929145183
   52      C      10.5441149497    -0.3812022203     0.9160046058
   53      C      11.4004329860    -1.0967420374     0.1729021743
   54      C      10.9969926520    -2.2165374948    -0.7553098058
   55      C      12.8873513091    -0.8115494725     0.2417174213
   56      H     -17.6407218199    -1.5788118888    -0.8218690711
   57      H     -17.7128835934    -1.8732086668     0.9140780512
   58      H     -15.3658596449    -0.4249036329    -0.4843671110
   59      H     -13.0271637247    -1.6285154354     1.7305900816
   60      H     -13.2643825372    -0.8542316235     0.1705376238
   61      H     -13.1956526447    -3.0918464017    -0.9515067863
   62      H     -12.9596803547    -3.8719590645     0.6011826941
   63      H     -10.7735721853    -2.7195831613     0.9369431285
   64      H     -16.4792430262    -3.0346733629     2.0202946221
   65      H     -14.8908834047    -2.9373562690     2.7908924498
   66      H     -15.1476656976    -4.0250509875     1.4360327975
   67      H      -8.4656040009    -3.1323537256    -1.5749381338
   68      H      -8.7112990143    -2.5930690923     0.0793826439
   69      H      -9.0315660443    -0.2460648651    -0.7316370119
   70      H      -8.7885066049    -0.7756263946    -2.3852139422
   71      H      -6.4473004340    -1.4965374063    -1.8854302369
   72      H     -12.0659794952    -2.8218015833    -2.6107557491
   73      H     -10.4754521278    -3.4062561028    -3.1115930339
   74      H     -10.7970827278    -1.6807689055    -3.0488632590
   75      H      -8.0014796780     0.9453038349     0.5401394781
   76      H      -6.5484098528     1.9374923049     0.3801295771
   77      H      -6.6236972216     0.6834796610     1.6075094258
   78      H      -4.4064199684     0.9317278955    -0.5579854792
   79      H      -4.4550010658    -0.6606667872    -1.2995014343
   80      H      -4.5223286662    -1.7178169240     0.9678275479
   81      H      -4.4781873751    -0.1336738743     1.7178430586
   82      H      -2.2205662454     0.3388474618     0.7563862887
   83      H      -3.2509847757    -3.2912274638     0.8984932469
   84      H      -1.6937597347    -3.6433924701     1.6553853225
   85      H      -1.8462631831    -3.6752440686    -0.0940268742
   86      H       0.2166337161    -1.9716123686     1.4960040761
   87      H      -0.0965737525    -0.3608160091     0.8674939480
   88      H      -0.1263298926    -1.2705646929    -1.4624736836
   89      H       0.1769560405    -2.8840815044    -0.8473703388
   90      H       2.3978177979    -2.1980315202     0.0676756572
   91      H       0.9246418522     0.0411883936    -2.5920476397
   92      H       2.4753392082    -0.0380567531    -3.4352484290
   93      H       2.1920664015     1.2125192529    -2.2349537734
   94      H       4.5681606163    -0.7989373618    -2.2010553432
   95      H       4.4160836307    -1.4945058763    -0.5944519366
   96      H       4.0925057635     0.7938041042     0.3677617177
   97      H       4.2421070672     1.4965852345    -1.2313957929
   98      H       6.5944811635     0.6845182684    -1.4489778569
   99      H       5.2041216846     0.8493135722     2.0582193356
  100      H       6.6601794634     1.7319028954     2.5302608136
  101      H       6.6325055477    -0.0223708203     2.6109378814
  102      H       8.7362545112     1.6569838285     1.0622373997
  103      H       8.6271239456     0.9694627535    -0.5512053694
  104      H       8.6689866812    -1.3336225627     0.4196105364
  105      H       8.7615773485    -0.6632497499     2.0369445952
  106      H      10.9722469566     0.3942979846     1.5518449569
  107      H       9.9265560562    -2.4188427252    -0.7398204319
  108      H      11.5180708173    -3.1423132521    -0.4840289402
  109      H      11.2760469997    -1.9938631299    -1.7906938955
  110      H      13.4265785131    -1.7449128031     0.4535669435
  111      H      13.0927366384    -0.1364195296     1.0774011500
  112      C      13.4763109116    -0.1880337065    -1.0489424871
  113      C      14.9605696149     0.0308352325    -0.9474783978
  114      C      15.6440980666     1.1841182066    -0.9615861556
  115      C      15.0162365626     2.5475705008    -1.1199798400
  116      C      17.1534781998     1.1748426462    -0.8239908802
  117      C      17.6712420661     1.7467963381     0.5200602480
  118      C      19.1732199905     1.7738444978     0.5872768295
  119      C      19.9914139755     1.0950692747     1.4041542710
  120      C      19.5274219610     0.1463548492     2.4825494145
  121      C      21.4930756338     1.2650454387     1.2890463150
  122      C      22.2338651782     0.0203143353     0.7388549149
  123      C      23.7244066526     0.2150527866     0.7015338427
  124      C      24.5389216314     0.2438080887    -0.3618070354
  125      C      24.0963445612     0.0664985277    -1.7926456013
  126      C      26.0234709818     0.4604727542    -0.1933174945
  127      H      12.9447902940     0.7419016306    -1.2627170457
  128      H      13.2787398463    -0.8595807539    -1.8933269300
  129      H      15.5413990703    -0.8851900098    -0.8354831899
  130      H      13.9351758221     2.5072959273    -1.2490315460
  131      H      15.4398708751     3.0627954287    -1.9902088356
  132      H      15.2217204157     3.1824505792    -0.2515856535
  133      H      17.5967799380     1.7570773639    -1.6432263059
  134      H      17.5256836186     0.1519597433    -0.9314703637
  135      H      17.2408504646     1.1637875917     1.3372716447
  136      H      17.2982058580     2.7711751565     0.6401920818
  137      H      19.6421898514     2.4340336753    -0.1429143061
  138      H      18.4423684606     0.0767498445     2.5520504122
  139      H      19.9073843646     0.4660550028     3.4601359922
  140      H      19.9129466697    -0.8647507446     2.3139889426
  141      H      21.9075665171     1.5069599908     2.2771802119
  142      H      21.7175607546     2.1165861604     0.6403358949
  143      H      21.8340214543    -0.2183110071    -0.2492633382
  144      H      22.0101567539    -0.8417474150     1.3790890316
  145      H      24.1827604323     0.3628874947     1.6795979847
  146      H      23.0202031092    -0.0665891800    -1.8988523589
  147      H      24.5897879107    -0.8033525349    -2.2424359909
  148      H      24.3898040932     0.9348546526    -2.3941729752
  149      H      26.2994923455     0.5836730430     0.8558761895
  150      H      26.3551801916     1.3508183158    -0.7409044227
  151      H      26.5922083467    -0.3850088031    -0.5988185859
 ----------------------------------------------------------------

   26   -2528.5062678623      8.30e-09  Convergence criterion met
 Total energy in the final basis set =    -2528.5062678623
   21   -2528.5342771945      9.81e-09  Convergence criterion met
 Total energy in the final basis set =    -2528.5342771945

                    Orbital Energies (a.u.)
 --------------------------------------------------------------

 Alpha MOs
 -- Occupied --
-19.1347 -19.1341 -10.2826 -10.2820 -10.2133 -10.2106 -10.2055 -10.2050
-10.1955 -10.1954 -10.1949 -10.1945 -10.1802 -10.1791 -10.1748 -10.1730
-10.1726 -10.1725 -10.1725 -10.1725 -10.1725 -10.1725 -10.1725 -10.1699
-10.1677 -10.1670 -10.1661 -10.1649 -10.1649 -10.1648 -10.1648 -10.1648
-10.1648 -10.1648 -10.1647 -10.1645 -10.1644 -10.1644 -10.1643 -10.1643
-10.1643 -10.1643 -10.1643 -10.1616 -10.1586 -10.1584 -10.1582 -10.1582
-10.1581 -10.1581 -10.1581 -10.1581 -10.1581 -10.1581 -10.1580 -10.1580
-10.1580 -10.1579 -10.1579 -10.1579 -10.1579 -10.1579 -10.1577  -1.0688
 -1.0669  -0.8888  -0.8540  -0.8302  -0.8293  -0.8276  -0.8252  -0.8221
 -0.8184  -0.8142  -0.8097  -0.8053  -0.8020  -0.7876  -0.7762  -0.7758
 -0.7712  -0.7651  -0.7582  -0.7509  -0.7434  -0.7359  -0.7289  -0.7229
 -0.7189  -0.7087  -0.6893  -0.6870  -0.6862  -0.6858  -0.6849  -0.6836
 -0.6818  -0.6799  -0.6771  -0.6726  -0.6669  -0.6606  -0.6440  -0.6361
 -0.6295  -0.6231  -0.6153  -0.6083  -0.6014  -0.5944  -0.5884  -0.5842
 -0.5824  -0.5808  -0.5508  -0.5235  -0.5208  -0.5203  -0.5194  -0.5188
 -0.5180  -0.5161  -0.5139  -0.5119  -0.5102  -0.5092  -0.5001  -0.4808
 -0.4774  -0.4769  -0.4766  -0.4757  -0.4752  -0.4749  -0.4719  -0.4674
 -0.4634  -0.4624  -0.4613  -0.4595  -0.4550  -0.4492  -0.4453  -0.4445
 -0.4429  -0.4408  -0.4378  -0.4363  -0.4339  -0.4318  -0.4303  -0.4282
 -0.4276  -0.4252  -0.4208  -0.4178  -0.4165  -0.4149  -0.4148  -0.4137
 -0.4123  -0.4106  -0.4095  -0.4084  -0.4070  -0.4065  -0.4027  -0.4014
 -0.4008  -0.4002  -0.4000  -0.3968  -0.3934  -0.3918  -0.3903  -0.3890
 -0.3840  -0.3816  -0.3772  -0.3737  -0.3713  -0.3712  -0.3709  -0.3704
 -0.3702  -0.3694  -0.3683  -0.3682  -0.3677  -0.3673  -0.3661  -0.3654
 -0.3642  -0.3640  -0.3621  -0.3617  -0.3596  -0.3585  -0.3565  -0.3554
 -0.3537  -0.3527  -0.3498  -0.3446  -0.3389  -0.3356  -0.3343  -0.3339
 -0.3325  -0.3319  -0.3298  -0.3264  -0.3258  -0.3257  -0.3255  -0.3224
 -0.3173  -0.3125  -0.3087  -0.3064  -0.2913  -0.2905  -0.2772  -0.2767
 -0.2708  -0.2513  -0.2502  -0.2481  -0.2451  -0.2414  -0.2371  -0.2326
 -0.2281  -0.2243  -0.2217

          Ground-State Mulliken Net Atomic Charges

     Atom                 Charge (a.u.)
  ----------------------------------------
      1 C                     0.185457
      2 C                    -0.490301
      3 C                    -0.424966
      4 C                    -0.117690
      5 C                     0.243765
      6 C                     0.090266
      7 C                    -0.815844
      8 C                     0.766611
      9 C                     1.093357
     10 C                    -0.924181
     11 O                    -0.296570
     12 O                    -0.275680
     13 H                     0.221834
     14 H                     0.225920
     15 C                    -0.509971
     16 H                     0.205279
     17 H                     0.202830
     18 H                     0.227634
     19 H                     0.192016
     20 H                     0.181698
     21 C                    -0.222394
     22 C                    -1.130682
     23 C                     1.301699
     24 C                    -0.732914
     25 C                    -0.348261
     26 C                    -0.412203
     27 C                     0.648285
     28 C                    -0.717399
     29 C                    -0.513708
     30 C                    -0.290269
     31 C                    -0.320653
     32 C                     0.502000
     33 C                    -0.710529
     34 C                    -0.733818
     35 C                    -0.437249
     36 C                    -0.298389
     37 C                    -0.333843
     38 C                     0.492108
     39 C                    -0.726635
     40 C                    -0.423480
     41 C                    -0.300633
     42 C                    -0.320772
     43 C                     0.491960
     44 C                    -0.729292
     45 C                    -0.428788
     46 C                    -0.297380
     47 C                    -0.318415
     48 C                     0.479022
     49 C                    -0.730515
     50 C                    -0.422482
     51 C                    -0.306046
     52 C                    -0.309197
     53 C                     0.499520
     54 C                    -0.729175
     55 C                    -0.450809
     56 H                     0.241607
     57 H                     0.198153
     58 H                     0.231096
     59 H                     0.168903
     60 H                     0.180580
     61 H                     0.151713
     62 H                     0.144905
     63 H                     0.192615
     64 H                     0.117817
     65 H                     0.188063
     66 H                     0.184932
     67 H                     0.143338
     68 H                     0.185837
     69 H                     0.152510
     70 H                     0.134279
     71 H                     0.202376
     72 H                     0.133655
     73 H                     0.169584
     74 H                     0.174457
     75 H                     0.136988
     76 H                     0.170414
     77 H                     0.174377
     78 H                     0.144876
     79 H                     0.182327
     80 H                     0.145615
     81 H                     0.133934
     82 H                     0.201493
     83 H                     0.138063
     84 H                     0.169744
     85 H                     0.174558
     86 H                     0.145156
     87 H                     0.181155
     88 H                     0.145400
     89 H                     0.133724
     90 H                     0.200355
     91 H                     0.137371
     92 H                     0.169930
     93 H                     0.174749
     94 H                     0.145142
     95 H                     0.182213
     96 H                     0.144946
     97 H                     0.133203
     98 H                     0.201675
     99 H                     0.137789
    100 H                     0.169899
    101 H                     0.174532
    102 H                     0.145043
    103 H                     0.181067
    104 H                     0.144727
    105 H                     0.133809
    106 H                     0.200773
    107 H                     0.137543
    108 H                     0.169844
    109 H                     0.175238
    110 H                     0.146519
    111 H                     0.176229
    112 C                    -0.280109
    113 C                    -0.405763
    114 C                     0.541382
    115 C                    -0.725065
    116 C                    -0.411298
    117 C                    -0.228078
    118 C                    -0.196075
    119 C                     0.451767
    120 C                    -0.768161
    121 C                    -0.596293
    122 C                    -0.277014
    123 C                     0.008686
    124 C                     0.285236
    125 C                    -0.700560
    126 C                    -0.640002
    127 H                     0.141078
    128 H                     0.134877
    129 H                     0.196216
    130 H                     0.139118
    131 H                     0.170075
    132 H                     0.173774
    133 H                     0.140284
    134 H                     0.186184
    135 H                     0.153035
    136 H                     0.129938
    137 H                     0.215760
    138 H                     0.134823
    139 H                     0.171508
    140 H                     0.176119
    141 H                     0.144217
    142 H                     0.171309
    143 H                     0.144642
    144 H                     0.131360
    145 H                     0.203481
    146 H                     0.147020
    147 H                     0.153356
    148 H                     0.155302
    149 H                     0.158266
    150 H                     0.158473
    151 H                     0.154164
  ----------------------------------------
  Sum of atomic charges =     0.000000

                    Cartesian Multipole Moments
 -----------------------------------------------------------------
    Charge (ESU x 10^10)
                 0.0000
    Dipole Moment (Debye)
         X      -0.0718      Y       0.1201      Z      -0.4207
       Tot       0.4434
    Quadrupole Moments (Debye-Ang)
        XX    -380.9629     XY     -13.0192     YY    -377.8590
        XZ       4.9491     YZ     -16.8239     ZZ    -400.0896

 Total job time:  8148.29s(wall), 59029.89s(cpu)
        *  Thank you very much for using Q-Chem.  Have a nice day.  *
