 Q-Chem 5.4, Q-Chem, Inc., Pleasanton, CA (2021)
 Q-Chem 5.4.0 for Intel X86 EM64T Linux

User input:
--------------------------------------------------------------
$molecule
0 1
C                  5.0119440000     -2.4471410000      0.5524180000
C                  5.8279100000     -1.7421090000     -0.3241100000
C                  5.2624370000     -0.9051090000     -1.2904290000
C                  3.6215780000     -2.3218870000      0.4721100000
C                  3.0521900000     -1.4789960000     -0.5002690000
C                  3.8818690000     -0.7741570000     -1.3783040000
C                  2.7718990000     -3.0898090000      1.4259580000
C                  1.2899050000     -2.9234520000      1.3138130000
C                  0.7188980000     -2.0821230000      0.3443330000
C                  1.5758410000     -1.3191700000     -0.6181860000
C                  0.4667640000     -3.6236230000      2.1994550000
C                 -0.6702460000     -1.9437510000      0.2664470000
C                 -1.4933780000     -2.6389320000      1.1420540000
O                  3.2580200000     -3.8266160000      2.2657630000
O                  1.0750160000     -0.5965290000     -1.4622300000
H                  5.4291350000     -3.1009540000      1.3081760000
H                  6.9052090000     -1.8420310000     -0.2575470000
H                  5.9014710000     -0.3564070000     -1.9727290000
H                 -2.5703570000     -2.5357310000      1.1026910000
H                  3.4232680000     -0.1313090000     -2.1193270000
H                  0.9122990000     -4.2613350000      2.9523440000
H                 -1.0851140000     -1.2852800000     -0.4861990000
C                 -0.9078950000     -3.4727360000      2.0961120000
S                 -1.9704180000     -4.3716440000      3.2277110000
O                 -1.2561920000     -4.6525960000      4.4646310000
O                 -3.2807690000     -3.7368620000      3.2678830000
O                 -2.0760350000     -5.7553570000      2.3528010000
C                 -2.8211730000     -6.8380180000      2.9665990000
H                 -2.3525540000     -7.1337860000      3.9064120000
H                 -2.7703700000     -7.6519700000      2.2471630000
H                 -3.8589050000     -6.5406220000      3.1268150000
$end
$rem
MAX_SCF_CYCLES=200
BASIS  =  6-311++G(d,p)
GUI  =  2
JOB_TYPE  =  SP
METHOD  =  B3LYP
SOLVENT_METHOD = COSMO
$end
$solvent
dielectric 37.219
opticaldielectric 1.43
$end

--------------------------------------------------------------

             Standard Nuclear Orientation (Angstroms)
    I     Atom           X                Y                Z
 ----------------------------------------------------------------
    1      C       3.9124568174    -1.8194212913     0.0116677996
    2      C       5.2443404260    -1.4370707566    -0.0935276881
    3      C       5.5802224206    -0.0842397365    -0.1990390164
    4      C       2.9023527116    -0.8524967326     0.0131328371
    5      C       3.2403204376     0.5094093945    -0.0925949709
    6      C       4.5836285449     0.8840778635    -0.1986967489
    7      C       1.4829231346    -1.2924090055     0.1279434474
    8      C       0.4319087252    -0.2285055365     0.1339006542
    9      C       0.7666492403     1.1319127639     0.0290875525
   10      C       2.1935789058     1.5693058301    -0.0952122711
   11      C      -0.9076471897    -0.6086958945     0.2488246718
   12      C      -0.2380338392     2.1042247464     0.0415539277
   13      C      -1.5710157210     1.7323743359     0.1528962181
   14      O       1.1828534553    -2.4702085135     0.2128971203
   15      O       2.4779403390     2.7503760883    -0.1934853093
   16      H       3.6302966927    -2.8616601226     0.0942135852
   17      H       6.0238607042    -2.1902880573    -0.0936186783
   18      H       6.6199960061     0.2109535512    -0.2809135648
   19      H      -2.3609956699     2.4723377007     0.1745655009
   20      H       4.8218903971     1.9373556660    -0.2794474478
   21      H      -1.1593440989    -1.6575587909     0.3413188223
   22      H       0.0465425055     3.1459839223    -0.0354502293
   23      C      -1.8842860095     0.3758333044     0.2524164528
   24      S      -3.6061868170    -0.1057780505     0.3959961411
   25      O      -3.7103486729    -1.3817719317     1.0888264340
   26      O      -4.3917492922     1.0359799526     0.8441724235
   27      O      -3.8841582105    -0.3484497731    -1.2024801535
   28      C      -5.2025059534    -0.8449184501    -1.5483291759
   29      H      -5.3748714133    -1.8158973691    -1.0816161602
   30      H      -5.1857202537    -0.9444788229    -2.6311463044
   31      H      -5.9683226543    -0.1279904610    -1.2474300395
 ----------------------------------------------------------------

    9   -1352.1517413195      5.70e-06  Convergence criterion met
 Total energy in the final basis set =    -1352.1517413195
    5   -1352.1750717766      3.83e-06  Convergence criterion met
 Total energy in the final basis set =    -1352.1750717766

                    Orbital Energies (a.u.)
 --------------------------------------------------------------

 Alpha MOs
 -- Occupied --
-89.1050 -19.1907 -19.1537 -19.1533 -19.1411 -19.1402 -10.2929 -10.2926
-10.2466 -10.2342 -10.2260 -10.2250 -10.2230 -10.2219 -10.2135 -10.2130
-10.2124 -10.2001 -10.2000 -10.1996 -10.1992  -8.1660  -6.1296  -6.1280
 -6.1267  -1.1742  -1.0769  -1.0751  -1.0630  -1.0485  -0.9130  -0.8910
 -0.8340  -0.8023  -0.7871  -0.7818  -0.7528  -0.7028  -0.6880  -0.6630
 -0.6354  -0.6258  -0.5965  -0.5810  -0.5707  -0.5463  -0.5333  -0.5190
 -0.5077  -0.4973  -0.4947  -0.4728  -0.4694  -0.4687  -0.4679  -0.4642
 -0.4558  -0.4527  -0.4514  -0.4298  -0.4286  -0.4191  -0.4065  -0.3962
 -0.3849  -0.3797  -0.3713  -0.3704  -0.3663  -0.3556  -0.3505  -0.3188
 -0.3055  -0.2979  -0.2959  -0.2850  -0.2845  -0.2816

          Ground-State Mulliken Net Atomic Charges

     Atom                 Charge (a.u.)
  ----------------------------------------
      1 C                     0.110900
      2 C                    -0.418769
      3 C                    -0.474080
      4 C                     0.340524
      5 C                     0.300014
      6 C                     0.157583
      7 C                    -0.734387
      8 C                     0.479871
      9 C                     0.672924
     10 C                    -0.438522
     11 C                     0.095625
     12 C                     0.067684
     13 C                    -0.354817
     14 O                    -0.268043
     15 O                    -0.268387
     16 H                     0.200910
     17 H                     0.231727
     18 H                     0.229990
     19 H                     0.284472
     20 H                     0.203157
     21 H                     0.244595
     22 H                     0.212769
     23 C                    -1.139613
     24 S                     0.353374
     25 O                    -0.228901
     26 O                    -0.202546
     27 O                    -0.072054
     28 C                    -0.167194
     29 H                     0.188014
     30 H                     0.205054
     31 H                     0.188113
  ----------------------------------------
  Sum of atomic charges =    -0.000010

                    Cartesian Multipole Moments
 -----------------------------------------------------------------
    Charge (ESU x 10^10)
                -0.0000
    Dipole Moment (Debye)
         X       4.2057      Y       0.2580      Z      -3.3873
       Tot       5.4064
    Quadrupole Moments (Debye-Ang)
        XX     -98.2344     XY      -6.4542     YY    -138.0676
        XZ      17.2426     YZ       4.2597     ZZ    -129.6340

 Total job time:  73.12s(wall), 566.01s(cpu)
        *  Thank you very much for using Q-Chem.  Have a nice day.  *
