 Gaussian 16, Revision A.03,
 Gaussian 16:  ES64L-G16RevA.03 25-Dec-2016

 --------------------------------------
 #P UB3LYP/6-311++G(d,p) nosym opt freq
 --------------------------------------

 --------
 Oxidized
 --------
 Symbolic Z-matrix:
 Charge =  0 Multiplicity = 1

 SCF Done:  E(UB3LYP) =  -1352.15168481     A.U. after   18 cycles
 Optimization completed.
    -- Stationary point found.
 Normal termination of Gaussian 16 at Sun Jan  7 06:51:06 2024.

 ----------------------------------------------------------------------
 #P Geom=AllCheck Guess=TCheck SCRF=Check GenChk UB3LYP/6-311++G(d,p) F
 req
 ----------------------------------------------------------------------

 Structure from the checkpoint file:  "215.chk"
 --------
 Oxidized
 --------
 Charge =  0 Multiplicity = 1

                          Input orientation:
 ---------------------------------------------------------------------
 Center     Atomic      Atomic             Coordinates (Angstroms)
 Number     Number       Type             X           Y           Z
 ---------------------------------------------------------------------
      1          6           0        5.011944   -2.447141    0.552418
      2          6           0        5.827910   -1.742109   -0.324110
      3          6           0        5.262437   -0.905109   -1.290429
      4          6           0        3.621578   -2.321887    0.472110
      5          6           0        3.052190   -1.478996   -0.500269
      6          6           0        3.881869   -0.774157   -1.378304
      7          6           0        2.771899   -3.089809    1.425958
      8          6           0        1.289905   -2.923452    1.313813
      9          6           0        0.718898   -2.082123    0.344333
     10          6           0        1.575841   -1.319170   -0.618186
     11          6           0        0.466764   -3.623623    2.199455
     12          6           0       -0.670246   -1.943751    0.266447
     13          6           0       -1.493378   -2.638932    1.142054
     14          8           0        3.258020   -3.826616    2.265763
     15          8           0        1.075016   -0.596529   -1.462230
     16          1           0        5.429135   -3.100954    1.308176
     17          1           0        6.905209   -1.842031   -0.257547
     18          1           0        5.901471   -0.356407   -1.972729
     19          1           0       -2.570357   -2.535731    1.102691
     20          1           0        3.423268   -0.131309   -2.119327
     21          1           0        0.912299   -4.261335    2.952344
     22          1           0       -1.085114   -1.285280   -0.486199
     23          6           0       -0.907895   -3.472736    2.096112
     24         16           0       -1.970418   -4.371644    3.227711
     25          8           0       -1.256192   -4.652596    4.464631
     26          8           0       -3.280769   -3.736862    3.267883
     27          8           0       -2.076035   -5.755357    2.352801
     28          6           0       -2.821173   -6.838018    2.966599
     29          1           0       -2.352554   -7.133786    3.906412
     30          1           0       -2.770370   -7.651970    2.247163
     31          1           0       -3.858905   -6.540622    3.126815
 ---------------------------------------------------------------------

 SCF Done:  E(UB3LYP) =  -1352.15168481     A.U. after    2 cycles

 Alpha  occ. eigenvalues --  -89.09482 -19.18712 -19.14178 -19.14079 -19.14063
 Alpha  occ. eigenvalues --  -19.14009 -10.29389 -10.29274 -10.24794 -10.24569
 Alpha  occ. eigenvalues --  -10.23058 -10.22905 -10.22727 -10.22576 -10.22154
 Alpha  occ. eigenvalues --  -10.22104 -10.21882 -10.21308 -10.21255 -10.21029
 Alpha  occ. eigenvalues --  -10.20998  -8.15584  -6.11955  -6.11758  -6.11666
 Alpha  occ. eigenvalues --   -1.16435  -1.07661  -1.07428  -1.05772  -1.03492
 Alpha  occ. eigenvalues --   -0.91724  -0.89988  -0.83840  -0.80719  -0.79442
 Alpha  occ. eigenvalues --   -0.79113  -0.75635  -0.70806  -0.69404  -0.66965
 Alpha  occ. eigenvalues --   -0.64154  -0.62991  -0.60225  -0.58224  -0.57747
 Alpha  occ. eigenvalues --   -0.54558  -0.52890  -0.51956  -0.51035  -0.50419
 Alpha  occ. eigenvalues --   -0.49606  -0.47828  -0.47422  -0.46877  -0.46688
 Alpha  occ. eigenvalues --   -0.46453  -0.46278  -0.46047  -0.45479  -0.43370
 Alpha  occ. eigenvalues --   -0.42899  -0.41619  -0.41285  -0.40223  -0.39503
 Alpha  occ. eigenvalues --   -0.38524  -0.38125  -0.36432  -0.35800  -0.34379
 Alpha  occ. eigenvalues --   -0.34253  -0.31016  -0.30746  -0.30086  -0.29689
 Alpha  occ. eigenvalues --   -0.29359  -0.29016  -0.28499
 Alpha virt. eigenvalues --   -0.13187  -0.09284  -0.06236  -0.04481  -0.01506
 Alpha virt. eigenvalues --   -0.00992  -0.00216   0.00544   0.00797   0.01167
 Alpha virt. eigenvalues --    0.01722   0.02246   0.02554   0.03247   0.03288

  Beta  occ. eigenvalues --  -89.09482 -19.18712 -19.14178 -19.14079 -19.14063
  Beta  occ. eigenvalues --  -19.14009 -10.29389 -10.29274 -10.24794 -10.24569
  Beta  occ. eigenvalues --  -10.23058 -10.22905 -10.22727 -10.22576 -10.22154
  Beta  occ. eigenvalues --  -10.22104 -10.21882 -10.21308 -10.21255 -10.21029
  Beta  occ. eigenvalues --  -10.20998  -8.15584  -6.11955  -6.11758  -6.11666
  Beta  occ. eigenvalues --   -1.16435  -1.07661  -1.07428  -1.05772  -1.03492
  Beta  occ. eigenvalues --   -0.91724  -0.89988  -0.83840  -0.80719  -0.79442
  Beta  occ. eigenvalues --   -0.79113  -0.75635  -0.70806  -0.69404  -0.66965
  Beta  occ. eigenvalues --   -0.64154  -0.62991  -0.60225  -0.58224  -0.57747
  Beta  occ. eigenvalues --   -0.54558  -0.52890  -0.51956  -0.51035  -0.50419
  Beta  occ. eigenvalues --   -0.49606  -0.47828  -0.47422  -0.46877  -0.46688
  Beta  occ. eigenvalues --   -0.46453  -0.46278  -0.46047  -0.45479  -0.43370
  Beta  occ. eigenvalues --   -0.42899  -0.41619  -0.41285  -0.40223  -0.39503
  Beta  occ. eigenvalues --   -0.38524  -0.38125  -0.36432  -0.35800  -0.34379
  Beta  occ. eigenvalues --   -0.34253  -0.31016  -0.30746  -0.30086  -0.29689
  Beta  occ. eigenvalues --   -0.29359  -0.29016  -0.28499
  Beta virt. eigenvalues --   -0.13187  -0.09284  -0.06236  -0.04481  -0.01506
  Beta virt. eigenvalues --   -0.00992  -0.00216   0.00544   0.00797   0.01167
  Beta virt. eigenvalues --    0.01722   0.02246   0.02554   0.03247   0.03288

 Mulliken charges and spin densities:
               1          2
     1  C    0.072586   0.000000
     2  C   -0.335232  -0.000000
     3  C   -0.394577   0.000000
     4  C    0.374810   0.000000
     5  C    0.352422  -0.000000
     6  C    0.130303  -0.000000
     7  C   -0.818430   0.000000
     8  C    0.461455  -0.000000
     9  C    0.646409   0.000000
    10  C   -0.570970  -0.000000
    11  C    0.051001   0.000000
    12  C    0.069229   0.000000
    13  C   -0.306702   0.000000
    14  O   -0.189937   0.000000
    15  O   -0.194889   0.000000
    16  H    0.184998  -0.000000
    17  H    0.182784   0.000000
    18  H    0.180969   0.000000
    19  H    0.248772   0.000000
    20  H    0.186816   0.000000
    21  H    0.242646  -0.000000
    22  H    0.192736  -0.000000
    23  C   -1.116528  -0.000000
    24  S    0.264180   0.000000
    25  O   -0.141835   0.000000
    26  O   -0.121026  -0.000000
    27  O   -0.035796  -0.000000
    28  C   -0.140542  -0.000000
    29  H    0.175183   0.000000
    30  H    0.175622  -0.000000
    31  H    0.173542   0.000000
 Sum of Mulliken charges =  -0.00000   0.00000

 Dipole moment (field-independent basis, Debye):
    X=              2.3614    Y=             -0.5808    Z=             -3.2531  Tot=              4.0616
 Quadrupole moment (field-independent basis, Debye-Ang):
   XX=           -108.1561   YY=           -114.9288   ZZ=           -148.9964
   XY=              8.2818   XZ=             -3.2708   YZ=              8.5765

  Exact polarizability: 284.615  30.505 176.585 -36.839 -66.648 188.710
 Approx polarizability: 420.167  -7.508 283.696  -3.566-118.310 325.214

                      1                      2                      3
                      A                      A                      A
 Frequencies --     17.2260                30.7476                43.1303
 Red. masses --      5.6244                 6.8229                 3.2473
 Frc consts  --      0.0010                 0.0038                 0.0036
 IR Inten    --      2.1918                 2.0344                 2.2467

                      4                      5                      6
                      A                      A                      A
 Frequencies --     62.6065               104.5837               111.6396
 Red. masses --      6.5169                 7.9295                 4.4990
 Frc consts  --      0.0150                 0.0511                 0.0330
 IR Inten    --      3.3049                 1.4161                 0.5090

                      7                      8                      9
                      A                      A                      A
 Frequencies --    122.8103               142.5963               152.7736
 Red. masses --      5.6764                 1.1397                 6.2904
 Frc consts  --      0.0504                 0.0137                 0.0865
 IR Inten    --      1.0314                 0.5926                 3.8085

                     10                     11                     12
                      A                      A                      A
 Frequencies --    196.7834               211.3696               226.6382
 Red. masses --      6.0520                 7.4687                 9.3369
 Frc consts  --      0.1381                 0.1966                 0.2826
 IR Inten    --      2.3566                 1.7305                 0.9442

                     13                     14                     15
                      A                      A                      A
 Frequencies --    255.6341               286.0459               332.6575
 Red. masses --      5.0056                 7.6633                 5.5807
 Frc consts  --      0.1927                 0.3694                 0.3639
 IR Inten    --     11.6823                 0.4332                 3.6139

                     16                     17                     18
                      A                      A                      A
 Frequencies --    366.9850               382.5726               405.5617
 Red. masses --      7.1455                 8.9583                 9.1430
 Frc consts  --      0.5670                 0.7725                 0.8860
 IR Inten    --      4.1056                 9.0632                22.4003

                     19                     20                     21
                      A                      A                      A
 Frequencies --    415.7814               444.2480               445.7870
 Red. masses --      3.4181                 4.7119                 6.8635
 Frc consts  --      0.3482                 0.5479                 0.8036
 IR Inten    --      0.4570                 3.9764                13.7504

                     22                     23                     24
                      A                      A                      A
 Frequencies --    452.2615               476.6128               480.3390
 Red. masses --      4.2748                 9.8846                 9.6541
 Frc consts  --      0.5152                 1.3229                 1.3124
 IR Inten    --      0.4254                 5.6922                 7.8572

                     25                     26                     27
                      A                      A                      A
 Frequencies --    492.4642               550.8766               612.0653
 Red. masses --      9.3026                 5.6093                 9.1123
 Frc consts  --      1.3292                 1.0029                 2.0113
 IR Inten    --      3.0125                 5.2979                87.4627

                     28                     29                     30
                      A                      A                      A
 Frequencies --    644.0091               659.8963               670.3709
 Red. masses --      7.0817                 6.9331                 4.9018
 Frc consts  --      1.7305                 1.7788                 1.2979
 IR Inten    --      6.4603                19.0661                30.0762

                     31                     32                     33
                      A                      A                      A
 Frequencies --    696.3209               697.1520               728.5665
 Red. masses --      6.7156                 7.3698                 7.4426
 Frc consts  --      1.9185                 2.1104                 2.3276
 IR Inten    --     70.1699               100.4944                97.2366

                     34                     35                     36
                      A                      A                      A
 Frequencies --    729.4467               740.3896               810.3926
 Red. masses --      2.7840                 3.3034                 1.7975
 Frc consts  --      0.8728                 1.0669                 0.6955
 IR Inten    --     71.7409                14.1051                10.8073

                     37                     38                     39
                      A                      A                      A
 Frequencies --    813.3983               829.9098               879.3557
 Red. masses --      4.4320                 6.9784                 1.5018
 Frc consts  --      1.7277                 2.8318                 0.6842
 IR Inten    --      0.0309                12.1079                11.3780

                     40                     41                     42
                      A                      A                      A
 Frequencies --    918.9232               942.4067               959.4375
 Red. masses --      1.3953                 7.0192                 1.4980
 Frc consts  --      0.6942                 3.6729                 0.8124
 IR Inten    --      0.1482                60.9383                 1.5983

                     43                     44                     45
                      A                      A                      A
 Frequencies --    970.6204               988.8513              1005.6685
 Red. masses --      5.8947                 9.4653                 1.3777
 Frc consts  --      3.2720                 5.4531                 0.8209
 IR Inten    --    115.3739               303.1800                 2.0286

                     46                     47                     48
                      A                      A                      A
 Frequencies --   1015.1301              1021.7685              1057.4507
 Red. masses --      1.3641                 1.3316                 2.0310
 Frc consts  --      0.8282                 0.8191                 1.3381
 IR Inten    --      0.7301                 0.0014                 0.0885

                     49                     50                     51
                      A                      A                      A
 Frequencies --   1085.3874              1112.6878              1119.9041
 Red. masses --      2.3436                 2.7862                 3.1595
 Frc consts  --      1.6267                 2.0324                 2.3347
 IR Inten    --     16.3705                22.8219               104.6037

                     52                     53                     54
                      A                      A                      A
 Frequencies --   1141.7378              1166.4824              1178.2451
 Red. masses --      2.7159                 1.2594                 1.5805
 Frc consts  --      2.0859                 1.0097                 1.2928
 IR Inten    --    155.2180                 1.5939                12.4841

                     55                     56                     57
                      A                      A                      A
 Frequencies --   1184.0818              1187.1524              1192.9897
 Red. masses --      1.6786                 1.5174                 1.8569
 Frc consts  --      1.3866                 1.2600                 1.5571
 IR Inten    --     15.3948                38.1777                 3.0101

                     58                     59                     60
                      A                      A                      A
 Frequencies --   1233.0667              1277.2021              1301.9022
 Red. masses --      1.7365                 1.5123                 4.6027
 Frc consts  --      1.5556                 1.4535                 4.5964
 IR Inten    --      0.9745                34.6739               565.2586

                     61                     62                     63
                      A                      A                      A
 Frequencies --   1308.9935              1312.7002              1351.1196
 Red. masses --     14.0523                 2.3610                 8.0923
 Frc consts  --     14.1864                 2.3971                 8.7038
 IR Inten    --    152.0659                71.3969                40.3002

                     64                     65                     66
                      A                      A                      A
 Frequencies --   1363.1758              1432.0898              1461.6984
 Red. masses --      8.0645                 4.1598                 1.1347
 Frc consts  --      8.8294                 5.0264                 1.4283
 IR Inten    --      1.8279                 2.5282                 1.2481

                     67                     68                     69
                      A                      A                      A
 Frequencies --   1482.0655              1485.5487              1496.3612
 Red. masses --      2.4087                 1.0461                 2.6002
 Frc consts  --      3.1172                 1.3602                 3.4302
 IR Inten    --      0.7343                 7.2939                 8.1574

                     70                     71                     72
                      A                      A                      A
 Frequencies --   1502.7789              1507.4621              1602.6084
 Red. masses --      1.0489                 2.5609                 7.1838
 Frc consts  --      1.3956                 3.4287                10.8708
 IR Inten    --     13.4259                 1.5797                 1.6633

                     73                     74                     75
                      A                      A                      A
 Frequencies --   1616.5569              1623.7668              1630.6420
 Red. masses --      7.4684                 6.2104                 5.8432
 Frc consts  --     11.4991                 9.6475                 9.1541
 IR Inten    --      0.8263               108.3810                 7.6431

                     76                     77                     78
                      A                      A                      A
 Frequencies --   1725.1713              1734.6438              3045.6317
 Red. masses --     12.6911                12.2418                 1.0293
 Frc consts  --     22.2543                21.7028                 5.6252
 IR Inten    --      3.2646               324.8491                41.8529

                     79                     80                     81
                      A                      A                      A
 Frequencies --   3126.2285              3157.4004              3172.8277
 Red. masses --      1.1089                 1.1053                 1.0872
 Frc consts  --      6.3853                 6.4923                 6.4484
 IR Inten    --      9.4568                 5.1988                 2.8046

                     82                     83                     84
                      A                      A                      A
 Frequencies --   3186.7160              3198.6873              3201.3176
 Red. masses --      1.0917                 1.0887                 1.0927
 Frc consts  --      6.5322                 6.5632                 6.5977
 IR Inten    --      8.2999                 4.0585                 0.0638

                     85                     86                     87
                      A                      A                      A
 Frequencies --   3203.9083              3209.9169              3210.8592
 Red. masses --      1.0952                 1.0923                 1.0944
 Frc consts  --      6.6237                 6.6311                 6.6476
 IR Inten    --     10.8408                 6.0285                 1.6871

 - Thermochemistry -
 -------------------
 Temperature   298.150 Kelvin.  Pressure   1.00000 Atm.
 Atom     1 has atomic number  6 and mass  12.00000

 Molecular mass:   302.02490 amu.
 Principal axes and moments of inertia in atomic units:
                           1         2         3
     Eigenvalues --  2377.66117********************
           X            0.78976   0.61301   0.02215
           Y            0.41716  -0.56321   0.71329
           Z           -0.44973   0.55409   0.70052
 This molecule is an asymmetric top.
 Rotational symmetry number  1.
 Warning -- assumption of classical behavior for rotation
           may cause significant error
 Rotational temperatures (Kelvin)      0.03643     0.00694     0.00613
 Rotational constants (GHZ):           0.75904     0.14470     0.12780
 Zero-point vibrational energy     580990.2 (Joules/Mol)
                                  138.85999 (Kcal/Mol)
 Warning -- explicit consideration of  27 degrees of freedom as
           vibrations may cause significant error
 Vibrational temperatures:     24.78    44.24    62.05    90.08   150.47
          (Kelvin)            160.62   176.70   205.16   219.81   283.13
                              304.11   326.08   367.80   411.56   478.62
                              528.01   550.44   583.51   598.22   639.17
                              641.39   650.70   685.74   691.10   708.55
                              792.59   880.63   926.59   949.44   964.51
                             1001.85  1003.05  1048.24  1049.51  1065.26
                             1165.97  1170.30  1194.06  1265.20  1322.13
                             1355.91  1380.42  1396.51  1422.74  1446.93
                             1460.55  1470.10  1521.44  1561.63  1600.91
                             1611.29  1642.71  1678.31  1695.23  1703.63
                             1708.05  1716.45  1774.11  1837.61  1873.15
                             1883.35  1888.68  1943.96  1961.31  2060.46
                             2103.06  2132.36  2137.37  2152.93  2162.16
                             2168.90  2305.80  2325.86  2336.24  2346.13
                             2482.14  2495.77  4381.98  4497.95  4542.79
                             4564.99  4584.97  4602.20  4605.98  4609.71
                             4618.35  4619.71

 Zero-point correction=                           0.221287 (Hartree/Particle)
 Thermal correction to Energy=                    0.238898
 Thermal correction to Enthalpy=                  0.239842
 Thermal correction to Gibbs Free Energy=         0.173524
 Sum of electronic and zero-point Energies=          -1351.930397
 Sum of electronic and thermal Energies=             -1351.912787
 Sum of electronic and thermal Enthalpies=           -1351.911843
 Sum of electronic and thermal Free Energies=        -1351.978161

                     E (Thermal)             CV                S
                      KCal/Mol        Cal/Mol-Kelvin    Cal/Mol-Kelvin
 Total                  149.911             66.744            139.577
 Electronic               0.000              0.000              0.000
 Translational            0.889              2.981             43.013
 Rotational               0.889              2.981             34.392
 Vibrational            148.133             60.782             62.172
 Vibration     1          0.593              1.986              6.931
 Vibration     2          0.594              1.984              5.781
 Vibration     3          0.595              1.980              5.110
 Vibration     4          0.597              1.972              4.373
 Vibration     5          0.605              1.946              3.367
 Vibration     6          0.607              1.940              3.240
 Vibration     7          0.610              1.930              3.056
 Vibration     8          0.616              1.911              2.769
 Vibration     9          0.619              1.900              2.637
 Vibration    10          0.636              1.844              2.163
 Vibration    11          0.643              1.824              2.032
 Vibration    12          0.650              1.800              1.905
 Vibration    13          0.666              1.753              1.691
 Vibration    14          0.684              1.700              1.497
 Vibration    15          0.715              1.610              1.247
 Vibration    16          0.740              1.540              1.092
 Vibration    17          0.752              1.507              1.029
 Vibration    18          0.771              1.458              0.942
 Vibration    19          0.779              1.436              0.906
 Vibration    20          0.804              1.374              0.813
 Vibration    21          0.805              1.370              0.809
 Vibration    22          0.811              1.356              0.789
 Vibration    23          0.833              1.302              0.719
 Vibration    24          0.837              1.294              0.709
 Vibration    25          0.848              1.267              0.677
 Vibration    26          0.906              1.138              0.542
 Vibration    27          0.971              1.006              0.429

 Optimization completed.
    -- Stationary point found.
 Normal termination of Gaussian 16 at Sun Jan  7 08:34:56 2024.
