 Gaussian 16, Revision A.03,
 Gaussian 16:  ES64L-G16RevA.03 25-Dec-2016

 ----------------------------------------------------------------
 #P UB3LYP/6-311++G(d,p) SCRF=(PCM,Solvent=n,n-DiMethylFormamide)
 ----------------------------------------------------------------

 ------------------
 Radical PCM in DMF
 ------------------
 Symbolic Z-matrix:
 Charge = -1 Multiplicity = 2

                         Standard orientation:
 ---------------------------------------------------------------------
 Center     Atomic      Atomic             Coordinates (Angstroms)
 Number     Number       Type             X           Y           Z
 ---------------------------------------------------------------------
      1          6           0       -1.892038   -1.475771    0.064884
      2          6           0       -0.932410   -2.476429   -0.042454
      3          6           0        0.423093   -2.156986   -0.166371
      4          6           0       -1.525918   -0.104169    0.022312
      5          6           0       -0.134401    0.204061   -0.126285
      6          6           0        0.826856   -0.835174   -0.185907
      7          6           0       -2.525209    0.986981    0.119025
      8          6           0       -1.996519    2.326298    0.014211
      9          6           0       -0.669761    2.611642   -0.176645
     10          6           0        0.330293    1.591988   -0.281937
     11          8           0       -3.753496    0.792358    0.281233
     12          8           0        1.544877    1.848973   -0.515360
     13          8           0       -3.208337   -1.827627    0.200441
     14          1           0        1.161519   -2.948679   -0.234239
     15          1           0       -0.325271    3.637388   -0.273041
     16          6           0        2.299553   -0.568978   -0.250175
     17          8           0        3.020943   -0.848332   -1.182335
     18          8           0        2.780879   -0.155083    0.951650
     19          6           0        4.123449    0.334235    0.932837
     20          1           0       -1.245525   -3.518077   -0.018970
     21          1           0       -2.733953    3.120506    0.084918
     22          1           0       -3.248953   -2.790141    0.190815
     23          1           0        4.349300    0.617888    1.960725
     24          1           0        4.181550    1.205537    0.276960
     25          1           0        4.820490   -0.432901    0.586824
 ---------------------------------------------------------------------

 SCF Done:  E(UB3LYP) =  -838.594695708     A.U. after   19 cycles

 The electronic state is 2-A.
 Alpha  occ. eigenvalues --  -19.16190 -19.15781 -19.11407 -19.08017 -19.07680
 Alpha  occ. eigenvalues --  -10.30740 -10.24788 -10.22853 -10.22434 -10.21562
 Alpha  occ. eigenvalues --  -10.18885 -10.18800 -10.18674 -10.18549 -10.17858
 Alpha  occ. eigenvalues --  -10.16521 -10.16438  -1.10550  -1.07100  -1.02132
 Alpha  occ. eigenvalues --   -1.00509  -1.00262  -0.86795  -0.80999  -0.77284
 Alpha  occ. eigenvalues --   -0.75132  -0.71971  -0.68120  -0.64247  -0.62794
 Alpha  occ. eigenvalues --   -0.59205  -0.56963  -0.54369  -0.51799  -0.50011
 Alpha  occ. eigenvalues --   -0.48512  -0.48252  -0.47490  -0.46079  -0.45771
 Alpha  occ. eigenvalues --   -0.43317  -0.42918  -0.42120  -0.40707  -0.40418
 Alpha  occ. eigenvalues --   -0.39852  -0.38817  -0.37904  -0.37670  -0.37533
 Alpha  occ. eigenvalues --   -0.35759  -0.35686  -0.34294  -0.30515  -0.28912
 Alpha  occ. eigenvalues --   -0.27973  -0.26063  -0.24691  -0.24038  -0.23674
 Alpha  occ. eigenvalues --   -0.15558
 Alpha virt. eigenvalues --   -0.03699  -0.02575  -0.00359   0.00415   0.00634
 Alpha virt. eigenvalues --    0.01000   0.01944   0.02876   0.03142   0.03602
 Alpha virt. eigenvalues --    0.04559   0.04726   0.05348   0.05888   0.06391

  Beta  occ. eigenvalues --  -19.16190 -19.15777 -19.11398 -19.07369 -19.07041
  Beta  occ. eigenvalues --  -10.30742 -10.24804 -10.22744 -10.22265 -10.21561
  Beta  occ. eigenvalues --  -10.18828 -10.18764 -10.18655 -10.18506 -10.17784
  Beta  occ. eigenvalues --  -10.16411 -10.16259  -1.10541  -1.07088  -1.02120
  Beta  occ. eigenvalues --   -0.99400  -0.99132  -0.86604  -0.80465  -0.77149
  Beta  occ. eigenvalues --   -0.74914  -0.71884  -0.67254  -0.64079  -0.62516
  Beta  occ. eigenvalues --   -0.58997  -0.56845  -0.54275  -0.51620  -0.49802
  Beta  occ. eigenvalues --   -0.48310  -0.48206  -0.47380  -0.45928  -0.45627
  Beta  occ. eigenvalues --   -0.42932  -0.42606  -0.41838  -0.40602  -0.39974
  Beta  occ. eigenvalues --   -0.38741  -0.38488  -0.37624  -0.37250  -0.35709
  Beta  occ. eigenvalues --   -0.35585  -0.35388  -0.33530  -0.30445  -0.28784
  Beta  occ. eigenvalues --   -0.25480  -0.25088  -0.24083  -0.23384  -0.23095
  Beta virt. eigenvalues --   -0.08934  -0.02995  -0.01380  -0.00322   0.00431
  Beta virt. eigenvalues --    0.00842   0.01052   0.01954   0.02915   0.03161
  Beta virt. eigenvalues --    0.03642   0.04690   0.05149   0.05528   0.06313

 Mulliken charges and spin densities:
               1          2
     1  C    0.128506   0.023557
     2  C   -0.048704   0.059493
     3  C   -0.297574   0.007617
     4  C    0.014492   0.023768
     5  C    0.570474   0.062991
     6  C    0.728833   0.042344
     7  C   -0.433542   0.041684
     8  C   -0.142570   0.138931
     9  C   -0.201362   0.065491
    10  C   -0.605773   0.080566
    11  O   -0.472724   0.233404
    12  O   -0.432224   0.234738
    13  O   -0.231186  -0.000602
    14  H    0.192631  -0.001282
    15  H    0.183558  -0.007867
    16  C   -0.577145   0.010058
    17  O   -0.274713   0.002403
    18  O   -0.007545  -0.002169
    19  C   -0.248537   0.001660
    20  H    0.169283  -0.004421
    21  H    0.181933  -0.011619
    22  H    0.296506  -0.000352
    23  H    0.165269   0.000094
    24  H    0.182302  -0.000426
    25  H    0.159812  -0.000059
 Sum of Mulliken charges =  -1.00000   1.00000

 Dipole moment (field-independent basis, Debye):
    X=              3.6341    Y=             -6.2584    Z=              2.4742  Tot=              7.6482
 Quadrupole moment (field-independent basis, Debye-Ang):
   XX=           -143.6343   YY=            -93.9705   ZZ=           -107.7865
   XY=              9.8544   XZ=             13.6516   YZ=             -0.1037

 Normal termination of Gaussian 16 at Sun Jan 21 08:28:58 2024.
