 Gaussian 16, Revision A.03,
 Gaussian 16:  ES64L-G16RevA.03 25-Dec-2016

 ----------------------------------------------------------------------
 #P UB3LYP/6-311++G(d,p) nosym opt freq SCRF=(PCM,Solvent=n,n-DiMethylF
 ormamide)
 ----------------------------------------------------------------------

 --------
 Oxidized
 --------
 Symbolic Z-matrix:
 Charge =  0 Multiplicity = 1

 SCF Done:  E(UB3LYP) =  -819.589952468     A.U. after   16 cycles
 SCF Done:  E(UB3LYP) =  -819.590173827     A.U. after   13 cycles
 SCF Done:  E(UB3LYP) =  -819.590213087     A.U. after   12 cycles
 SCF Done:  E(UB3LYP) =  -819.590212922     A.U. after   11 cycles
 SCF Done:  E(UB3LYP) =  -819.590254606     A.U. after   11 cycles
 SCF Done:  E(UB3LYP) =  -819.590257122     A.U. after   10 cycles
 SCF Done:  E(UB3LYP) =  -819.590258843     A.U. after   10 cycles
 SCF Done:  E(UB3LYP) =  -819.590260339     A.U. after   10 cycles
 SCF Done:  E(UB3LYP) =  -819.590263739     A.U. after   11 cycles
 SCF Done:  E(UB3LYP) =  -819.590265330     A.U. after   10 cycles
 SCF Done:  E(UB3LYP) =  -819.590266679     A.U. after   10 cycles
 SCF Done:  E(UB3LYP) =  -819.590267134     A.U. after   10 cycles
 SCF Done:  E(UB3LYP) =  -819.590267250     A.U. after    8 cycles
 SCF Done:  E(UB3LYP) =  -819.590267457     A.U. after    9 cycles
 SCF Done:  E(UB3LYP) =  -819.590267649     A.U. after    9 cycles
 SCF Done:  E(UB3LYP) =  -819.590267715     A.U. after    8 cycles
 Optimization completed.
    -- Stationary point found.
 Normal termination of Gaussian 16 at Sat Feb 10 17:02:40 2024.

 ----------------------------------------------------------------------
 #P Geom=AllCheck Guess=TCheck SCRF=Check GenChk UB3LYP/6-311++G(d,p) F
 req
 ----------------------------------------------------------------------

 Structure from the checkpoint file:  "181.chk"
 --------
 Oxidized
 --------
 Charge =  0 Multiplicity = 1

                          Input orientation:
 ---------------------------------------------------------------------
 Center     Atomic      Atomic             Coordinates (Angstroms)
 Number     Number       Type             X           Y           Z
 ---------------------------------------------------------------------
      1          7           0       -2.596293   -2.279079    0.381022
      2          6           0       -2.329276   -0.970913    0.143632
      3          6           0       -3.425818   -0.084522   -0.025859
      4          6           0       -3.230021    1.246446   -0.262337
      5          6           0       -1.932046    1.796279   -0.348706
      6          8           0       -1.801394    3.127795   -0.586005
      7          6           0       -0.814787    0.967486   -0.189342
      8          6           0        0.556500    1.528469   -0.279127
      9          8           0        0.777753    2.715943   -0.502291
     10          6           0        1.704960    0.597204   -0.087971
     11          6           0        3.009428    1.102547   -0.155250
     12          6           0        4.098925    0.258936    0.018890
     13          6           0        3.896323   -1.103824    0.262178
     14          6           0        2.606043   -1.613230    0.329688
     15          6           0        1.502369   -0.767998    0.155884
     16          6           0        0.131614   -1.334448    0.234102
     17          8           0       -0.001598   -2.552294    0.445384
     18          6           0       -1.012437   -0.438912    0.061960
     19          1           0       -3.549283   -2.603182    0.398178
     20          1           0       -1.823998   -2.923411    0.481211
     21          1           0       -4.433273   -0.480294    0.035555
     22          1           0       -4.086556    1.901339   -0.387623
     23          1           0       -2.680187    3.521239   -0.660363
     24          1           0        3.148865    2.159057   -0.344466
     25          1           0        5.105650    0.656958   -0.033741
     26          1           0        4.746065   -1.762728    0.398255
     27          1           0        2.432468   -2.664865    0.517143
 ---------------------------------------------------------------------

 SCF Done:  E(UB3LYP) =  -819.590267715     A.U. after    1 cycles

 Alpha  occ. eigenvalues --  -19.17139 -19.11966 -19.11668 -14.33581 -10.27492
 Alpha  occ. eigenvalues --  -10.27355 -10.26248 -10.24822 -10.20714 -10.20346
 Alpha  occ. eigenvalues --  -10.20329 -10.20289 -10.20198 -10.20108 -10.19474
 Alpha  occ. eigenvalues --  -10.19419 -10.19269 -10.19268  -1.08680  -1.05177
 Alpha  occ. eigenvalues --   -1.04915  -0.94628  -0.88594  -0.86552  -0.81115
 Alpha  occ. eigenvalues --   -0.77363  -0.77144  -0.75483  -0.68842  -0.67034
 Alpha  occ. eigenvalues --   -0.65343  -0.61987  -0.59389  -0.58038  -0.57278
 Alpha  occ. eigenvalues --   -0.54263  -0.52633  -0.50480  -0.49216  -0.48288
 Alpha  occ. eigenvalues --   -0.47633  -0.46127  -0.45803  -0.44724  -0.44426
 Alpha  occ. eigenvalues --   -0.44124  -0.42494  -0.41826  -0.41314  -0.40641
 Alpha  occ. eigenvalues --   -0.38614  -0.38587  -0.37473  -0.36963  -0.36408
 Alpha  occ. eigenvalues --   -0.31347  -0.28771  -0.27820  -0.27506  -0.27418
 Alpha  occ. eigenvalues --   -0.26477  -0.21678
 Alpha virt. eigenvalues --   -0.11195  -0.06403  -0.03713  -0.01101  -0.00774
 Alpha virt. eigenvalues --   -0.00068   0.00318   0.01643   0.01781   0.02993
 Alpha virt. eigenvalues --    0.03451   0.03863   0.04160   0.04286   0.04663

  Beta  occ. eigenvalues --  -19.17139 -19.11966 -19.11668 -14.33581 -10.27492
  Beta  occ. eigenvalues --  -10.27355 -10.26248 -10.24822 -10.20714 -10.20346
  Beta  occ. eigenvalues --  -10.20329 -10.20289 -10.20198 -10.20108 -10.19474
  Beta  occ. eigenvalues --  -10.19419 -10.19269 -10.19268  -1.08680  -1.05177
  Beta  occ. eigenvalues --   -1.04915  -0.94628  -0.88594  -0.86552  -0.81115
  Beta  occ. eigenvalues --   -0.77363  -0.77144  -0.75483  -0.68842  -0.67034
  Beta  occ. eigenvalues --   -0.65343  -0.61987  -0.59389  -0.58038  -0.57278
  Beta  occ. eigenvalues --   -0.54263  -0.52633  -0.50480  -0.49216  -0.48288
  Beta  occ. eigenvalues --   -0.47633  -0.46127  -0.45803  -0.44724  -0.44426
  Beta  occ. eigenvalues --   -0.44124  -0.42494  -0.41826  -0.41314  -0.40641
  Beta  occ. eigenvalues --   -0.38614  -0.38587  -0.37473  -0.36963  -0.36408
  Beta  occ. eigenvalues --   -0.31347  -0.28771  -0.27820  -0.27506  -0.27418
  Beta  occ. eigenvalues --   -0.26477  -0.21678
  Beta virt. eigenvalues --   -0.11195  -0.06403  -0.03713  -0.01101  -0.00774
  Beta virt. eigenvalues --   -0.00068   0.00318   0.01643   0.01781   0.02993
  Beta virt. eigenvalues --    0.03451   0.03863   0.04160   0.04286   0.04663

 Mulliken charges and spin densities:
               1          2
     1  N   -0.437788   0.000000
     2  C    0.183600  -0.000000
     3  C   -0.123605   0.000000
     4  C   -0.298516  -0.000000
     5  C   -0.197157  -0.000000
     6  O   -0.212212   0.000000
     7  C    0.410763   0.000000
     8  C   -0.348525   0.000000
     9  O   -0.304907   0.000000
    10  C   -0.071073   0.000000
    11  C    0.208400  -0.000000
    12  C   -0.463064  -0.000000
    13  C   -0.493715  -0.000000
    14  C    0.292603   0.000000
    15  C    0.082137  -0.000000
    16  C   -0.330139   0.000000
    17  O   -0.329305  -0.000000
    18  C    0.315827   0.000000
    19  H    0.309185  -0.000000
    20  H    0.336821   0.000000
    21  H    0.207910   0.000000
    22  H    0.194765  -0.000000
    23  H    0.301355   0.000000
    24  H    0.178624  -0.000000
    25  H    0.201558  -0.000000
    26  H    0.201244  -0.000000
    27  H    0.185213  -0.000000
 Sum of Mulliken charges =   0.00000   0.00000

 Dipole moment (field-independent basis, Debye):
    X=             -5.3276    Y=             -1.8078    Z=              0.2492  Tot=              5.6315
 Quadrupole moment (field-independent basis, Debye-Ang):
   XX=            -57.9234   YY=           -109.9253   ZZ=           -107.5711
   XY=             -6.6271   XZ=              2.1512   YZ=              0.7675

  Exact polarizability: 414.611  -5.134 308.641   4.687 -34.372 125.850
 Approx polarizability: 456.399   0.272 392.462   3.771 -45.706 148.903

                      1                      2                      3
                      A                      A                      A
 Frequencies --     24.5600                47.8109                88.0916
 Red. masses --      6.2682                 6.2726                 3.3909
 Frc consts  --      0.0022                 0.0084                 0.0155
 IR Inten    --     59.0581                34.8903                69.5359

                      4                      5                      6
                      A                      A                      A
 Frequencies --    112.2502               157.8664               185.5279
 Red. masses --      4.8101                 2.6783                 2.2331
 Frc consts  --      0.0357                 0.0393                 0.0453
 IR Inten    --      3.8898                46.6445               107.1843

                      7                      8                      9
                      A                      A                      A
 Frequencies --    213.1572               238.4368               312.5623
 Red. masses --      5.2769                 5.3692                 6.5778
 Frc consts  --      0.1413                 0.1798                 0.3786
 IR Inten    --      5.9345                 0.9578                 3.6258

                     10                     11                     12
                      A                      A                      A
 Frequencies --    335.5176               348.6260               376.2905
 Red. masses --      5.5964                 4.2938                10.6976
 Frc consts  --      0.3712                 0.3075                 0.8925
 IR Inten    --      3.4873                 2.8723                 9.7222

                     13                     14                     15
                      A                      A                      A
 Frequencies --    395.2220               411.9412               426.8936
 Red. masses --      1.1807                 5.1462                10.1607
 Frc consts  --      0.1087                 0.5145                 1.0910
 IR Inten    --    136.4687                 8.8301                59.4742

                     16                     17                     18
                      A                      A                      A
 Frequencies --    426.9346               436.8480               458.0817
 Red. masses --      3.1759                 5.6306                 9.0596
 Frc consts  --      0.3411                 0.6331                 1.1201
 IR Inten    --      6.8180                 0.8245                17.5674

                     19                     20                     21
                      A                      A                      A
 Frequencies --    489.9999               499.9926               511.6685
 Red. masses --      4.5235                 4.6428                 7.7238
 Frc consts  --      0.6399                 0.6838                 1.1914
 IR Inten    --      8.8228                 0.0452                 1.2122

                     22                     23                     24
                      A                      A                      A
 Frequencies --    581.4390               607.6107               634.9390
 Red. masses --      2.4111                 5.3189                 1.2187
 Frc consts  --      0.4803                 1.1570                 0.2895
 IR Inten    --     58.2828                 7.2076                 1.6453

                     25                     26                     27
                      A                      A                      A
 Frequencies --    663.8726               670.3130               711.3493
 Red. masses --      6.6321                 4.4284                 6.4862
 Frc consts  --      1.7221                 1.1723                 1.9338
 IR Inten    --     22.3197                 0.8128                 1.2630

                     28                     29                     30
                      A                      A                      A
 Frequencies --    736.5434               743.4097               768.5986
 Red. masses --      5.6713                 1.8488                 6.9468
 Frc consts  --      1.8127                 0.6020                 2.4179
 IR Inten    --      2.9167                90.3035                11.9110

                     31                     32                     33
                      A                      A                      A
 Frequencies --    810.1213               820.1173               838.7000
 Red. masses --      4.3012                 2.5647                 1.7857
 Frc consts  --      1.6632                 1.0163                 0.7401
 IR Inten    --      5.1662                25.0239                46.1348

                     34                     35                     36
                      A                      A                      A
 Frequencies --    872.2010               907.4114               912.0390
 Red. masses --      7.6061                 7.4005                 1.4316
 Frc consts  --      3.4091                 3.5902                 0.7016
 IR Inten    --    102.7297                34.9801                 0.0177

                     37                     38                     39
                      A                      A                      A
 Frequencies --    961.8541               966.1605              1001.2389
 Red. masses --      5.3803                 1.3082                 1.3830
 Frc consts  --      2.9328                 0.7195                 0.8169
 IR Inten    --     64.1248                 0.3404                 2.1198

                     40                     41                     42
                      A                      A                      A
 Frequencies --   1021.4026              1031.7954              1055.9902
 Red. masses --      1.3244                 2.6814                 1.8122
 Frc consts  --      0.8141                 1.6819                 1.1906
 IR Inten    --      0.0045               179.8376                10.7973

                     43                     44                     45
                      A                      A                      A
 Frequencies --   1111.9659              1116.6098              1175.3748
 Red. masses --      2.4044                 2.0521                 1.2621
 Frc consts  --      1.7516                 1.5075                 1.0273
 IR Inten    --     19.1347                65.5809                14.9987

                     46                     47                     48
                      A                      A                      A
 Frequencies --   1184.3943              1204.1974              1221.2247
 Red. masses --      1.9052                 1.2300                 1.8021
 Frc consts  --      1.5747                 1.0509                 1.5835
 IR Inten    --     68.1860               294.5820                78.7139

                     49                     50                     51
                      A                      A                      A
 Frequencies --   1247.7265              1269.6364              1292.0624
 Red. masses --      4.3123                 1.9274                 3.5849
 Frc consts  --      3.9555                 1.8306                 3.5261
 IR Inten    --    991.7842                25.6162               701.6908

                     52                     53                     54
                      A                      A                      A
 Frequencies --   1319.9479              1357.1672              1360.7770
 Red. masses --      2.4383                 7.7966                 3.8595
 Frc consts  --      2.5030                 8.4610                 4.2108
 IR Inten    --    189.4181                 0.6695                61.1451

                     55                     56                     57
                      A                      A                      A
 Frequencies --   1419.5105              1448.2650              1476.7288
 Red. masses --      5.9945                 3.7364                 2.4540
 Frc consts  --      7.1167                 4.6174                 3.1530
 IR Inten    --     75.0916               171.7575                40.2844

                     58                     59                     60
                      A                      A                      A
 Frequencies --   1485.7163              1505.6776              1564.4635
 Red. masses --      2.3311                 2.6232                 3.2677
 Frc consts  --      3.0316                 3.5038                 4.7122
 IR Inten    --      1.2158                 2.9801               813.4262

                     61                     62                     63
                      A                      A                      A
 Frequencies --   1586.0010              1605.9218              1621.6689
 Red. masses --      2.5557                 3.4786                 5.9246
 Frc consts  --      3.7876                 5.2857                 9.1799
 IR Inten    --     15.7372               133.9563               266.5539

                     64                     65                     66
                      A                      A                      A
 Frequencies --   1626.9101              1660.5433              1689.5673
 Red. masses --      4.5398                 7.9713                 9.0675
 Frc consts  --      7.0796                12.9503                15.2506
 IR Inten    --    302.0238               469.2351               161.3247

                     67                     68                     69
                      A                      A                      A
 Frequencies --   3164.8146              3175.2283              3182.8610
 Red. masses --      1.0883                 1.0874                 1.0957
 Frc consts  --      6.4226                 6.4595                 6.5400
 IR Inten    --     12.6523                 4.4286                15.7607

                     70                     71                     72
                      A                      A                      A
 Frequencies --   3188.4237              3204.1668              3207.6914
 Red. masses --      1.0921                 1.0926                 1.0939
 Frc consts  --      6.5414                 6.6092                 6.6315
 IR Inten    --     18.4252                 7.2883                18.9825

                     73                     74                     75
                      A                      A                      A
 Frequencies --   3526.8426              3692.2140              3792.3043
 Red. masses --      1.0501                 1.1015                 1.0662
 Frc consts  --      7.6960                 8.8473                 9.0347
 IR Inten    --    127.1569               164.3979               201.0323

 - Thermochemistry -
 -------------------
 Temperature   298.150 Kelvin.  Pressure   1.00000 Atm.
 Atom     1 has atomic number  7 and mass  14.00307

 Molecular mass:   239.05824 amu.
 Principal axes and moments of inertia in atomic units:
                           1         2         3
     Eigenvalues --  2529.660384751.177177280.69975
           X            0.98911   0.14657  -0.01345
           Y           -0.14188   0.97376   0.17791
           Z            0.03918  -0.17406   0.98395
 This molecule is an asymmetric top.
 Rotational symmetry number  1.
 Warning -- assumption of classical behavior for rotation
           may cause significant error
 Rotational temperatures (Kelvin)      0.03424     0.01823     0.01190
 Rotational constants (GHZ):           0.71343     0.37985     0.24788
 Zero-point vibrational energy     523378.1 (Joules/Mol)
                                  125.09038 (Kcal/Mol)
 Warning -- explicit consideration of  23 degrees of freedom as
           vibrations may cause significant error
 Vibrational temperatures:     35.34    68.79   126.74   161.50   227.13
          (Kelvin)            266.93   306.69   343.06   449.71   482.73
                              501.60   541.40   568.64   592.69   614.20
                              614.26   628.53   659.08   705.00   719.38
                              736.18   836.56   874.22   913.54   955.16
                              964.43  1023.47  1059.72  1069.60  1105.84
                             1165.58  1179.97  1206.70  1254.90  1305.56
                             1312.22  1383.89  1390.09  1440.56  1469.57
                             1484.52  1519.33  1599.87  1606.55  1691.10
                             1704.08  1732.57  1757.07  1795.20  1826.72
                             1858.99  1899.11  1952.66  1957.85  2042.36
                             2083.73  2124.68  2137.61  2166.33  2250.91
                             2281.90  2310.56  2333.22  2340.76  2389.15
                             2430.91  4553.46  4568.45  4579.43  4587.43
                             4610.08  4615.15  5074.34  5312.27  5456.28

 Zero-point correction=                           0.199344 (Hartree/Particle)
 Thermal correction to Energy=                    0.213434
 Thermal correction to Enthalpy=                  0.214378
 Thermal correction to Gibbs Free Energy=         0.157795
 Sum of electronic and zero-point Energies=           -819.390924
 Sum of electronic and thermal Energies=              -819.376833
 Sum of electronic and thermal Enthalpies=            -819.375889
 Sum of electronic and thermal Free Energies=         -819.432473

                     E (Thermal)             CV                S
                      KCal/Mol        Cal/Mol-Kelvin    Cal/Mol-Kelvin
 Total                  133.932             56.202            119.090
 Electronic               0.000              0.000              0.000
 Translational            0.889              2.981             42.316
 Rotational               0.889              2.981             32.837
 Vibrational            132.155             50.240             43.938
 Vibration     1          0.593              1.985              6.226
 Vibration     2          0.595              1.978              4.906
 Vibration     3          0.601              1.958              3.702
 Vibration     4          0.607              1.939              3.230
 Vibration     5          0.621              1.894              2.575
 Vibration     6          0.632              1.860              2.272
 Vibration     7          0.644              1.821              2.016
 Vibration     8          0.656              1.782              1.815
 Vibration     9          0.701              1.650              1.349
 Vibration    10          0.717              1.605              1.233
 Vibration    11          0.726              1.578              1.172
 Vibration    12          0.747              1.521              1.054
 Vibration    13          0.762              1.480              0.980
 Vibration    14          0.776              1.444              0.920
 Vibration    15          0.789              1.412              0.869
 Vibration    16          0.789              1.412              0.869
 Vibration    17          0.797              1.390              0.837
 Vibration    18          0.816              1.343              0.772
 Vibration    19          0.846              1.272              0.684
 Vibration    20          0.855              1.250              0.658
 Vibration    21          0.867              1.224              0.630
 Vibration    22          0.938              1.071              0.483
 Vibration    23          0.966              1.016              0.437

                           ! Non-Optimized Parameters !
 Normal termination of Gaussian 16 at Sat Feb 10 17:51:32 2024.
