 Gaussian 16, Revision A.03,
 Gaussian 16:  ES64L-G16RevA.03 25-Dec-2016

 ----------------------------------------------------------------
 #P UB3LYP/6-311++G(d,p) SCRF=(PCM,Solvent=n,n-DiMethylFormamide)
 ----------------------------------------------------------------

 ------------------
 Radical PCM in DMF
 ------------------
 Symbolic Z-matrix:
 Charge = -1 Multiplicity = 2

                         Standard orientation:
 ---------------------------------------------------------------------
 Center     Atomic      Atomic             Coordinates (Angstroms)
 Number     Number       Type             X           Y           Z
 ---------------------------------------------------------------------
      1          8           0       -0.219936    1.755115   -0.000492
      2          6           0       -0.513483    0.525649   -0.000188
      3          6           0       -1.977741    0.172950   -0.000108
      4          6           0       -2.881640    1.256768   -0.000148
      5          6           0       -4.257418    1.061029   -0.000003
      6          6           0       -4.786971   -0.232287    0.000149
      7          6           0       -3.909620   -1.316966    0.000172
      8          6           0       -2.527939   -1.125940    0.000080
      9          6           0        0.513618   -0.525146    0.000038
     10          8           0        0.220130   -1.754689    0.000164
     11          6           0        1.977712   -0.172816    0.000051
     12          6           0        2.881347   -1.256826   -0.000272
     13          6           0        4.257127   -1.061419   -0.000293
     14          6           0        4.786889    0.231830    0.000064
     15          6           0        3.909825    1.316833    0.000419
     16          6           0        2.528110    1.126002    0.000371
     17          1           0       -2.459135    2.254058   -0.000247
     18          1           0       -4.923226    1.919902   -0.000002
     19          1           0       -5.861543   -0.389420    0.000241
     20          1           0       -4.303171   -2.329891    0.000269
     21          1           0       -1.853184   -1.968565    0.000165
     22          1           0        2.458533   -2.254031   -0.000533
     23          1           0        4.922748   -1.920443   -0.000595
     24          1           0        5.861476    0.388679    0.000074
     25          1           0        4.303549    2.329644    0.000729
     26          1           0        1.853503    1.968683    0.000532
 ---------------------------------------------------------------------

 SCF Done:  E(UB3LYP) =  -690.267283153     A.U. after   18 cycles

 The electronic state is 2-A.
 Alpha  occ. eigenvalues --  -19.07010 -19.07007 -10.21570 -10.21537 -10.17176
 Alpha  occ. eigenvalues --  -10.17173 -10.17040 -10.17039 -10.16930 -10.16929
 Alpha  occ. eigenvalues --  -10.16818 -10.16818 -10.16316 -10.16314 -10.16150
 Alpha  occ. eigenvalues --  -10.16149  -1.00414  -0.98693  -0.84955  -0.84776
 Alpha  occ. eigenvalues --   -0.74997  -0.74921  -0.73978  -0.73865  -0.66695
 Alpha  occ. eigenvalues --   -0.61659  -0.60225  -0.59404  -0.57622  -0.53702
 Alpha  occ. eigenvalues --   -0.50948  -0.47826  -0.46916  -0.44735  -0.43759
 Alpha  occ. eigenvalues --   -0.43744  -0.42611  -0.41519  -0.41278  -0.40833
 Alpha  occ. eigenvalues --   -0.40656  -0.39076  -0.37245  -0.35446  -0.35418
 Alpha  occ. eigenvalues --   -0.34296  -0.33825  -0.33357  -0.33109  -0.26108
 Alpha  occ. eigenvalues --   -0.25659  -0.25274  -0.25110  -0.24957  -0.21418
 Alpha  occ. eigenvalues --   -0.14493
 Alpha virt. eigenvalues --   -0.04088  -0.00881  -0.00755  -0.00270   0.00264
 Alpha virt. eigenvalues --    0.01066   0.01340   0.01899   0.02163   0.03580
 Alpha virt. eigenvalues --    0.03931   0.04468   0.04566   0.05792   0.06039

  Beta  occ. eigenvalues --  -19.06327 -19.06324 -10.21313 -10.21283 -10.17223
  Beta  occ. eigenvalues --  -10.17221 -10.16991 -10.16991 -10.16939 -10.16939
  Beta  occ. eigenvalues --  -10.16846 -10.16845 -10.16251 -10.16249 -10.16090
  Beta  occ. eigenvalues --  -10.16089  -0.99191  -0.97435  -0.84886  -0.84689
  Beta  occ. eigenvalues --   -0.74882  -0.74623  -0.73914  -0.73802  -0.65527
  Beta  occ. eigenvalues --   -0.61402  -0.60169  -0.59359  -0.57353  -0.53561
  Beta  occ. eigenvalues --   -0.50875  -0.47558  -0.46747  -0.44529  -0.43680
  Beta  occ. eigenvalues --   -0.43665  -0.42264  -0.41485  -0.40669  -0.40547
  Beta  occ. eigenvalues --   -0.39222  -0.38545  -0.36845  -0.35324  -0.34444
  Beta  occ. eigenvalues --   -0.34057  -0.33326  -0.33047  -0.30784  -0.25490
  Beta  occ. eigenvalues --   -0.25222  -0.25092  -0.24537  -0.23983  -0.20786
  Beta virt. eigenvalues --   -0.07071  -0.02885  -0.00742  -0.00563  -0.00261
  Beta virt. eigenvalues --    0.00262   0.01342   0.01918   0.02093   0.02152
  Beta virt. eigenvalues --    0.03579   0.03937   0.04487   0.04641   0.05787

 Mulliken charges and spin densities:
               1          2
     1  O   -0.416303   0.258141
     2  C   -0.399461   0.192742
     3  C    1.587045  -0.071488
     4  C    0.422060   0.081434
     5  C   -0.319662  -0.024360
     6  C   -0.496733   0.059160
     7  C   -0.436621  -0.030926
     8  C   -1.330099   0.048414
     9  C   -0.398753   0.192785
    10  O   -0.416349   0.258200
    11  C    1.586374  -0.071525
    12  C    0.422205   0.081486
    13  C   -0.319508  -0.024378
    14  C   -0.496819   0.059206
    15  C   -0.436278  -0.030943
    16  C   -1.330429   0.048456
    17  H    0.176432  -0.006110
    18  H    0.186234   0.001410
    19  H    0.163899  -0.003969
    20  H    0.197164   0.001203
    21  H    0.165949  -0.005730
    22  H    0.176431  -0.006115
    23  H    0.186235   0.001411
    24  H    0.163892  -0.003973
    25  H    0.197164   0.001204
    26  H    0.165930  -0.005732
 Sum of Mulliken charges =  -1.00000   1.00000

 Dipole moment (field-independent basis, Debye):
    X=             -0.0011    Y=             -0.0005    Z=              0.0008  Tot=              0.0014
 Quadrupole moment (field-independent basis, Debye-Ang):
   XX=            -98.9910   YY=           -106.1517   ZZ=           -102.7520
   XY=              1.4156   XZ=             -0.0015   YZ=              0.0052

 Normal termination of Gaussian 16 at Sat Jan 13 19:19:17 2024.
