 Q-Chem 5.4, Q-Chem, Inc., Pleasanton, CA (2021)
 Q-Chem 5.4.0 for Intel X86 EM64T Linux

User input:
--------------------------------------------------------------
$molecule
-1 2
C                 -2.5944850000     -2.4921330000      0.4055760000
O                 -2.4129980000     -1.2866460000     -0.3339220000
C                 -1.1845300000     -0.6804450000     -0.1930100000
C                 -1.1493220000      0.6081870000      0.3249430000
O                 -2.3215050000      1.1399530000      0.8145570000
C                 -2.7792660000      2.3245420000      0.1663800000
C                  0.0736920000      1.3727590000      0.4416530000
O                  0.0992810000      2.5343560000      0.9315050000
C                  1.2923650000      0.7010960000     -0.0308470000
C                  2.5276310000      1.3745750000      0.0444860000
C                  3.6973700000      0.7698180000     -0.3798040000
C                  3.6630770000     -0.5408950000     -0.8960970000
C                  2.4599790000     -1.2192930000     -0.9758250000
C                  1.2585080000     -0.6214340000     -0.5466960000
C                 -0.0010070000     -1.3700750000     -0.6594670000
O                 -0.0450530000     -2.5320860000     -1.1470570000
H                 -1.8570180000     -3.2426060000      0.1140480000
H                 -2.5282970000     -2.2936020000      1.4835660000
H                 -3.6014620000     -2.8445880000      0.1703700000
H                 -2.0358010000      3.1207280000      0.2398380000
H                 -3.6960690000      2.6188830000      0.6825040000
H                 -3.0125620000      2.1188990000     -0.8867850000
H                  2.5235100000      2.3809090000      0.4476710000
H                  4.6410950000      1.3037650000     -0.3156210000
H                  4.5802790000     -1.0171010000     -1.2304720000
H                  2.4025880000     -2.2275670000     -1.3699960000
$end

$rem
BASIS  =  6-311++G(d,p)
GUI  =  2
JOB_TYPE  =  SP
METHOD  =  B3LYP
SCF_CONVERGENCE  = 8
SOLVENT_METHOD = sm12
$end

$smx
solvent dimethylformamide
charges CM5
$end

--------------------------------------------------------------

             Standard Nuclear Orientation (Angstroms)
    I     Atom           X                Y                Z
 ----------------------------------------------------------------
    1      C      -2.5944850000    -2.4921330000     0.4055760000
    2      O      -2.4129980000    -1.2866460000    -0.3339220000
    3      C      -1.1845300000    -0.6804450000    -0.1930100000
    4      C      -1.1493220000     0.6081870000     0.3249430000
    5      O      -2.3215050000     1.1399530000     0.8145570000
    6      C      -2.7792660000     2.3245420000     0.1663800000
    7      C       0.0736920000     1.3727590000     0.4416530000
    8      O       0.0992810000     2.5343560000     0.9315050000
    9      C       1.2923650000     0.7010960000    -0.0308470000
   10      C       2.5276310000     1.3745750000     0.0444860000
   11      C       3.6973700000     0.7698180000    -0.3798040000
   12      C       3.6630770000    -0.5408950000    -0.8960970000
   13      C       2.4599790000    -1.2192930000    -0.9758250000
   14      C       1.2585080000    -0.6214340000    -0.5466960000
   15      C      -0.0010070000    -1.3700750000    -0.6594670000
   16      O      -0.0450530000    -2.5320860000    -1.1470570000
   17      H      -1.8570180000    -3.2426060000     0.1140480000
   18      H      -2.5282970000    -2.2936020000     1.4835660000
   19      H      -3.6014620000    -2.8445880000     0.1703700000
   20      H      -2.0358010000     3.1207280000     0.2398380000
   21      H      -3.6960690000     2.6188830000     0.6825040000
   22      H      -3.0125620000     2.1188990000    -0.8867850000
   23      H       2.5235100000     2.3809090000     0.4476710000
   24      H       4.6410950000     1.3037650000    -0.3156210000
   25      H       4.5802790000    -1.0171010000    -1.2304720000
   26      H       2.4025880000    -2.2275670000    -1.3699960000
 ----------------------------------------------------------------

   16    -764.4328153030      6.26e-09  Convergence criterion met
 Total energy in the final basis set =     -764.5130631272

                    Orbital Energies (a.u.)
 --------------------------------------------------------------

 Alpha MOs
 -- Occupied --
-19.1341 -19.1340 -19.0755 -19.0755 -10.2238 -10.2237 -10.2184 -10.2179
-10.2083 -10.2083 -10.1814 -10.1809 -10.1791 -10.1787 -10.1776 -10.1776
 -1.0600  -1.0409  -0.9971  -0.9946  -0.8638  -0.8053  -0.7569  -0.7499
 -0.7081  -0.6811  -0.6642  -0.6117  -0.6047  -0.5675  -0.5316  -0.5212
 -0.4997  -0.4707  -0.4686  -0.4651  -0.4471  -0.4443  -0.4375  -0.4281
 -0.4236  -0.4098  -0.4076  -0.3957  -0.3738  -0.3686  -0.3596  -0.3483
 -0.3449  -0.3432  -0.2902  -0.2859  -0.2695  -0.2630  -0.2384  -0.2374
 -0.2325  -0.1525

 Beta MOs
 -- Occupied --
-19.1339 -19.1338 -19.0691 -19.0691 -10.2222 -10.2222 -10.2173 -10.2167
-10.2082 -10.2082 -10.1810 -10.1805 -10.1785 -10.1781 -10.1776 -10.1775
 -1.0588  -1.0395  -0.9863  -0.9838  -0.8617  -0.8009  -0.7550  -0.7483
 -0.7055  -0.6796  -0.6573  -0.6107  -0.6016  -0.5650  -0.5300  -0.5194
 -0.4987  -0.4683  -0.4656  -0.4629  -0.4463  -0.4424  -0.4366  -0.4274
 -0.4217  -0.4008  -0.3998  -0.3915  -0.3674  -0.3552  -0.3523  -0.3453
 -0.3434  -0.3342  -0.2877  -0.2824  -0.2559  -0.2493  -0.2322  -0.2319
 -0.2231

          Ground-State Mulliken Net Atomic Charges

     Atom                 Charge (a.u.)    Spin (a.u.)
  --------------------------------------------------------
      1 C                    -0.013125       0.001104
      2 O                    -0.089381       0.000558
      3 C                    -0.014758       0.113122
      4 C                    -0.001437       0.113116
      5 O                    -0.089541       0.000602
      6 C                    -0.014701       0.001003
      7 C                    -1.348707       0.051168
      8 O                    -0.318886       0.241109
      9 C                    -0.739280       0.035096
     10 C                     0.117552       0.030406
     11 C                     0.901421       0.031000
     12 C                     0.899235       0.031065
     13 C                     0.116069       0.030398
     14 C                    -0.736822       0.034823
     15 C                    -1.354248       0.051055
     16 O                    -0.318864       0.241015
     17 H                     0.139669      -0.000055
     18 H                     0.128252       0.000945
     19 H                     0.232687       0.000541
     20 H                     0.139544      -0.000049
     21 H                     0.232950       0.000537
     22 H                     0.128623       0.001000
     23 H                     0.150696      -0.002227
     24 H                     0.351366      -0.002550
     25 H                     0.351090      -0.002556
     26 H                     0.150596      -0.002225
  --------------------------------------------------------
  Sum of atomic charges =    -1.000000

                    Cartesian Multipole Moments
 -----------------------------------------------------------------
    Charge (ESU x 10^10)
                -4.8032
    Dipole Moment (Debye)
         X       0.0856      Y       0.0037      Z       0.4840
       Tot       0.4915
    Quadrupole Moments (Debye-Ang)
        XX    -101.9426     XY      -1.3806     YY    -118.5665
        XZ      -0.1032     YZ     -13.0715     ZZ    -105.4956

 Total job time:  616.73s(wall), 4106.57s(cpu)
        *  Thank you very much for using Q-Chem.  Have a nice day.  *
