 Q-Chem 5.4, Q-Chem, Inc., Pleasanton, CA (2021)
 Q-Chem 5.4.0 for Intel X86 EM64T Linux

User input:
--------------------------------------------------------------
$molecule
0 1
C                 -1.7480460000     -3.7197970000      1.2984710000
C                 -0.3208420000     -3.9766060000      1.0488980000
C                  0.4573230000     -2.9906530000      0.5900680000
C                 -0.0783770000     -1.6202200000      0.3183040000
C                 -1.5079370000     -1.3418070000      0.5621360000
C                 -2.2826210000     -2.3500090000      1.0269190000
O                 -2.5201460000     -4.5719270000      1.7176000000
O                  0.6813050000     -0.7585130000     -0.1009210000
O                 -3.5933950000     -2.2105100000      1.2841470000
C                 -2.0207290000      0.0385370000      0.2827110000
H                  0.0391260000     -4.9779920000      1.2544530000
H                  1.5144140000     -3.1224850000      0.3884950000
H                 -1.4862750000      0.7756720000      0.8885110000
H                 -3.0864860000      0.1092210000      0.4942640000
H                 -1.8440470000      0.3084610000     -0.7621020000
H                 -3.9062990000     -3.0771430000      1.6031750000
$end
$rem
MAX_SCF_CYCLES=200
BASIS  =  6-311++G(d,p)
GUI  =  2
JOB_TYPE  =  SP
METHOD  =  B3LYP
SOLVENT_METHOD = COSMO
$end
$solvent
dielectric 37.219
opticaldielectric 1.43
$end

--------------------------------------------------------------

             Standard Nuclear Orientation (Angstroms)
    I     Atom           X                Y                Z
 ----------------------------------------------------------------
    1      C       1.4786971066     0.4624059009    -0.0000652241
    2      C       0.8420077461     1.7889711813     0.0000676919
    3      C      -0.4920218751     1.8813508739     0.0001962532
    4      C      -1.3697823866     0.6695533635    -0.0000209310
    5      C      -0.7506337027    -0.6710675747    -0.0002298995
    6      C       0.6009191254    -0.7481046929    -0.0000175793
    7      O       2.6917836868     0.3000667313    -0.0001565348
    8      O      -2.5838204262     0.8162398668    -0.0000833502
    9      O       1.2702592557    -1.9124665030     0.0002256458
   10      C      -1.6507874406    -1.8694442915    -0.0000992000
   11      H       1.5023456784     2.6483648950     0.0000805788
   12      H      -1.0147636174     2.8311896975     0.0003098031
   13      H      -2.2983861136    -1.8620233626     0.8811292691
   14      H      -1.0724746673    -2.7919741385    -0.0091490902
   15      H      -2.3115842149    -1.8521115882    -0.8711657303
   16      H       2.2186913660    -1.6861548265    -0.0000775845
 ----------------------------------------------------------------

    9    -496.1520020020      8.33e-06  Convergence criterion met
 Total energy in the final basis set =     -496.1520020020
    5    -496.1662992479      5.19e-06  Convergence criterion met
 Total energy in the final basis set =     -496.1662992479

                    Orbital Energies (a.u.)
 --------------------------------------------------------------

 Alpha MOs
 -- Occupied --
-19.1795 -19.1581 -19.1396 -10.2984 -10.2856 -10.2685 -10.2153 -10.2124
-10.2060 -10.1726  -1.1108  -1.0729  -1.0706  -0.8652  -0.8055  -0.7260
 -0.6964  -0.6367  -0.6172  -0.5582  -0.5326  -0.5056  -0.4817  -0.4750
 -0.4501  -0.4403  -0.4352  -0.4286  -0.4116  -0.3958  -0.3953  -0.3859
 -0.3157  -0.3079  -0.2864  -0.2612

          Ground-State Mulliken Net Atomic Charges

     Atom                 Charge (a.u.)
  ----------------------------------------
      1 C                    -0.016925
      2 C                     0.060987
      3 C                     0.270371
      4 C                    -1.000129
      5 C                     2.150675
      6 C                    -1.759758
      7 O                    -0.333668
      8 O                    -0.308232
      9 O                    -0.251938
     10 C                    -0.240377
     11 H                     0.266448
     12 H                     0.260033
     13 H                     0.192690
     14 H                     0.194739
     15 H                     0.191572
     16 H                     0.323512
  ----------------------------------------
  Sum of atomic charges =     0.000000

                    Cartesian Multipole Moments
 -----------------------------------------------------------------
    Charge (ESU x 10^10)
                 0.0000
    Dipole Moment (Debye)
         X       1.5534      Y       0.8892      Z       0.0006
       Tot       1.7899
    Quadrupole Moments (Debye-Ang)
        XX     -72.9559     XY       3.0101     YY     -51.5556
        XZ      -0.0040     YZ      -0.0004     ZZ     -57.3797

 Total job time:  15.03s(wall), 99.97s(cpu)
        *  Thank you very much for using Q-Chem.  Have a nice day.  *
