 Q-Chem 5.4, Q-Chem, Inc., Pleasanton, CA (2021)
 Q-Chem 5.4.0 for Intel X86 EM64T Linux

User input:
--------------------------------------------------------------
$molecule
-1 2
C                  4.7372900000      0.2259260000      0.9495670000
C                  3.9497170000     -0.6044050000     -0.0813110000
C                  4.5911080000     -0.4931160000     -1.4772550000
C                  2.4708950000     -0.2464200000     -0.0985240000
C                  2.0291190000      1.0465790000     -0.4560880000
C                  0.6798840000      1.3549570000     -0.4671600000
C                 -0.3117020000      0.4089070000     -0.1271420000
C                  0.1274140000     -0.8908140000      0.2328240000
C                  1.5099000000     -1.1823510000      0.2370320000
C                 -0.8078840000     -1.9591900000      0.6056460000
O                 -0.3909090000     -3.0951470000      0.9187190000
C                 -2.2619430000     -1.6515800000      0.5994070000
O                 -3.0800150000     -2.5433690000      0.9117450000
C                 -2.6991600000     -0.2877340000      0.2206460000
C                 -4.0921630000      0.0524410000      0.2019220000
C                 -5.1963850000     -0.9201910000      0.5554360000
C                 -4.4775290000      1.3385670000     -0.1567150000
C                 -3.5398980000      2.3191060000     -0.5026900000
C                 -2.1955500000      2.0051410000     -0.4889130000
C                 -1.7420970000      0.7188120000     -0.1343590000
H                  4.3073340000      0.1153840000      1.9484370000
H                  4.7201300000      1.2909080000      0.6965240000
H                  5.7857670000     -0.0911620000      0.9895780000
H                  4.0140710000     -1.6544660000      0.2259790000
H                  4.0579270000     -1.1148360000     -2.2011390000
H                  5.6388680000     -0.8142120000     -1.4540360000
H                  4.5661970000      0.5383420000     -1.8432540000
H                  2.7462570000      1.8158710000     -0.7275410000
H                  0.3953140000      2.3612020000     -0.7490780000
H                  1.7881500000     -2.1921180000      0.5203160000
H                 -5.0853830000     -1.3077990000      1.5693290000
H                 -6.1659200000     -0.4174880000      0.4638840000
H                 -5.1836450000     -1.7995060000     -0.0904800000
H                 -5.5359080000      1.5834460000     -0.1669130000
H                 -3.8667330000      3.3168450000     -0.7791360000
H                 -1.4825180000      2.7734720000     -0.7587110000
$end

$rem
BASIS  =  6-311++G(d,p)
GUI  =  2
JOB_TYPE  =  SP
METHOD  =  B3LYP
SCF_CONVERGENCE  = 8
SOLVENT_METHOD = sm12
$end

$smx
solvent dimethylformamide
charges CM5
$end

--------------------------------------------------------------

             Standard Nuclear Orientation (Angstroms)
    I     Atom           X                Y                Z
 ----------------------------------------------------------------
    1      C       4.7372900000     0.2259260000     0.9495670000
    2      C       3.9497170000    -0.6044050000    -0.0813110000
    3      C       4.5911080000    -0.4931160000    -1.4772550000
    4      C       2.4708950000    -0.2464200000    -0.0985240000
    5      C       2.0291190000     1.0465790000    -0.4560880000
    6      C       0.6798840000     1.3549570000    -0.4671600000
    7      C      -0.3117020000     0.4089070000    -0.1271420000
    8      C       0.1274140000    -0.8908140000     0.2328240000
    9      C       1.5099000000    -1.1823510000     0.2370320000
   10      C      -0.8078840000    -1.9591900000     0.6056460000
   11      O      -0.3909090000    -3.0951470000     0.9187190000
   12      C      -2.2619430000    -1.6515800000     0.5994070000
   13      O      -3.0800150000    -2.5433690000     0.9117450000
   14      C      -2.6991600000    -0.2877340000     0.2206460000
   15      C      -4.0921630000     0.0524410000     0.2019220000
   16      C      -5.1963850000    -0.9201910000     0.5554360000
   17      C      -4.4775290000     1.3385670000    -0.1567150000
   18      C      -3.5398980000     2.3191060000    -0.5026900000
   19      C      -2.1955500000     2.0051410000    -0.4889130000
   20      C      -1.7420970000     0.7188120000    -0.1343590000
   21      H       4.3073340000     0.1153840000     1.9484370000
   22      H       4.7201300000     1.2909080000     0.6965240000
   23      H       5.7857670000    -0.0911620000     0.9895780000
   24      H       4.0140710000    -1.6544660000     0.2259790000
   25      H       4.0579270000    -1.1148360000    -2.2011390000
   26      H       5.6388680000    -0.8142120000    -1.4540360000
   27      H       4.5661970000     0.5383420000    -1.8432540000
   28      H       2.7462570000     1.8158710000    -0.7275410000
   29      H       0.3953140000     2.3612020000    -0.7490780000
   30      H       1.7881500000    -2.1921180000     0.5203160000
   31      H      -5.0853830000    -1.3077990000     1.5693290000
   32      H      -6.1659200000    -0.4174880000     0.4638840000
   33      H      -5.1836450000    -1.7995060000    -0.0904800000
   34      H      -5.5359080000     1.5834460000    -0.1669130000
   35      H      -3.8667330000     3.3168450000    -0.7791360000
   36      H      -1.4825180000     2.7734720000    -0.7587110000
 ----------------------------------------------------------------

   17    -846.2951878219      7.81e-09  Convergence criterion met
 Total energy in the final basis set =     -846.3882184063

                    Orbital Energies (a.u.)
 --------------------------------------------------------------

 Alpha MOs
 -- Occupied --
-19.0694 -19.0684 -10.2151 -10.2117 -10.1921 -10.1908 -10.1879 -10.1839
-10.1827 -10.1818 -10.1813 -10.1799 -10.1787 -10.1778 -10.1750 -10.1750
-10.1695 -10.1628 -10.1628 -10.1621  -1.0092  -0.9810  -0.8778  -0.8575
 -0.8157  -0.7808  -0.7768  -0.7557  -0.7241  -0.7007  -0.6878  -0.6688
 -0.6365  -0.6131  -0.5987  -0.5810  -0.5666  -0.5266  -0.5058  -0.4910
 -0.4727  -0.4669  -0.4582  -0.4427  -0.4364  -0.4318  -0.4250  -0.4206
 -0.4185  -0.4043  -0.4035  -0.3998  -0.3968  -0.3897  -0.3784  -0.3741
 -0.3646  -0.3613  -0.3526  -0.3462  -0.3431  -0.3318  -0.3314  -0.3281
 -0.2893  -0.2635  -0.2552  -0.2473  -0.2267  -0.2170  -0.1479

 Beta MOs
 -- Occupied --
-19.0630 -19.0618 -10.2138 -10.2101 -10.1912 -10.1902 -10.1870 -10.1838
-10.1828 -10.1819 -10.1817 -10.1793 -10.1786 -10.1769 -10.1750 -10.1749
-10.1689 -10.1628 -10.1628 -10.1621  -0.9982  -0.9690  -0.8761  -0.8564
 -0.8146  -0.7797  -0.7741  -0.7539  -0.7230  -0.6976  -0.6878  -0.6641
 -0.6356  -0.6108  -0.5959  -0.5798  -0.5650  -0.5255  -0.5040  -0.4899
 -0.4704  -0.4658  -0.4573  -0.4419  -0.4360  -0.4250  -0.4246  -0.4191
 -0.4178  -0.3992  -0.3975  -0.3971  -0.3946  -0.3888  -0.3763  -0.3635
 -0.3597  -0.3577  -0.3516  -0.3432  -0.3424  -0.3312  -0.3277  -0.3082
 -0.2829  -0.2541  -0.2463  -0.2409  -0.2215  -0.2111

          Ground-State Mulliken Net Atomic Charges

     Atom                 Charge (a.u.)    Spin (a.u.)
  --------------------------------------------------------
      1 C                    -0.206719       0.001096
      2 C                     2.268715       0.006058
      3 C                    -0.206977       0.001081
      4 C                     1.498964      -0.019309
      5 C                     0.268102       0.079851
      6 C                     0.436818      -0.020886
      7 C                    -1.847881       0.045489
      8 C                    -1.012991       0.043315
      9 C                    -0.660912       0.064659
     10 C                    -2.230133       0.095117
     11 O                    -0.345620       0.245176
     12 C                    -2.001072       0.068261
     13 O                    -0.294387       0.250578
     14 C                    -0.202353       0.002580
     15 C                    -0.712775       0.057417
     16 C                     0.532890       0.000237
     17 C                     0.686188      -0.011606
     18 C                     1.217043       0.079316
     19 C                    -0.292956      -0.027511
     20 C                    -1.271777       0.050174
     21 H                     0.109811       0.000044
     22 H                     0.191831      -0.000237
     23 H                     0.275611      -0.000376
     24 H                     0.247003       0.000129
     25 H                     0.109589       0.000033
     26 H                     0.275528      -0.000374
     27 H                     0.191581      -0.000241
     28 H                     0.325210      -0.005165
     29 H                     0.338203       0.002402
     30 H                     0.010892      -0.006645
     31 H                     0.104915       0.001463
     32 H                     0.255811      -0.000330
     33 H                     0.105139       0.001477
     34 H                     0.248530      -0.000128
     35 H                     0.405628      -0.005332
     36 H                     0.182553       0.002186
  --------------------------------------------------------
  Sum of atomic charges =    -1.000000

                    Cartesian Multipole Moments
 -----------------------------------------------------------------
    Charge (ESU x 10^10)
                -4.8032
    Dipole Moment (Debye)
         X       8.2090      Y      10.4104      Z      -3.4604
       Tot      13.7018
    Quadrupole Moments (Debye-Ang)
        XX    -143.7453     XY     -16.8217     YY    -155.3627
        XZ       5.7818     YZ       9.1759     ZZ    -129.9424

 Total job time:  1342.76s(wall), 10215.93s(cpu)
        *  Thank you very much for using Q-Chem.  Have a nice day.  *
