 Gaussian 16, Revision A.03,
 Gaussian 16:  ES64L-G16RevA.03 25-Dec-2016

 --------------------------------------
 #P UB3LYP/6-311++G(d,p) nosym opt freq
 --------------------------------------

 -------
 Radical
 -------
 Symbolic Z-matrix:
 Charge = -1 Multiplicity = 2

 SCF Done:  E(UB3LYP) =  -846.302199879     A.U. after   24 cycles
 Optimization completed.
    -- Stationary point found.
 Normal termination of Gaussian 16 at Tue Jan  9 20:42:15 2024.

 ----------------------------------------------------------------------
 #P Geom=AllCheck Guess=TCheck SCRF=Check GenChk UB3LYP/6-311++G(d,p) F
 req
 ----------------------------------------------------------------------

 Structure from the checkpoint file:  "330-rad.chk"
 -------
 Radical
 -------
 Charge = -1 Multiplicity = 2

                          Input orientation:
 ---------------------------------------------------------------------
 Center     Atomic      Atomic             Coordinates (Angstroms)
 Number     Number       Type             X           Y           Z
 ---------------------------------------------------------------------
      1          6           0        4.737290    0.225926    0.949567
      2          6           0        3.949717   -0.604405   -0.081311
      3          6           0        4.591108   -0.493116   -1.477255
      4          6           0        2.470895   -0.246420   -0.098524
      5          6           0        2.029119    1.046579   -0.456088
      6          6           0        0.679884    1.354957   -0.467160
      7          6           0       -0.311702    0.408907   -0.127142
      8          6           0        0.127414   -0.890814    0.232824
      9          6           0        1.509900   -1.182351    0.237032
     10          6           0       -0.807884   -1.959190    0.605646
     11          8           0       -0.390909   -3.095147    0.918719
     12          6           0       -2.261943   -1.651580    0.599407
     13          8           0       -3.080015   -2.543369    0.911745
     14          6           0       -2.699160   -0.287734    0.220646
     15          6           0       -4.092163    0.052441    0.201922
     16          6           0       -5.196385   -0.920191    0.555436
     17          6           0       -4.477529    1.338567   -0.156715
     18          6           0       -3.539898    2.319106   -0.502690
     19          6           0       -2.195550    2.005141   -0.488913
     20          6           0       -1.742097    0.718812   -0.134359
     21          1           0        4.307334    0.115384    1.948437
     22          1           0        4.720130    1.290908    0.696524
     23          1           0        5.785767   -0.091162    0.989578
     24          1           0        4.014071   -1.654466    0.225979
     25          1           0        4.057927   -1.114836   -2.201139
     26          1           0        5.638868   -0.814212   -1.454036
     27          1           0        4.566197    0.538342   -1.843254
     28          1           0        2.746257    1.815871   -0.727541
     29          1           0        0.395314    2.361202   -0.749078
     30          1           0        1.788150   -2.192118    0.520316
     31          1           0       -5.085383   -1.307799    1.569329
     32          1           0       -6.165920   -0.417488    0.463884
     33          1           0       -5.183645   -1.799506   -0.090480
     34          1           0       -5.535908    1.583446   -0.166913
     35          1           0       -3.866733    3.316845   -0.779136
     36          1           0       -1.482518    2.773472   -0.758711
 ---------------------------------------------------------------------

 SCF Done:  E(UB3LYP) =  -846.302199879     A.U. after    1 cycles

 Alpha  occ. eigenvalues --  -18.93673 -18.93633 -10.08820 -10.08419 -10.08039
 Alpha  occ. eigenvalues --  -10.07594 -10.07594 -10.06776 -10.06662 -10.06608
 Alpha  occ. eigenvalues --  -10.06392 -10.06228 -10.06108 -10.06061 -10.05817
 Alpha  occ. eigenvalues --  -10.05595 -10.05463 -10.04890 -10.04830 -10.04216
 Alpha  occ. eigenvalues --   -0.87681  -0.84765  -0.75729  -0.73942  -0.70802
 Alpha  occ. eigenvalues --   -0.66517  -0.65517  -0.63493  -0.60696  -0.60128
 Alpha  occ. eigenvalues --   -0.57842  -0.54601  -0.52313  -0.49647  -0.47844
 Alpha  occ. eigenvalues --   -0.46611  -0.44786  -0.40724  -0.39112  -0.37424
 Alpha  occ. eigenvalues --   -0.35700  -0.35417  -0.34875  -0.32977  -0.32843
 Alpha  occ. eigenvalues --   -0.32075  -0.31217  -0.30572  -0.30409  -0.29886
 Alpha  occ. eigenvalues --   -0.28716  -0.28057  -0.27692  -0.27217  -0.26148
 Alpha  occ. eigenvalues --   -0.25869  -0.24770  -0.24659  -0.23902  -0.23747
 Alpha  occ. eigenvalues --   -0.23556  -0.21738  -0.21262  -0.20205  -0.16988
 Alpha  occ. eigenvalues --   -0.13959  -0.13113  -0.11391  -0.10481  -0.08418
 Alpha  occ. eigenvalues --   -0.01678
 Alpha virt. eigenvalues --    0.06257   0.07464   0.07596   0.08384   0.08564
 Alpha virt. eigenvalues --    0.08800   0.09308   0.10047   0.10730   0.11340
 Alpha virt. eigenvalues --    0.11918   0.12281   0.12317   0.12621   0.13356

  Beta  occ. eigenvalues --  -18.93023 -18.92976 -10.08821 -10.08308 -10.07917
  Beta  occ. eigenvalues --  -10.07593 -10.07593 -10.06729 -10.06610 -10.06566
  Beta  occ. eigenvalues --  -10.06312 -10.06256 -10.06018 -10.05970 -10.05852
  Beta  occ. eigenvalues --  -10.05575 -10.05456 -10.04849 -10.04787 -10.04217
  Beta  occ. eigenvalues --   -0.86591  -0.83567  -0.75564  -0.73835  -0.70720
  Beta  occ. eigenvalues --   -0.66357  -0.65276  -0.63317  -0.60565  -0.60126
  Beta  occ. eigenvalues --   -0.57584  -0.54146  -0.52202  -0.49500  -0.47584
  Beta  occ. eigenvalues --   -0.46384  -0.44643  -0.40638  -0.38975  -0.37327
  Beta  occ. eigenvalues --   -0.35572  -0.35299  -0.34712  -0.32874  -0.32816
  Beta  occ. eigenvalues --   -0.31993  -0.31174  -0.30527  -0.29985  -0.29761
  Beta  occ. eigenvalues --   -0.28665  -0.27518  -0.27387  -0.26741  -0.25979
  Beta  occ. eigenvalues --   -0.25575  -0.24632  -0.23807  -0.23652  -0.23409
  Beta  occ. eigenvalues --   -0.22820  -0.21623  -0.21126  -0.17807  -0.16272
  Beta  occ. eigenvalues --   -0.12986  -0.12237  -0.10744  -0.09744  -0.07825
  Beta virt. eigenvalues --    0.04521   0.06255   0.07590   0.07745   0.08380
  Beta virt. eigenvalues --    0.08568   0.09305   0.09947   0.10044   0.10722
  Beta virt. eigenvalues --    0.11336   0.12252   0.12313   0.12588   0.13366

 Mulliken charges and spin densities:
               1          2
     1  C   -0.670237   0.000970
     2  C    0.103420   0.005181
     3  C   -0.669957   0.000960
     4  C    0.779299  -0.009048
     5  C   -0.844182   0.084239
     6  C   -0.217560  -0.025183
     7  C    0.457606   0.050088
     8  C    0.998731   0.067567
     9  C   -0.378312   0.045729
    10  C   -0.865406   0.077138
    11  O   -0.343218   0.248024
    12  C   -0.913067   0.053028
    13  O   -0.316575   0.247196
    14  C    0.638501   0.021502
    15  C    0.598184   0.045727
    16  C   -0.387919  -0.000135
    17  C   -0.498489  -0.002589
    18  C   -0.623347   0.080403
    19  C   -0.417885  -0.030932
    20  C    0.589010   0.052626
    21  H    0.139265   0.000264
    22  H    0.141964  -0.000118
    23  H    0.124099  -0.000605
    24  H    0.180658   0.000150
    25  H    0.139222   0.000262
    26  H    0.124012  -0.000602
    27  H    0.141958  -0.000119
    28  H    0.128981  -0.006009
    29  H    0.042741   0.002682
    30  H    0.152630  -0.005656
    31  H    0.164676   0.001137
    32  H    0.102125  -0.000626
    33  H    0.164694   0.001140
    34  H    0.060247  -0.000950
    35  H    0.148127  -0.005894
    36  H    0.026006   0.002450
 Sum of Mulliken charges =  -1.00000   1.00000

 Dipole moment (field-independent basis, Debye):
    X=              6.8750    Y=              8.3194    Z=             -2.7599  Tot=             11.1398
 Quadrupole moment (field-independent basis, Debye-Ang):
   XX=           -155.0287   YY=           -155.4135   ZZ=           -130.0250
   XY=            -13.0683   XZ=              5.3579   YZ=              8.9760

  Exact polarizability: 395.172 -14.607 252.900 -11.050 -33.932 146.392
 Approx polarizability: 556.613 -17.117 462.078 -15.354 -73.406 234.054

                      1                      2                      3
                      A                      A                      A
 Frequencies --     26.6294                32.2760                43.2046
 Red. masses --      4.4892                 3.7981                 3.9646
 Frc consts  --      0.0019                 0.0023                 0.0044
 IR Inten    --      0.2384                 1.1508                 1.5371

                      4                      5                      6
                      A                      A                      A
 Frequencies --     59.5570               126.8766               141.0525
 Red. masses --      3.9558                 3.8065                 3.9118
 Frc consts  --      0.0083                 0.0361                 0.0459
 IR Inten    --      0.0840                 2.0098                 0.2214

                      7                      8                      9
                      A                      A                      A
 Frequencies --    150.7686               203.4935               228.7029
 Red. masses --      4.7198                 2.3273                 1.0542
 Frc consts  --      0.0632                 0.0568                 0.0325
 IR Inten    --      1.1735                 0.2578                 0.0351

                     10                     11                     12
                      A                      A                      A
 Frequencies --    231.1125               235.1103               245.5003
 Red. masses --      2.5662                 1.2015                 1.5092
 Frc consts  --      0.0808                 0.0391                 0.0536
 IR Inten    --      0.6327                 0.0052                 0.9686

                     13                     14                     15
                      A                      A                      A
 Frequencies --    267.4575               272.3290               323.2813
 Red. masses --      4.6082                 2.5923                 4.9313
 Frc consts  --      0.1942                 0.1133                 0.3037
 IR Inten    --      0.4531                 2.3133                 0.6757

                     16                     17                     18
                      A                      A                      A
 Frequencies --    360.2295               378.3767               382.7359
 Red. masses --      3.4759                 4.8868                 6.4284
 Frc consts  --      0.2658                 0.4122                 0.5548
 IR Inten    --      0.3255                 1.2399                 0.2844

                     19                     20                     21
                      A                      A                      A
 Frequencies --    398.9115               403.6900               439.6172
 Red. masses --      7.3172                 4.6012                 4.1674
 Frc consts  --      0.6860                 0.4418                 0.4745
 IR Inten    --     10.1811                 3.4408                 5.5984

                     22                     23                     24
                      A                      A                      A
 Frequencies --    453.1200               460.5502               505.0421
 Red. masses --      3.4429                 6.4480                 3.7508
 Frc consts  --      0.4165                 0.8058                 0.5637
 IR Inten    --      6.5807                 2.2439                 0.1993

                     25                     26                     27
                      A                      A                      A
 Frequencies --    534.9354               558.4013               564.8627
 Red. masses --      4.1135                 5.4639                 4.1139
 Frc consts  --      0.6935                 1.0038                 0.7734
 IR Inten    --      2.3501                 2.7295                 3.9223

                     28                     29                     30
                      A                      A                      A
 Frequencies --    592.0674               626.1622               644.6815
 Red. masses --      3.2028                 3.4091                 5.5489
 Frc consts  --      0.6615                 0.7875                 1.3588
 IR Inten    --      0.1161                 1.2149                 0.8880

                     31                     32                     33
                      A                      A                      A
 Frequencies --    692.4630               711.2203               725.2580
 Red. masses --      7.3248                 2.7851                 5.1401
 Frc consts  --      2.0694                 0.8300                 1.5930
 IR Inten    --      9.6879                15.1267                 9.6024

                     34                     35                     36
                      A                      A                      A
 Frequencies --    733.7551               757.5438               763.0024
 Red. masses --      4.1401                 9.5929                 1.7042
 Frc consts  --      1.3133                 3.2435                 0.5846
 IR Inten    --      9.4101                 0.2156                33.6537

                     37                     38                     39
                      A                      A                      A
 Frequencies --    799.9983               810.0851               871.7716
 Red. masses --      1.5739                 5.1042                 1.3475
 Frc consts  --      0.5935                 1.9735                 0.6034
 IR Inten    --     19.6554                 0.2972                 0.0550

                     40                     41                     42
                      A                      A                      A
 Frequencies --    872.8352               893.0312               922.0889
 Red. masses --      5.4068                 3.0651                 1.3205
 Frc consts  --      2.4269                 1.4402                 0.6615
 IR Inten    --     34.7677                 7.0607                 1.2567

                     43                     44                     45
                      A                      A                      A
 Frequencies --    925.3940               938.7548               945.1804
 Red. masses --      1.2117                 1.3032                 1.3431
 Frc consts  --      0.6114                 0.6767                 0.7069
 IR Inten    --      0.0999                 2.9529                 6.1555

                     46                     47                     48
                      A                      A                      A
 Frequencies --    956.0427               962.3184              1017.0638
 Red. masses --      1.4963                 4.0869                 1.7222
 Frc consts  --      0.8058                 2.2299                 1.0496
 IR Inten    --      0.4097                 4.3600                 2.4962

                     49                     50                     51
                      A                      A                      A
 Frequencies --   1051.7829              1059.0663              1067.2565
 Red. masses --      1.5229                 2.1403                 2.6002
 Frc consts  --      0.9926                 1.4144                 1.7450
 IR Inten    --      1.5675                 0.7098                13.2216

                     52                     53                     54
                      A                      A                      A
 Frequencies --   1080.2582              1116.4481              1119.7196
 Red. masses --      3.2917                 2.3455                 1.8816
 Frc consts  --      2.2632                 1.7225                 1.3900
 IR Inten    --     28.5787                 2.6028                18.6291

                     55                     56                     57
                      A                      A                      A
 Frequencies --   1151.2019              1173.8377              1195.5589
 Red. masses --      1.8008                 1.4231                 1.6055
 Frc consts  --      1.4061                 1.1553                 1.3521
 IR Inten    --      3.4801                 2.1785                 0.3380

                     58                     59                     60
                      A                      A                      A
 Frequencies --   1199.6352              1213.7046              1243.7580
 Red. masses --      2.0294                 3.4089                 2.1997
 Frc consts  --      1.7208                 2.9586                 2.0048
 IR Inten    --      1.1905                 9.7301                10.7786

                     61                     62                     63
                      A                      A                      A
 Frequencies --   1262.0736              1273.7308              1310.7778
 Red. masses --      2.1887                 2.6706                 4.4127
 Frc consts  --      2.0541                 2.5528                 4.4669
 IR Inten    --     10.6934                48.6375                 1.5032

                     64                     65                     66
                      A                      A                      A
 Frequencies --   1323.5791              1340.1466              1347.2104
 Red. masses --      2.1343                 3.5084                 1.2987
 Frc consts  --      2.2029                 3.7125                 1.3888
 IR Inten    --      2.5235                 3.1003                 3.3444

                     67                     68                     69
                      A                      A                      A
 Frequencies --   1374.5322              1389.2458              1405.8719
 Red. masses --      3.0590                 1.2260                 2.1628
 Frc consts  --      3.4052                 1.3942                 2.5186
 IR Inten    --     32.9832                 7.4036                24.8902

                     70                     71                     72
                      A                      A                      A
 Frequencies --   1410.7936              1416.1423              1436.7824
 Red. masses --      1.3737                 1.2389                 3.3105
 Frc consts  --      1.6109                 1.4638                 4.0265
 IR Inten    --     12.6302                 6.6977               151.0859

                     73                     74                     75
                      A                      A                      A
 Frequencies --   1462.1138              1465.8429              1486.5198
 Red. masses --      1.0465                 1.6865                 1.0426
 Frc consts  --      1.3182                 2.1351                 1.3574
 IR Inten    --      4.7749                22.0170                 0.9300

                     76                     77                     78
                      A                      A                      A
 Frequencies --   1488.3495              1488.5692              1498.5397
 Red. masses --      1.4630                 1.0528                 1.0621
 Frc consts  --      1.9094                 1.3745                 1.4053
 IR Inten    --     18.7722                 1.5257                 3.0656

                     79                     80                     81
                      A                      A                      A
 Frequencies --   1504.5535              1512.9301              1536.0130
 Red. masses --      1.3980                 1.9478                 6.0953
 Frc consts  --      1.8645                 2.6268                 8.4730
 IR Inten    --     82.3730                90.8587               326.2180

                     82                     83                     84
                      A                      A                      A
 Frequencies --   1549.0487              1583.4030              1590.7970
 Red. masses --      4.3851                 8.2022                 6.8971
 Frc consts  --      6.1995                12.1161                10.2836
 IR Inten    --    226.5207               165.8269               159.2790

                     85                     86                     87
                      A                      A                      A
 Frequencies --   1614.5551              1633.4055              3004.1838
 Red. masses --      4.8991                 6.3902                 1.0370
 Frc consts  --      7.5244                10.0450                 5.5143
 IR Inten    --     26.5243                 2.1898                30.9226

                     88                     89                     90
                      A                      A                      A
 Frequencies --   3009.3083              3009.8003              3013.7968
 Red. masses --      1.0456                 1.0394                 1.0829
 Frc consts  --      5.5787                 5.5479                 5.7953
 IR Inten    --    192.4961                36.9538                10.0243

                     91                     92                     93
                      A                      A                      A
 Frequencies --   3060.6174              3068.1859              3085.3689
 Red. masses --      1.0993                 1.0985                 1.1008
 Frc consts  --      6.0671                 6.0926                 6.1742
 IR Inten    --      1.3004               131.6285                24.8580

                     94                     95                     96
                      A                      A                      A
 Frequencies --   3087.9148              3088.5945              3098.9290
 Red. masses --      1.1004                 1.0891                 1.0989
 Frc consts  --      6.1820                 6.1215                 6.2179
 IR Inten    --     34.2815                15.3431                13.4634

                     97                     98                     99
                      A                      A                      A
 Frequencies --   3132.2267              3139.8650              3153.0634
 Red. masses --      1.0850                 1.0864                 1.0914
 Frc consts  --      6.2719                 6.3104                 6.3928
 IR Inten    --     24.6101                29.2138                56.0416

                    100                    101                    102
                      A                      A                      A
 Frequencies --   3167.7099              3173.2582              3194.1602
 Red. masses --      1.0889                 1.0932                 1.0884
 Frc consts  --      6.4379                 6.4859                 6.5426
 IR Inten    --      9.2455                 3.6016                46.9559

 - Thermochemistry -
 -------------------
 Temperature   298.150 Kelvin.  Pressure   1.00000 Atm.
 Atom     1 has atomic number  6 and mass  12.00000

 Molecular mass:   264.11503 amu.
 Principal axes and moments of inertia in atomic units:
                           1         2         3
     Eigenvalues --  2461.032098918.90818**********
           X            0.99835   0.00750   0.05687
           Y           -0.02339   0.95849   0.28415
           Z           -0.05238  -0.28501   0.95709
 This molecule is an asymmetric top.
 Rotational symmetry number  1.
 Warning -- assumption of classical behavior for rotation
           may cause significant error
 Rotational temperatures (Kelvin)      0.03519     0.00971     0.00789
 Rotational constants (GHZ):           0.73333     0.20235     0.16441
 Zero-point vibrational energy     753966.1 (Joules/Mol)
                                  180.20221 (Kcal/Mol)
 Warning -- explicit consideration of  28 degrees of freedom as
           vibrations may cause significant error
 Vibrational temperatures:     38.31    46.44    62.16    85.69   182.55
          (Kelvin)            202.94   216.92   292.78   329.05   332.52
                              338.27   353.22   384.81   391.82   465.13
                              518.29   544.40   550.67   573.94   580.82
                              632.51   651.94   662.63   726.64   769.65
                              803.41   812.71   851.85   900.91   927.55
                              996.30  1023.29  1043.48  1055.71  1089.94
                             1097.79  1151.02  1165.53  1254.28  1255.82
                             1284.87  1326.68  1331.44  1350.66  1359.90
                             1375.53  1384.56  1463.33  1513.28  1523.76
                             1535.54  1554.25  1606.32  1611.03  1656.32
                             1688.89  1720.14  1726.01  1746.25  1789.49
                             1815.84  1832.61  1885.92  1904.34  1928.17
                             1938.34  1977.65  1998.81  2022.74  2029.82
                             2037.51  2067.21  2103.66  2109.02  2138.77
                             2141.40  2141.72  2156.06  2164.72  2176.77
                             2209.98  2228.74  2278.16  2288.80  2322.98
                             2350.11  4322.35  4329.72  4330.43  4336.18
                             4403.55  4414.44  4439.16  4442.82  4443.80
                             4458.67  4506.58  4517.57  4536.55  4557.63
                             4565.61  4595.68

 Zero-point correction=                           0.287171 (Hartree/Particle)
 Thermal correction to Energy=                    0.304635
 Thermal correction to Enthalpy=                  0.305580
 Thermal correction to Gibbs Free Energy=         0.240520
 Sum of electronic and zero-point Energies=           -846.015029
 Sum of electronic and thermal Energies=              -845.997564
 Sum of electronic and thermal Enthalpies=            -845.996620
 Sum of electronic and thermal Free Energies=         -846.061680

                     E (Thermal)             CV                S
                      KCal/Mol        Cal/Mol-Kelvin    Cal/Mol-Kelvin
 Total                  191.162             68.905            136.929
 Electronic               0.000              0.000              1.377
 Translational            0.889              2.981             42.613
 Rotational               0.889              2.981             33.843
 Vibrational            189.384             62.943             59.096
 Vibration     1          0.593              1.984              6.066
 Vibration     2          0.594              1.983              5.684
 Vibration     3          0.595              1.980              5.106
 Vibration     4          0.597              1.974              4.472
 Vibration     5          0.611              1.926              2.993
 Vibration     6          0.615              1.912              2.790
 Vibration     7          0.618              1.902              2.663
 Vibration     8          0.639              1.835              2.101
 Vibration     9          0.651              1.797              1.889
 Vibration    10          0.653              1.793              1.870
 Vibration    11          0.655              1.787              1.840
 Vibration    12          0.660              1.770              1.763
 Vibration    13          0.673              1.733              1.613
 Vibration    14          0.675              1.724              1.581
 Vibration    15          0.708              1.629              1.293
 Vibration    16          0.735              1.554              1.121
 Vibration    17          0.749              1.516              1.046
 Vibration    18          0.752              1.507              1.028
 Vibration    19          0.765              1.472              0.967
 Vibration    20          0.769              1.462              0.949
 Vibration    21          0.800              1.384              0.828
 Vibration    22          0.812              1.354              0.786
 Vibration    23          0.818              1.338              0.765
 Vibration    24          0.860              1.239              0.646
 Vibration    25          0.890              1.173              0.576
 Vibration    26          0.914              1.121              0.527
 Vibration    27          0.921              1.107              0.514
 Vibration    28          0.950              1.049              0.463

                           ! Non-Optimized Parameters !
 Normal termination of Gaussian 16 at Tue Jan  9 23:03:11 2024.
