 Gaussian 16, Revision A.03,
 Gaussian 16:  ES64L-G16RevA.03 25-Dec-2016

 ----------------------------------------------------------------
 #P UB3LYP/6-311++G(d,p) SCRF=(PCM,Solvent=n,n-DiMethylFormamide)
 ----------------------------------------------------------------

 -------
 Reduced
 -------
 Symbolic Z-matrix:
 Charge = -2 Multiplicity = 1

                         Standard orientation:
 ---------------------------------------------------------------------
 Center     Atomic      Atomic             Coordinates (Angstroms)
 Number     Number       Type             X           Y           Z
 ---------------------------------------------------------------------
      1          6           0        2.734072   -1.332346   -0.046277
      2          6           0        3.686400   -0.432641    0.604909
      3          6           0        3.385824    0.833759    0.976574
      4          6           0        2.103238    1.476569    0.716048
      5          6           0        1.120310    0.668480    0.020581
      6          6           0        1.435491   -0.761436   -0.199339
      7          8           0        3.106438   -2.495750   -0.380857
      8          8           0        1.992556    2.702533    1.060748
      9         16           0        0.191048   -2.023262   -0.466671
     10          6           0       -1.391365   -1.358750    0.191222
     11          6           0       -1.484357   -0.993818    1.531630
     12          6           0       -2.525180   -1.400376   -0.612540
     13          6           0       -3.769958   -1.089096   -0.066534
     14          6           0       -2.729144   -0.663602    2.070373
     15          6           0       -3.875238   -0.717044    1.276063
     16          8           0        0.413731   -3.155110    0.473091
     17          8           0       -0.080970   -2.417261   -1.869327
     18          1           0        4.669730   -0.860675    0.795196
     19          1           0        4.119016    1.467791    1.471999
     20          1           0       -0.589196   -0.971211    2.140669
     21          1           0       -2.402362   -1.664241   -1.655544
     22          1           0       -4.657164   -1.119181   -0.693201
     23          1           0       -2.801767   -0.362642    3.111473
     24          1           0       -4.843315   -0.460443    1.697575
     25          6           0       -0.008685    1.234642   -0.711579
     26          8           0       -0.563304    0.554604   -1.595550
     27          6           0       -0.625697    2.669488   -0.499757
     28          6           0       -0.920482    2.964258    0.984860
     29          6           0        0.307216    3.739166   -1.109335
     30          6           0       -1.967779    2.731814   -1.261503
     31          1           0        0.001714    2.945924    1.565367
     32          1           0       -1.628831    2.230281    1.383368
     33          1           0       -1.379319    3.960076    1.079935
     34          1           0        1.264281    3.752370   -0.586977
     35          1           0       -0.157455    4.732697   -1.022827
     36          1           0        0.465999    3.533804   -2.174473
     37          1           0       -2.674399    1.986444   -0.888235
     38          1           0       -1.831660    2.545059   -2.328285
     39          1           0       -2.407647    3.729600   -1.126523
 ---------------------------------------------------------------------

 SCF Done:  E(UB3LYP) =  -1432.24199092     A.U. after   17 cycles

 The electronic state is 1-A.
 Alpha  occ. eigenvalues --  -89.02578 -19.09267 -19.08553 -19.06627 -19.04016
 Alpha  occ. eigenvalues --  -19.03967 -10.22096 -10.20532 -10.20326 -10.19537
 Alpha  occ. eigenvalues --  -10.18016 -10.17849 -10.17788 -10.17765 -10.17715
 Alpha  occ. eigenvalues --  -10.16714 -10.16193 -10.15409 -10.15130 -10.15103
 Alpha  occ. eigenvalues --  -10.13737 -10.13591 -10.13213  -8.08890  -6.05166
 Alpha  occ. eigenvalues --   -6.05090  -6.04973  -1.07828  -0.99880  -0.97250
 Alpha  occ. eigenvalues --   -0.96511  -0.96236  -0.86279  -0.80233  -0.78957
 Alpha  occ. eigenvalues --   -0.76490  -0.75133  -0.73795  -0.69350  -0.66556
 Alpha  occ. eigenvalues --   -0.66144  -0.64738  -0.61549  -0.61137  -0.59002
 Alpha  occ. eigenvalues --   -0.56408  -0.54621  -0.51991  -0.48573  -0.47998
 Alpha  occ. eigenvalues --   -0.46596  -0.46169  -0.45430  -0.44620  -0.44083
 Alpha  occ. eigenvalues --   -0.43339  -0.42841  -0.42538  -0.42334  -0.41798
 Alpha  occ. eigenvalues --   -0.40103  -0.39520  -0.38447  -0.37621  -0.37054
 Alpha  occ. eigenvalues --   -0.36787  -0.36592  -0.36133  -0.35276  -0.35078
 Alpha  occ. eigenvalues --   -0.34882  -0.34275  -0.33507  -0.32819  -0.31520
 Alpha  occ. eigenvalues --   -0.30863  -0.30140  -0.30054  -0.28758  -0.27884
 Alpha  occ. eigenvalues --   -0.25954  -0.25359  -0.24606  -0.23161  -0.21998
 Alpha  occ. eigenvalues --   -0.21196  -0.20628  -0.14654
 Alpha virt. eigenvalues --   -0.04152  -0.02476  -0.01314  -0.00213   0.00861
 Alpha virt. eigenvalues --    0.01069   0.01501   0.02234   0.02447   0.02889
 Alpha virt. eigenvalues --    0.03220   0.03598   0.03817   0.04265   0.04645

  Beta  occ. eigenvalues --  -89.02578 -19.09267 -19.08553 -19.06627 -19.04016
  Beta  occ. eigenvalues --  -19.03967 -10.22096 -10.20532 -10.20326 -10.19537
  Beta  occ. eigenvalues --  -10.18016 -10.17849 -10.17788 -10.17765 -10.17715
  Beta  occ. eigenvalues --  -10.16714 -10.16193 -10.15409 -10.15130 -10.15103
  Beta  occ. eigenvalues --  -10.13737 -10.13591 -10.13213  -8.08890  -6.05166
  Beta  occ. eigenvalues --   -6.05090  -6.04973  -1.07828  -0.99880  -0.97250
  Beta  occ. eigenvalues --   -0.96511  -0.96236  -0.86279  -0.80233  -0.78957
  Beta  occ. eigenvalues --   -0.76490  -0.75133  -0.73795  -0.69350  -0.66556
  Beta  occ. eigenvalues --   -0.66144  -0.64738  -0.61549  -0.61137  -0.59002
  Beta  occ. eigenvalues --   -0.56408  -0.54621  -0.51991  -0.48573  -0.47998
  Beta  occ. eigenvalues --   -0.46596  -0.46169  -0.45430  -0.44620  -0.44083
  Beta  occ. eigenvalues --   -0.43339  -0.42841  -0.42538  -0.42334  -0.41798
  Beta  occ. eigenvalues --   -0.40103  -0.39520  -0.38447  -0.37621  -0.37054
  Beta  occ. eigenvalues --   -0.36787  -0.36592  -0.36133  -0.35276  -0.35078
  Beta  occ. eigenvalues --   -0.34882  -0.34275  -0.33507  -0.32819  -0.31520
  Beta  occ. eigenvalues --   -0.30863  -0.30140  -0.30054  -0.28758  -0.27884
  Beta  occ. eigenvalues --   -0.25954  -0.25359  -0.24606  -0.23161  -0.21998
  Beta  occ. eigenvalues --   -0.21196  -0.20628  -0.14654
  Beta virt. eigenvalues --   -0.04152  -0.02476  -0.01314  -0.00213   0.00861
  Beta virt. eigenvalues --    0.01069   0.01501   0.02234   0.02447   0.02889
  Beta virt. eigenvalues --    0.03220   0.03598   0.03817   0.04265   0.04645

 Mulliken charges and spin densities:
               1          2
     1  C   -0.469085  -0.000000
     2  C   -0.112216  -0.000000
     3  C   -0.334715  -0.000000
     4  C   -0.832110   0.000000
     5  C    0.862605   0.000000
     6  C   -0.406197   0.000000
     7  O   -0.533587  -0.000000
     8  O   -0.466897  -0.000000
     9  S    1.127137   0.000000
    10  C   -0.322158   0.000000
    11  C   -0.119254  -0.000000
    12  C    0.084668  -0.000000
    13  C   -0.475825  -0.000000
    14  C   -0.474768  -0.000000
    15  C   -0.361286  -0.000000
    16  O   -0.210225  -0.000000
    17  O   -0.278085  -0.000000
    18  H    0.182899   0.000000
    19  H    0.178244  -0.000000
    20  H    0.216913  -0.000000
    21  H    0.233199  -0.000000
    22  H    0.205960   0.000000
    23  H    0.209040  -0.000000
    24  H    0.184752  -0.000000
    25  C   -0.006409   0.000000
    26  O   -0.284120  -0.000000
    27  C    0.677613  -0.000000
    28  C   -0.545536  -0.000000
    29  C   -0.681974   0.000000
    30  C   -0.621269   0.000000
    31  H    0.195880  -0.000000
    32  H    0.143881  -0.000000
    33  H    0.144167   0.000000
    34  H    0.179474  -0.000000
    35  H    0.144205  -0.000000
    36  H    0.139669   0.000000
    37  H    0.125453   0.000000
    38  H    0.157393   0.000000
    39  H    0.142564  -0.000000
 Sum of Mulliken charges =  -2.00000  -0.00000

 Dipole moment (field-independent basis, Debye):
    X=            -14.2096    Y=              8.5035    Z=              4.2601  Tot=             17.0989
 Quadrupole moment (field-independent basis, Debye-Ang):
   XX=           -181.9680   YY=           -226.3044   ZZ=           -165.7362
   XY=             12.7503   XZ=             -3.8590   YZ=            -12.8808

 Normal termination of Gaussian 16 at Wed Jan 24 23:03:22 2024.
