 Gaussian 16, Revision A.03,
 Gaussian 16:  ES64L-G16RevA.03 25-Dec-2016

 --------------------------------------
 #P UB3LYP/6-311++G(d,p) nosym opt freq
 --------------------------------------

 -------
 Radical
 -------
 Symbolic Z-matrix:
 Charge = -1 Multiplicity = 2

 SCF Done:  E(UB3LYP) =  -653.303238465     A.U. after   21 cycles
 SCF Done:  E(UB3LYP) =  -653.303239430     A.U. after   10 cycles
 SCF Done:  E(UB3LYP) =  -653.283301955     A.U. after   19 cycles
 SCF Done:  E(UB3LYP) =  -653.303318220     A.U. after   16 cycles
 SCF Done:  E(UB3LYP) =  -653.293937252     A.U. after   18 cycles
 SCF Done:  E(UB3LYP) =  -653.303667260     A.U. after   16 cycles
 SCF Done:  E(UB3LYP) =  -653.286781944     A.U. after   18 cycles
 SCF Done:  E(UB3LYP) =  -653.304669986     A.U. after   17 cycles
 SCF Done:  E(UB3LYP) =  -653.305128916     A.U. after   17 cycles
 SCF Done:  E(UB3LYP) =  -653.305516536     A.U. after   17 cycles
 SCF Done:  E(UB3LYP) =  -653.306815671     A.U. after   15 cycles
 SCF Done:  E(UB3LYP) =  -653.306870022     A.U. after   14 cycles
 SCF Done:  E(UB3LYP) =  -653.306723186     A.U. after   15 cycles
 SCF Done:  E(UB3LYP) =  -653.306921947     A.U. after   15 cycles
 SCF Done:  E(UB3LYP) =  -653.306935638     A.U. after   13 cycles
 SCF Done:  E(UB3LYP) =  -653.306932183     A.U. after   12 cycles
 SCF Done:  E(UB3LYP) =  -653.306937908     A.U. after   12 cycles
 SCF Done:  E(UB3LYP) =  -653.306937900     A.U. after   10 cycles
 SCF Done:  E(UB3LYP) =  -653.306938030     A.U. after   10 cycles
 Optimization completed.
    -- Stationary point found.
 Normal termination of Gaussian 16 at Mon Jan 15 18:33:24 2024.

 ----------------------------------------------------------------------
 #P Geom=AllCheck Guess=TCheck SCRF=Check GenChk UB3LYP/6-311++G(d,p) F
 req
 ----------------------------------------------------------------------

 Structure from the checkpoint file:  "255-rad.chk"
 -------
 Radical
 -------
 Charge = -1 Multiplicity = 2

                          Input orientation:
 ---------------------------------------------------------------------
 Center     Atomic      Atomic             Coordinates (Angstroms)
 Number     Number       Type             X           Y           Z
 ---------------------------------------------------------------------
      1          6           0       -1.630816    2.794706    0.039665
      2          6           0       -2.886245    2.225630    0.077834
      3          6           0       -3.011250    0.826921    0.092951
      4          6           0       -0.477547    1.987358    0.015781
      5          6           0       -0.595538    0.566084    0.030821
      6          6           0       -1.902215   -0.012191    0.070487
      7          6           0        0.830433    2.663991   -0.024520
      8          6           0        2.001230    1.819200   -0.048330
      9          6           0        1.900798    0.436597   -0.034136
     10          6           0        0.626886   -0.259327    0.005229
     11          8           0        0.905039    3.925590   -0.037146
     12          8           0        0.578889   -1.523231    0.016869
     13          6           0        3.344690    2.504808   -0.089428
     14          6           0        3.141686   -0.422635   -0.059572
     15          6           0       -2.153710   -1.504480    0.089776
     16          1           0       -1.485696    3.868302    0.026778
     17          1           0       -3.775476    2.849564    0.096244
     18          1           0       -4.001720    0.380377    0.123115
     19          1           0        3.197347    3.585012   -0.094954
     20          1           0        3.917502    2.223008   -0.982171
     21          1           0        3.963494    2.238270    0.776911
     22          1           0        3.791086   -0.221177    0.802052
     23          1           0        3.745406   -0.235116   -0.956793
     24          1           0        2.854889   -1.473857   -0.043708
     25          1           0       -1.679996   -1.982621    0.949072
     26          1           0       -1.726791   -1.997241   -0.785629
     27          1           0       -3.232656   -1.693943    0.120481
 ---------------------------------------------------------------------

 SCF Done:  E(UB3LYP) =  -653.306938030     A.U. after    1 cycles

 Alpha  occ. eigenvalues --  -18.93391 -18.93343 -10.08448 -10.08085 -10.05893
 Alpha  occ. eigenvalues --  -10.04848 -10.04574 -10.04461 -10.04019 -10.03850
 Alpha  occ. eigenvalues --  -10.03850 -10.03607 -10.03502 -10.03465 -10.03399
 Alpha  occ. eigenvalues --   -0.86013  -0.85659  -0.73007  -0.68770  -0.64532
 Alpha  occ. eigenvalues --   -0.62998  -0.59895  -0.56396  -0.54513  -0.52006
 Alpha  occ. eigenvalues --   -0.46393  -0.45998  -0.40954  -0.38162  -0.36218
 Alpha  occ. eigenvalues --   -0.34024  -0.32382  -0.31185  -0.29878  -0.29322
 Alpha  occ. eigenvalues --   -0.28158  -0.27477  -0.27445  -0.26132  -0.25876
 Alpha  occ. eigenvalues --   -0.25693  -0.25405  -0.24992  -0.22958  -0.22875
 Alpha  occ. eigenvalues --   -0.21327  -0.21138  -0.20581  -0.13346  -0.11968
 Alpha  occ. eigenvalues --   -0.11158  -0.10427  -0.09406  -0.01281
 Alpha virt. eigenvalues --    0.08490   0.08933   0.09842   0.09869   0.11125
 Alpha virt. eigenvalues --    0.11153   0.11622   0.12168   0.13406   0.13579
 Alpha virt. eigenvalues --    0.13599   0.14103   0.15127   0.15918   0.16426

  Beta  occ. eigenvalues --  -18.92727 -18.92693 -10.08313 -10.07949 -10.05898
  Beta  occ. eigenvalues --  -10.04806 -10.04527 -10.04406 -10.03946 -10.03851
  Beta  occ. eigenvalues --  -10.03849 -10.03482 -10.03464 -10.03409 -10.03367
  Beta  occ. eigenvalues --   -0.84883  -0.84512  -0.72825  -0.68338  -0.64434
  Beta  occ. eigenvalues --   -0.62780  -0.59604  -0.56273  -0.54313  -0.51405
  Beta  occ. eigenvalues --   -0.46224  -0.45662  -0.40695  -0.38006  -0.35992
  Beta  occ. eigenvalues --   -0.33840  -0.32281  -0.30706  -0.29604  -0.29193
  Beta  occ. eigenvalues --   -0.28023  -0.27184  -0.27167  -0.26046  -0.25744
  Beta  occ. eigenvalues --   -0.25180  -0.24750  -0.24744  -0.22760  -0.20962
  Beta  occ. eigenvalues --   -0.20698  -0.20350  -0.20036  -0.11472  -0.11147
  Beta  occ. eigenvalues --   -0.09822  -0.09722  -0.08810
  Beta virt. eigenvalues --    0.05319   0.08487   0.08939   0.09865   0.10449
  Beta virt. eigenvalues --    0.11157   0.11622   0.12168   0.12230   0.13402
  Beta virt. eigenvalues --    0.13601   0.13662   0.14106   0.15202   0.15922

 Mulliken charges and spin densities:
               1          2
     1  C   -0.236311   0.014858
     2  C   -0.289319   0.032461
     3  C   -0.585372   0.032475
     4  C    0.562154   0.031632
     5  C    0.617247   0.040687
     6  C    0.687688   0.008295
     7  C   -1.249761   0.054515
     8  C    0.879499   0.108332
     9  C    0.936237   0.133151
    10  C   -1.709675   0.047237
    11  O   -0.388794   0.240230
    12  O   -0.359003   0.242665
    13  C   -0.581570   0.001438
    14  C   -0.417237   0.000631
    15  C   -0.499362   0.005791
    16  H    0.156061  -0.001932
    17  H    0.132695  -0.002700
    18  H    0.062069  -0.003348
    19  H    0.197570  -0.001737
    20  H    0.114309   0.004352
    21  H    0.114352   0.004355
    22  H    0.113856   0.004793
    23  H    0.113789   0.004784
    24  H    0.205097  -0.001438
    25  H    0.158811  -0.000468
    26  H    0.158793  -0.000468
    27  H    0.106177  -0.000588
 Sum of Mulliken charges =  -1.00000   1.00000

 Dipole moment (field-independent basis, Debye):
    X=             -1.8455    Y=             -6.0936    Z=              0.0057  Tot=              6.3669
 Quadrupole moment (field-independent basis, Debye-Ang):
   XX=           -103.9957   YY=           -134.5988   ZZ=            -94.9550
   XY=             -4.4718   XZ=              0.2410   YZ=              0.3290

  Exact polarizability: 248.099   2.885 215.162  -3.998  -1.056  98.130
 Approx polarizability: 352.657  -0.424 384.033  -5.203  -1.892 156.391

                      1                      2                      3
                      A                      A                      A
 Frequencies --     57.5282                66.9744                74.9420
 Red. masses --      4.8858                 1.2753                 2.5030
 Frc consts  --      0.0095                 0.0034                 0.0083
 IR Inten    --      7.2150                 0.2191                 1.3595

                      4                      5                      6
                      A                      A                      A
 Frequencies --    125.3131               128.5289               177.4266
 Red. masses --      1.1576                 2.6066                 4.3167
 Frc consts  --      0.0107                 0.0254                 0.0801
 IR Inten    --      0.0665                 0.0086                 1.5640

                      7                      8                      9
                      A                      A                      A
 Frequencies --    200.5698               231.3759               245.4763
 Red. masses --      1.2685                 2.1508                 3.7362
 Frc consts  --      0.0301                 0.0678                 0.1326
 IR Inten    --      0.8077                 0.7695                 3.3957

                     10                     11                     12
                      A                      A                      A
 Frequencies --    293.0290               316.0187               352.0233
 Red. masses --      3.7555                 2.6215                 3.6635
 Frc consts  --      0.1900                 0.1543                 0.2675
 IR Inten    --      0.0306                 0.4412                 1.2292

                     13                     14                     15
                      A                      A                      A
 Frequencies --    361.1557               397.1402               412.8611
 Red. masses --      5.0874                 8.3232                 5.7185
 Frc consts  --      0.3910                 0.7734                 0.5743
 IR Inten    --      0.8385                 6.4701                 0.0001

                     16                     17                     18
                      A                      A                      A
 Frequencies --    423.7793               450.0798               511.5223
 Red. masses --      6.3261                 4.2444                 7.7875
 Frc consts  --      0.6694                 0.5066                 1.2005
 IR Inten    --      7.1141                 4.4956                 0.7744

                     19                     20                     21
                      A                      A                      A
 Frequencies --    514.9517               526.9896               565.8272
 Red. masses --      3.8365                 3.7786                 4.9483
 Frc consts  --      0.5994                 0.6183                 0.9334
 IR Inten    --      2.2675                 0.3414                 3.6863

                     22                     23                     24
                      A                      A                      A
 Frequencies --    618.6548               683.9150               693.1596
 Red. masses --      5.5072                 4.2333                 4.4584
 Frc consts  --      1.2419                 1.1666                 1.2621
 IR Inten    --     14.2660                 4.6839                 2.5692

                     25                     26                     27
                      A                      A                      A
 Frequencies --    717.6291               775.8893               803.6918
 Red. masses --      3.4912                 1.7534                 4.0475
 Frc consts  --      1.0593                 0.6219                 1.5403
 IR Inten    --     23.3917                24.5740                 2.8786

                     28                     29                     30
                      A                      A                      A
 Frequencies --    807.6951               855.0764               891.4174
 Red. masses --      3.9262                 4.4384                 1.3565
 Frc consts  --      1.5091                 1.9120                 0.6351
 IR Inten    --      4.7972                10.2517                 0.0804

                     31                     32                     33
                      A                      A                      A
 Frequencies --    946.2924               979.5330               984.8255
 Red. masses --      2.4091                 1.2946                 3.1827
 Frc consts  --      1.2710                 0.7318                 1.8187
 IR Inten    --      5.6550                 1.6319                 2.8768

                     34                     35                     36
                      A                      A                      A
 Frequencies --   1012.8614              1026.8941              1038.3017
 Red. masses --      1.5222                 1.4086                 2.2385
 Frc consts  --      0.9201                 0.8752                 1.4218
 IR Inten    --      7.7244                 0.0140                11.3797

                     37                     38                     39
                      A                      A                      A
 Frequencies --   1053.6802              1054.3602              1098.9880
 Red. masses --      1.5264                 1.5170                 2.0401
 Frc consts  --      0.9985                 0.9936                 1.4517
 IR Inten    --      1.3598                 0.1197                14.4767

                     40                     41                     42
                      A                      A                      A
 Frequencies --   1112.3164              1163.5434              1178.3023
 Red. masses --      2.5164                 1.4431                 2.5338
 Frc consts  --      1.8344                 1.1511                 2.0727
 IR Inten    --     23.2392                11.1265                 3.4919

                     43                     44                     45
                      A                      A                      A
 Frequencies --   1227.4719              1242.0046              1259.2824
 Red. masses --      4.6183                 4.8537                 1.9746
 Frc consts  --      4.0997                 4.4114                 1.8450
 IR Inten    --     27.1990                 6.6351                19.7772

                     46                     47                     48
                      A                      A                      A
 Frequencies --   1336.5008              1365.3039              1384.8460
 Red. masses --      7.8941                 1.3948                 1.2812
 Frc consts  --      8.3079                 1.5318                 1.4477
 IR Inten    --      6.2728                28.9446                 2.8102

                     49                     50                     51
                      A                      A                      A
 Frequencies --   1401.1912              1414.5310              1421.2245
 Red. masses --      3.1045                 1.2751                 2.4609
 Frc consts  --      3.5911                 1.5033                 2.9286
 IR Inten    --     78.1336                 2.7394                10.3274

                     52                     53                     54
                      A                      A                      A
 Frequencies --   1456.2326              1463.3169              1474.2411
 Red. masses --      2.2246                 1.0462                 1.2157
 Frc consts  --      2.7795                 1.3200                 1.5567
 IR Inten    --    151.7503                 4.7288                 0.0309

                     55                     56                     57
                      A                      A                      A
 Frequencies --   1482.6290              1488.6560              1491.6044
 Red. masses --      1.2014                 1.4120                 1.0485
 Frc consts  --      1.5560                 1.8436                 1.3745
 IR Inten    --     20.0485                 5.2674                 0.0232

                     58                     59                     60
                      A                      A                      A
 Frequencies --   1507.1935              1513.5014              1525.1595
 Red. masses --      1.0479                 4.3187                 5.5522
 Frc consts  --      1.4025                 5.8287                 7.6093
 IR Inten    --     12.2947                 3.1779               428.9901

                     61                     62                     63
                      A                      A                      A
 Frequencies --   1550.1202              1610.5034              1618.2454
 Red. masses --      6.1250                 6.4962                 6.4979
 Frc consts  --      8.6714                 9.9273                10.0256
 IR Inten    --     70.7701                 3.7232                 0.8306

                     64                     65                     66
                      A                      A                      A
 Frequencies --   2986.8287              2989.5887              3009.8535
 Red. masses --      1.0419                 1.0406                 1.0453
 Frc consts  --      5.4763                 5.4798                 5.5793
 IR Inten    --     11.9241               221.5416                92.2544

                     67                     68                     69
                      A                      A                      A
 Frequencies --   3018.7112              3020.2427              3085.1556
 Red. masses --      1.0987                 1.0988                 1.0906
 Frc consts  --      5.8991                 5.9053                 6.1159
 IR Inten    --     69.3691                25.0844                17.3559

                     70                     71                     72
                      A                      A                      A
 Frequencies --   3094.1172              3111.1019              3115.1285
 Red. masses --      1.0990                 1.0941                 1.0936
 Frc consts  --      6.1989                 6.2396                 6.2528
 IR Inten    --     16.3250                 8.1873                 9.5400

                     73                     74                     75
                      A                      A                      A
 Frequencies --   3125.0633              3146.5817              3187.1563
 Red. masses --      1.0850                 1.0922                 1.0919
 Frc consts  --      6.2428                 6.3712                 6.5347
 IR Inten    --     27.2039                65.0014                16.0758

 - Thermochemistry -
 -------------------
 Temperature   298.150 Kelvin.  Pressure   1.00000 Atm.
 Atom     1 has atomic number  6 and mass  12.00000

 Molecular mass:   200.08373 amu.
 Principal axes and moments of inertia in atomic units:
                           1         2         3
     Eigenvalues --  1997.308483097.770385061.95308
           X            0.97620  -0.21523   0.02649
           Y            0.21508   0.97656   0.00837
           Z           -0.02767  -0.00247   0.99961
 This molecule is an asymmetric top.
 Rotational symmetry number  1.
 Warning -- assumption of classical behavior for rotation
           may cause significant error
 Rotational temperatures (Kelvin)      0.04337     0.02796     0.01711
 Rotational constants (GHZ):           0.90359     0.58259     0.35653
 Zero-point vibrational energy     556585.5 (Joules/Mol)
                                  133.02713 (Kcal/Mol)
 Warning -- explicit consideration of  22 degrees of freedom as
           vibrations may cause significant error
 Vibrational temperatures:     82.77    96.36   107.82   180.30   184.92
          (Kelvin)            255.28   288.58   332.90   353.19   421.60
                              454.68   506.48   519.62   571.40   594.01
                              609.72   647.56   735.97   740.90   758.22
                              814.10   890.11   984.00   997.30  1032.51
                             1116.33  1156.33  1162.09  1230.26  1282.55
                             1361.50  1409.33  1416.94  1457.28  1477.47
                             1493.88  1516.01  1516.99  1581.20  1600.38
                             1674.08  1695.31  1766.06  1786.97  1811.83
                             1922.93  1964.37  1992.48  2016.00  2035.19
                             2044.83  2095.19  2105.39  2121.10  2133.17
                             2141.84  2146.09  2168.52  2177.59  2194.36
                             2230.28  2317.16  2328.29  4297.38  4301.35
                             4330.51  4343.25  4345.46  4438.85  4451.74
                             4476.18  4481.98  4496.27  4527.23  4585.61

 Zero-point correction=                           0.211992 (Hartree/Particle)
 Thermal correction to Energy=                    0.225636
 Thermal correction to Enthalpy=                  0.226580
 Thermal correction to Gibbs Free Energy=         0.171256
 Sum of electronic and zero-point Energies=           -653.094946
 Sum of electronic and thermal Energies=              -653.081302
 Sum of electronic and thermal Enthalpies=            -653.080358
 Sum of electronic and thermal Free Energies=         -653.135682

                     E (Thermal)             CV                S
                      KCal/Mol        Cal/Mol-Kelvin    Cal/Mol-Kelvin
 Total                  141.589             52.421            116.440
 Electronic               0.000              0.000              1.377
 Translational            0.889              2.981             41.785
 Rotational               0.889              2.981             31.816
 Vibrational            139.811             46.459             41.461
 Vibration     1          0.596              1.974              4.540
 Vibration     2          0.598              1.970              4.240
 Vibration     3          0.599              1.966              4.019
 Vibration     4          0.610              1.928              3.017
 Vibration     5          0.611              1.925              2.968
 Vibration     6          0.628              1.870              2.355
 Vibration     7          0.638              1.839              2.128
 Vibration     8          0.653              1.793              1.868
 Vibration     9          0.660              1.770              1.763
 Vibration    10          0.688              1.687              1.456
 Vibration    11          0.703              1.643              1.331
 Vibration    12          0.729              1.571              1.157
 Vibration    13          0.735              1.552              1.117
 Vibration    14          0.764              1.476              0.973
 Vibration    15          0.777              1.442              0.917
 Vibration    16          0.786              1.419              0.879
 Vibration    17          0.809              1.361              0.796
 Vibration    18          0.867              1.224              0.630
 Vibration    19          0.870              1.217              0.622
 Vibration    20          0.882              1.190              0.594
 Vibration    21          0.922              1.105              0.512
 Vibration    22          0.979              0.992              0.419

 Optimization completed.
    -- Stationary point found.
 Normal termination of Gaussian 16 at Mon Jan 15 18:53:48 2024.
