 Gaussian 16, Revision A.03,
 Gaussian 16:  ES64L-G16RevA.03 25-Dec-2016

 ----------------------------------------------------------------
 #P UB3LYP/6-311++G(d,p) SCRF=(PCM,Solvent=n,n-DiMethylFormamide)
 ----------------------------------------------------------------

 ------------------
 Radical PCM in DMF
 ------------------
 Symbolic Z-matrix:
 Charge = -1 Multiplicity = 2

                         Standard orientation:
 ---------------------------------------------------------------------
 Center     Atomic      Atomic             Coordinates (Angstroms)
 Number     Number       Type             X           Y           Z
 ---------------------------------------------------------------------
      1          6           0        1.347006   -2.093601   -0.000046
      2          6           0        2.693337   -1.795610    0.000094
      3          6           0        3.104318   -0.452727    0.000183
      4          6           0        0.384694   -1.065804   -0.000136
      5          6           0        0.793463    0.300606   -0.000127
      6          6           0        2.191860    0.597031    0.000075
      7          6           0       -1.035267   -1.458205   -0.000115
      8          6           0       -2.007004   -0.390154    0.000020
      9          6           0       -1.623404    0.942036   -0.000027
     10          6           0       -0.232816    1.360337   -0.000244
     11          8           0       -1.368623   -2.677316   -0.000197
     12          8           0        0.074960    2.587189   -0.000462
     13          6           0       -3.463542   -0.784021    0.000260
     14          6           0       -2.660768    2.038669    0.000217
     15          6           0        2.745969    2.005403    0.000201
     16          1           0        0.983420   -3.114209   -0.000096
     17          1           0        3.435036   -2.589492    0.000169
     18          1           0        4.166006   -0.220003    0.000364
     19          1           0       -3.542216   -1.871399   -0.000122
     20          1           0       -3.990426   -0.392569   -0.879327
     21          1           0       -3.989933   -0.393213    0.880422
     22          1           0       -3.313676    1.977845    0.880395
     23          1           0       -3.314741    1.977259   -0.879098
     24          1           0       -2.163133    3.008169   -0.000322
     25          1           0        2.404915    2.573317    0.867709
     26          1           0        2.405749    2.573233   -0.867685
     27          1           0        3.841226    1.968326    0.000732
 ---------------------------------------------------------------------

 SCF Done:  E(UB3LYP) =  -653.381765365     A.U. after   19 cycles

 The electronic state is 2-A.
 Alpha  occ. eigenvalues --  -19.06717 -19.06565 -10.21441 -10.21204 -10.17969
 Alpha  occ. eigenvalues --  -10.16980 -10.16694 -10.16629 -10.16333 -10.16187
 Alpha  occ. eigenvalues --  -10.16105 -10.16076 -10.15191 -10.15007 -10.14920
 Alpha  occ. eigenvalues --   -0.99284  -0.99025  -0.85331  -0.81192  -0.76591
 Alpha  occ. eigenvalues --   -0.75181  -0.71937  -0.68314  -0.66535  -0.64345
 Alpha  occ. eigenvalues --   -0.58499  -0.58147  -0.53380  -0.50526  -0.48309
 Alpha  occ. eigenvalues --   -0.46308  -0.44300  -0.43288  -0.42365  -0.41061
 Alpha  occ. eigenvalues --   -0.40867  -0.39832  -0.39217  -0.38205  -0.38070
 Alpha  occ. eigenvalues --   -0.37931  -0.37377  -0.36694  -0.35946  -0.34971
 Alpha  occ. eigenvalues --   -0.33805  -0.33352  -0.32962  -0.26204  -0.24362
 Alpha  occ. eigenvalues --   -0.23776  -0.23547  -0.22527  -0.14335
 Alpha virt. eigenvalues --   -0.02446  -0.00995  -0.00500   0.00452   0.01071
 Alpha virt. eigenvalues --    0.02432   0.02561   0.03088   0.03978   0.04027
 Alpha virt. eigenvalues --    0.04734   0.04917   0.05515   0.06179   0.06261

  Beta  occ. eigenvalues --  -19.06119 -19.05930 -10.21284 -10.21021 -10.17966
  Beta  occ. eigenvalues --  -10.16934 -10.16659 -10.16571 -10.16284 -10.16092
  Beta  occ. eigenvalues --  -10.16040 -10.15963 -10.15190 -10.15016 -10.14931
  Beta  occ. eigenvalues --   -0.98215  -0.97919  -0.85137  -0.80763  -0.76475
  Beta  occ. eigenvalues --   -0.74978  -0.71597  -0.68176  -0.66318  -0.63777
  Beta  occ. eigenvalues --   -0.58285  -0.57857  -0.53091  -0.50361  -0.48071
  Beta  occ. eigenvalues --   -0.46097  -0.44200  -0.42600  -0.42095  -0.40897
  Beta  occ. eigenvalues --   -0.40422  -0.39664  -0.38724  -0.38084  -0.37804
  Beta  occ. eigenvalues --   -0.37242  -0.37193  -0.36614  -0.34848  -0.33709
  Beta  occ. eigenvalues --   -0.33182  -0.32799  -0.32742  -0.24081  -0.23661
  Beta  occ. eigenvalues --   -0.23218  -0.22499  -0.21971
  Beta virt. eigenvalues --   -0.07791  -0.01702  -0.00478   0.00119   0.00456
  Beta virt. eigenvalues --    0.01083   0.02437   0.02573   0.03118   0.04003
  Beta virt. eigenvalues --    0.04200   0.04741   0.04921   0.05731   0.06271

 Mulliken charges and spin densities:
               1          2
     1  C   -0.216437   0.028987
     2  C   -0.368021   0.025225
     3  C   -0.589778   0.034048
     4  C    0.450421   0.014821
     5  C    0.551909   0.030764
     6  C    0.607985   0.013629
     7  C   -1.047602   0.091378
     8  C    0.765284   0.092909
     9  C    0.808144   0.137179
    10  C   -1.535497   0.067844
    11  O   -0.488445   0.218996
    12  O   -0.438862   0.230544
    13  C   -0.537345   0.001662
    14  C   -0.381162  -0.000036
    15  C   -0.467583   0.005390
    16  H    0.160151  -0.002442
    17  H    0.188849  -0.002116
    18  H    0.120555  -0.003337
    19  H    0.180613  -0.001282
    20  H    0.147716   0.003860
    21  H    0.147760   0.003862
    22  H    0.147025   0.004939
    23  H    0.146940   0.004931
    24  H    0.188627  -0.001050
    25  H    0.157192  -0.000165
    26  H    0.157207  -0.000164
    27  H    0.144353  -0.000377
 Sum of Mulliken charges =  -1.00000   1.00000

 Dipole moment (field-independent basis, Debye):
    X=              2.2904    Y=              1.2890    Z=              0.0021  Tot=              2.6282
 Quadrupole moment (field-independent basis, Debye-Ang):
   XX=            -94.1003   YY=           -126.8187   ZZ=            -94.5938
   XY=             -9.8417   XZ=             -0.0004   YZ=              0.0021

 Normal termination of Gaussian 16 at Sun Jan 21 08:23:35 2024.
