 Gaussian 16, Revision A.03,
 Gaussian 16:  ES64L-G16RevA.03 25-Dec-2016

 ----------------------------------------------------------------------
 #P UB3LYP/6-311++G(d,p) nosym opt freq SCRF=(PCM,Solvent=n,n-DiMethylF
 ormamide)
 ----------------------------------------------------------------------

 -------
 Reduced
 -------
 Symbolic Z-matrix:
 Charge = -2 Multiplicity = 1

 SCF Done:  E(UB3LYP) =  -783.894239725     A.U. after   17 cycles
 SCF Done:  E(UB3LYP) =  -783.895374198     A.U. after   13 cycles
 SCF Done:  E(UB3LYP) =  -783.895416179     A.U. after   14 cycles
 SCF Done:  E(UB3LYP) =  -783.895625449     A.U. after   12 cycles
 SCF Done:  E(UB3LYP) =  -783.895640285     A.U. after   11 cycles
 SCF Done:  E(UB3LYP) =  -783.895647219     A.U. after   11 cycles
 SCF Done:  E(UB3LYP) =  -783.895648936     A.U. after   10 cycles
 SCF Done:  E(UB3LYP) =  -783.895649822     A.U. after   10 cycles
 SCF Done:  E(UB3LYP) =  -783.895650145     A.U. after    9 cycles
 Optimization completed.
    -- Stationary point found.
 Normal termination of Gaussian 16 at Sat Feb 10 18:51:58 2024.

 ----------------------------------------------------------------------
 #P Geom=AllCheck Guess=TCheck SCRF=Check GenChk UB3LYP/6-311++G(d,p) F
 req
 ----------------------------------------------------------------------

 Structure from the checkpoint file:  "154-an.chk"
 -------
 Reduced
 -------
 Charge = -2 Multiplicity = 1

                          Input orientation:
 ---------------------------------------------------------------------
 Center     Atomic      Atomic             Coordinates (Angstroms)
 Number     Number       Type             X           Y           Z
 ---------------------------------------------------------------------
      1          6           0       -4.394646   -0.337358    0.214678
      2          6           0       -2.911911   -0.618787    0.240479
      3          6           0       -2.432168   -1.944864    0.401703
      4          6           0       -1.088506   -2.218806    0.464748
      5          6           0       -0.110827   -1.187917    0.345651
      6          6           0        1.281007   -1.550909    0.405341
      7          8           0        1.667736   -2.784659    0.589754
      8          6           0        2.213656   -0.474191    0.245472
      9          6           0        3.616310   -0.726556    0.288901
     10          6           0        4.549936    0.271034    0.131473
     11          6           0        4.118896    1.611169   -0.086049
     12          6           0        2.773360    1.893898   -0.136297
     13          6           0        1.774672    0.889419    0.024328
     14          6           0        0.387441    1.250478   -0.038773
     15          8           0        0.036002    2.499230   -0.274509
     16          6           0       -0.559501    0.181691    0.153174
     17          6           0       -1.991312    0.423396    0.136771
     18          7           0       -2.448592    1.741722    0.068363
     19          1           0       -4.722274    0.121999   -0.728517
     20          1           0       -4.699381    0.349478    1.015260
     21          1           0       -4.965982   -1.260625    0.335979
     22          1           0       -3.156058   -2.752082    0.486796
     23          1           0       -0.731836   -3.232149    0.601640
     24          1           0        3.929650   -1.751383    0.453829
     25          1           0        5.610668    0.041693    0.171565
     26          1           0        4.851076    2.403557   -0.209452
     27          1           0        2.430883    2.908973   -0.301428
     28          1           0       -3.342301    1.875852   -0.382867
     29          1           0       -1.685997    2.376696   -0.206586
 ---------------------------------------------------------------------

 SCF Done:  E(UB3LYP) =  -783.895650145     A.U. after    1 cycles

 Alpha  occ. eigenvalues --  -19.02203 -19.01442 -14.27941 -10.18438 -10.17532
 Alpha  occ. eigenvalues --  -10.16858 -10.15289 -10.14720 -10.14661 -10.14475
 Alpha  occ. eigenvalues --  -10.14468 -10.14261 -10.14176 -10.14060 -10.13462
 Alpha  occ. eigenvalues --  -10.13362 -10.13322 -10.13062  -0.93541  -0.92387
 Alpha  occ. eigenvalues --   -0.88341  -0.82285  -0.80539  -0.75939  -0.72631
 Alpha  occ. eigenvalues --   -0.72099  -0.69861  -0.66815  -0.62988  -0.59998
 Alpha  occ. eigenvalues --   -0.58359  -0.55106  -0.52562  -0.51592  -0.48653
 Alpha  occ. eigenvalues --   -0.47137  -0.44577  -0.43490  -0.42591  -0.41291
 Alpha  occ. eigenvalues --   -0.40613  -0.40476  -0.39576  -0.38886  -0.37693
 Alpha  occ. eigenvalues --   -0.36324  -0.35924  -0.35138  -0.34606  -0.34054
 Alpha  occ. eigenvalues --   -0.32335  -0.32076  -0.31243  -0.30218  -0.29648
 Alpha  occ. eigenvalues --   -0.27761  -0.22761  -0.22165  -0.21077  -0.20290
 Alpha  occ. eigenvalues --   -0.19325  -0.18323  -0.10518
 Alpha virt. eigenvalues --   -0.02011  -0.00148   0.00517   0.00599   0.01263
 Alpha virt. eigenvalues --    0.02210   0.02407   0.02942   0.03910   0.04213
 Alpha virt. eigenvalues --    0.04410   0.04754   0.05430   0.06489   0.06554

  Beta  occ. eigenvalues --  -19.02203 -19.01442 -14.27941 -10.18438 -10.17532
  Beta  occ. eigenvalues --  -10.16858 -10.15289 -10.14720 -10.14661 -10.14475
  Beta  occ. eigenvalues --  -10.14468 -10.14261 -10.14176 -10.14060 -10.13462
  Beta  occ. eigenvalues --  -10.13362 -10.13322 -10.13062  -0.93541  -0.92387
  Beta  occ. eigenvalues --   -0.88341  -0.82285  -0.80539  -0.75939  -0.72631
  Beta  occ. eigenvalues --   -0.72099  -0.69861  -0.66815  -0.62988  -0.59998
  Beta  occ. eigenvalues --   -0.58359  -0.55106  -0.52562  -0.51592  -0.48653
  Beta  occ. eigenvalues --   -0.47137  -0.44577  -0.43490  -0.42591  -0.41291
  Beta  occ. eigenvalues --   -0.40613  -0.40476  -0.39576  -0.38886  -0.37693
  Beta  occ. eigenvalues --   -0.36324  -0.35924  -0.35138  -0.34606  -0.34054
  Beta  occ. eigenvalues --   -0.32335  -0.32076  -0.31243  -0.30218  -0.29648
  Beta  occ. eigenvalues --   -0.27761  -0.22761  -0.22165  -0.21077  -0.20290
  Beta  occ. eigenvalues --   -0.19325  -0.18323  -0.10518
  Beta virt. eigenvalues --   -0.02011  -0.00148   0.00517   0.00599   0.01263
  Beta virt. eigenvalues --    0.02210   0.02407   0.02942   0.03910   0.04213
  Beta virt. eigenvalues --    0.04410   0.04754   0.05430   0.06489   0.06554

 Mulliken charges and spin densities:
               1          2
     1  C   -0.448280  -0.000000
     2  C    0.553206  -0.000000
     3  C   -0.863998   0.000000
     4  C   -0.258576  -0.000000
     5  C    0.476767  -0.000000
     6  C   -0.602333  -0.000000
     7  O   -0.680928  -0.000000
     8  C    0.105291   0.000000
     9  C   -0.030953   0.000000
    10  C   -0.475269   0.000000
    11  C   -0.557290   0.000000
    12  C    0.034623   0.000000
    13  C    0.178807   0.000000
    14  C   -0.466137   0.000000
    15  O   -0.644537  -0.000000
    16  C    0.065935   0.000000
    17  C    0.170309  -0.000000
    18  N   -0.446979   0.000000
    19  H    0.155915  -0.000000
    20  H    0.157070  -0.000000
    21  H    0.158255  -0.000000
    22  H    0.116897   0.000000
    23  H    0.143018  -0.000000
    24  H    0.141574   0.000000
    25  H    0.155065  -0.000000
    26  H    0.154495  -0.000000
    27  H    0.147049   0.000000
    28  H    0.243222   0.000000
    29  H    0.317783  -0.000000
 Sum of Mulliken charges =  -2.00000  -0.00000

 Dipole moment (field-independent basis, Debye):
    X=             -8.5702    Y=              2.9488    Z=             -2.9548  Tot=              9.5328
 Quadrupole moment (field-independent basis, Debye-Ang):
   XX=           -140.1173   YY=           -164.8496   ZZ=           -121.0929
   XY=             10.8526   XZ=              0.3112   YZ=              5.4919

  Exact polarizability: 578.566  39.202 409.523  -6.303 -32.446 178.892
 Approx polarizability: 620.590  37.312 484.757  -4.686 -41.064 197.527

                      1                      2                      3
                      A                      A                      A
 Frequencies --     61.2495                88.7632               126.8174
 Red. masses --      5.0415                 3.8135                 3.8952
 Frc consts  --      0.0111                 0.0177                 0.0369
 IR Inten    --     14.2713                 0.3705                 8.0581

                      4                      5                      6
                      A                      A                      A
 Frequencies --    152.1819               174.6320               188.0913
 Red. masses --      3.7050                 1.2531                 6.3582
 Frc consts  --      0.0506                 0.0225                 0.1325
 IR Inten    --      0.1778                 0.1795                 2.9805

                      7                      8                      9
                      A                      A                      A
 Frequencies --    205.5650               270.5425               287.8144
 Red. masses --      4.2195                 3.8301                 4.3900
 Frc consts  --      0.1051                 0.1652                 0.2143
 IR Inten    --     21.7728                13.3849                 4.2859

                     10                     11                     12
                      A                      A                      A
 Frequencies --    293.6357               335.7181               347.1451
 Red. masses --      4.1002                 6.4374                 4.7858
 Frc consts  --      0.2083                 0.4275                 0.3398
 IR Inten    --      5.4213                10.3992                 2.6989

                     13                     14                     15
                      A                      A                      A
 Frequencies --    384.6761               403.2546               410.7418
 Red. masses --      5.6374                 7.2664                 5.5381
 Frc consts  --      0.4915                 0.6962                 0.5505
 IR Inten    --     14.2164                 1.5686                37.1819

                     16                     17                     18
                      A                      A                      A
 Frequencies --    436.1970               454.3057               475.5158
 Red. masses --      1.6374                 2.7582                 3.6817
 Frc consts  --      0.1836                 0.3354                 0.4905
 IR Inten    --    218.1068                67.3348                45.0551

                     19                     20                     21
                      A                      A                      A
 Frequencies --    495.7707               514.1537               561.6740
 Red. masses --      7.9507                 4.0808                 6.1412
 Frc consts  --      1.1514                 0.6356                 1.1415
 IR Inten    --      8.9523                28.7740                34.8879

                     22                     23                     24
                      A                      A                      A
 Frequencies --    576.4325               593.2274               650.6625
 Red. masses --      4.1967                 4.6593                 4.7147
 Frc consts  --      0.8216                 0.9661                 1.1760
 IR Inten    --      9.6488                26.7553                 5.3913

                     25                     26                     27
                      A                      A                      A
 Frequencies --    655.4792               680.4560               700.7510
 Red. masses --      6.1832                 5.8708                 2.2540
 Frc consts  --      1.5652                 1.6016                 0.6521
 IR Inten    --      7.6472                 7.0225               115.3515

                     28                     29                     30
                      A                      A                      A
 Frequencies --    743.2582               748.0944               768.7256
 Red. masses --      4.2437                 5.2699                 1.6064
 Frc consts  --      1.3813                 1.7377                 0.5593
 IR Inten    --     28.6061                19.9278                18.0464

                     31                     32                     33
                      A                      A                      A
 Frequencies --    784.7202               801.2940               813.7041
 Red. masses --      1.9163                 2.7702                 2.8053
 Frc consts  --      0.6953                 1.0479                 1.0944
 IR Inten    --    165.7040                83.0751                19.2975

                     34                     35                     36
                      A                      A                      A
 Frequencies --    836.5328               851.3694               893.8765
 Red. masses --      2.0503                 1.7536                 5.5630
 Frc consts  --      0.8454                 0.7489                 2.6189
 IR Inten    --    129.7151                 2.0760                39.5391

                     37                     38                     39
                      A                      A                      A
 Frequencies --    947.7483               961.8217               978.5463
 Red. masses --      1.2588                 2.3855                 1.3319
 Frc consts  --      0.6662                 1.3002                 0.7514
 IR Inten    --      0.4012                30.3037                 3.9263

                     40                     41                     42
                      A                      A                      A
 Frequencies --    985.6277               996.8712              1021.0044
 Red. masses --      1.2476                 3.1849                 2.0225
 Frc consts  --      0.7141                 1.8648                 1.2422
 IR Inten    --      0.9248               209.8042                62.3223

                     43                     44                     45
                      A                      A                      A
 Frequencies --   1041.5606              1044.8541              1098.3569
 Red. masses --      2.4930                 1.4568                 2.3727
 Frc consts  --      1.5934                 0.9370                 1.6864
 IR Inten    --    568.5705                 9.3043               249.1636

                     46                     47                     48
                      A                      A                      A
 Frequencies --   1125.3686              1144.1418              1169.4988
 Red. masses --      1.5749                 1.6383                 1.9306
 Frc consts  --      1.1751                 1.2636                 1.5557
 IR Inten    --    305.3049               102.8719                26.1886

                     49                     50                     51
                      A                      A                      A
 Frequencies --   1181.3630              1211.7704              1223.9892
 Red. masses --      1.6710                 2.3847                 2.6399
 Frc consts  --      1.3740                 2.0631                 2.3302
 IR Inten    --    444.0529               411.0406               323.9936

                     52                     53                     54
                      A                      A                      A
 Frequencies --   1257.1052              1270.5481              1301.1050
 Red. masses --      2.5258                 3.1889                 5.7144
 Frc consts  --      2.3517                 3.0330                 5.6996
 IR Inten    --    114.4575                59.5629                37.8115

                     55                     56                     57
                      A                      A                      A
 Frequencies --   1341.8875              1349.6500              1367.3331
 Red. masses --      3.1193                 6.3283                 2.2391
 Frc consts  --      3.3093                 6.7917                 2.4664
 IR Inten    --   1490.0823               475.0718               501.4865

                     58                     59                     60
                      A                      A                      A
 Frequencies --   1404.7902              1426.6581              1431.7390
 Red. masses --      1.3698                 3.1015                 6.7304
 Frc consts  --      1.5927                 3.7193                 8.1287
 IR Inten    --     50.5765               321.2858               194.5047

                     61                     62                     63
                      A                      A                      A
 Frequencies --   1461.8446              1471.5725              1475.2602
 Red. masses --      2.7587                 1.1263                 1.9927
 Frc consts  --      3.4734                 1.4370                 2.5552
 IR Inten    --    245.0052                20.7985                15.1462

                     64                     65                     66
                      A                      A                      A
 Frequencies --   1494.8516              1500.0884              1530.3829
 Red. masses --      1.3206                 4.6667                 4.0077
 Frc consts  --      1.7386                 6.1871                 5.5302
 IR Inten    --      9.6983                69.6614               136.7642

                     67                     68                     69
                      A                      A                      A
 Frequencies --   1573.1819              1587.7541              1604.8468
 Red. masses --      4.1031                 1.6283                 5.1088
 Frc consts  --      5.9830                 2.4186                 7.7524
 IR Inten    --    157.5573                91.8737                14.2783

                     70                     71                     72
                      A                      A                      A
 Frequencies --   1619.1577              2975.7699              3006.6461
 Red. masses --      3.8167                 1.0446                 1.0960
 Frc consts  --      5.8954                 5.4498                 5.8374
 IR Inten    --     75.7568               200.8993                77.8777

                     73                     74                     75
                      A                      A                      A
 Frequencies --   3082.4388              3126.9313              3137.1362
 Red. masses --      1.0947                 1.0876                 1.0847
 Frc consts  --      6.1282                 6.2658                 6.2894
 IR Inten    --     44.4119                81.7472                28.7437

                     76                     77                     78
                      A                      A                      A
 Frequencies --   3153.1040              3173.8318              3178.7957
 Red. masses --      1.0895                 1.0914                 1.0926
 Frc consts  --      6.3822                 6.4773                 6.5048
 IR Inten    --     43.0227                46.4897                87.0893

                     79                     80                     81
                      A                      A                      A
 Frequencies --   3180.4248              3214.9565              3603.9680
 Red. masses --      1.0911                 1.0701                 1.0815
 Frc consts  --      6.5023                 6.5164                 8.2765
 IR Inten    --     19.2490               525.8303                32.6307

 - Thermochemistry -
 -------------------
 Temperature   298.150 Kelvin.  Pressure   1.00000 Atm.
 Atom     1 has atomic number  6 and mass  12.00000

 Molecular mass:   237.07898 amu.
 Principal axes and moments of inertia in atomic units:
                           1         2         3
     Eigenvalues --  2085.773555653.481627723.90819
           X            0.99281  -0.11970   0.00181
           Y            0.11818   0.98240   0.14463
           Z           -0.01909  -0.14337   0.98948
 This molecule is an asymmetric top.
 Rotational symmetry number  1.
 Warning -- assumption of classical behavior for rotation
           may cause significant error
 Rotational temperatures (Kelvin)      0.04153     0.01532     0.01121
 Rotational constants (GHZ):           0.86526     0.31923     0.23366
 Zero-point vibrational energy     575423.6 (Joules/Mol)
                                  137.52954 (Kcal/Mol)
 Warning -- explicit consideration of  23 degrees of freedom as
           vibrations may cause significant error
 Vibrational temperatures:     88.12   127.71   182.46   218.96   251.26
          (Kelvin)            270.62   295.76   389.25   414.10   422.48
                              483.02   499.46   553.46   580.19   590.97
                              627.59   653.64   684.16   713.30   739.75
                              808.12   829.36   853.52   936.16   943.09
                              979.02  1008.22  1069.38  1076.34  1106.02
                             1129.04  1152.88  1170.74  1203.58  1224.93
                             1286.09  1363.60  1383.85  1407.91  1418.10
                             1434.28  1469.00  1498.57  1503.31  1580.29
                             1619.15  1646.16  1682.65  1699.72  1743.47
                             1761.05  1808.69  1828.04  1872.00  1930.68
                             1941.85  1967.29  2021.18  2052.64  2059.95
                             2103.27  2117.26  2122.57  2150.76  2158.29
                             2201.88  2263.46  2284.42  2309.02  2329.61
                             4281.47  4325.89  4434.94  4498.96  4513.64
                             4536.61  4566.44  4573.58  4575.92  4625.61
                             5185.31

 Zero-point correction=                           0.219167 (Hartree/Particle)
 Thermal correction to Energy=                    0.233126
 Thermal correction to Enthalpy=                  0.234071
 Thermal correction to Gibbs Free Energy=         0.179326
 Sum of electronic and zero-point Energies=           -783.676483
 Sum of electronic and thermal Energies=              -783.662524
 Sum of electronic and thermal Enthalpies=            -783.661580
 Sum of electronic and thermal Free Energies=         -783.716324

                     E (Thermal)             CV                S
                      KCal/Mol        Cal/Mol-Kelvin    Cal/Mol-Kelvin
 Total                  146.289             57.610            115.219
 Electronic               0.000              0.000              0.000
 Translational            0.889              2.981             42.291
 Rotational               0.889              2.981             32.876
 Vibrational            144.512             51.649             40.051
 Vibration     1          0.597              1.973              4.417
 Vibration     2          0.602              1.957              3.687
 Vibration     3          0.611              1.926              2.994
 Vibration     4          0.619              1.900              2.645
 Vibration     5          0.627              1.874              2.385
 Vibration     6          0.633              1.856              2.247
 Vibration     7          0.640              1.832              2.083
 Vibration     8          0.674              1.727              1.593
 Vibration     9          0.685              1.696              1.487
 Vibration    10          0.688              1.686              1.453
 Vibration    11          0.717              1.604              1.232
 Vibration    12          0.725              1.581              1.179
 Vibration    13          0.754              1.503              1.021
 Vibration    14          0.769              1.463              0.951
 Vibration    15          0.775              1.447              0.924
 Vibration    16          0.797              1.391              0.839
 Vibration    17          0.813              1.351              0.783
 Vibration    18          0.832              1.304              0.722
 Vibration    19          0.851              1.259              0.669
 Vibration    20          0.869              1.219              0.624
 Vibration    21          0.917              1.114              0.521
 Vibration    22          0.933              1.082              0.492
 Vibration    23          0.951              1.046              0.461

                           ! Non-Optimized Parameters !
 Normal termination of Gaussian 16 at Sat Feb 10 20:24:40 2024.
