 Q-Chem 5.4, Q-Chem, Inc., Pleasanton, CA (2021)
 Q-Chem 5.4.0 for Intel X86 EM64T Linux

User input:
--------------------------------------------------------------
$molecule
-2 1
C                  2.8761670000      2.5198750000     -0.3871540000
O                  2.5614690000      1.1585980000     -0.2519960000
C                  1.2361460000      0.7927030000     -0.1596330000
C                  0.2371030000      1.7453540000     -0.2007640000
C                 -1.1195670000      1.3659210000     -0.1060910000
C                 -1.4704010000      0.0330450000     -0.0183670000
O                 -2.7932360000     -0.3416270000      0.0747820000
C                 -3.7776440000      0.6590010000      0.0782050000
C                 -0.4765260000     -1.0042600000     -0.0125150000
C                 -0.8645800000     -2.4257830000      0.0157390000
O                 -2.0595770000     -2.8649740000     -0.0202310000
C                  0.2348240000     -3.3457090000      0.0951620000
C                  1.5560120000     -2.9689300000      0.1317880000
C                  2.0083500000     -1.6072980000      0.0807810000
O                  3.2548360000     -1.3494800000      0.1260070000
C                  0.9329810000     -0.6053910000     -0.0280940000
H                  3.9644380000      2.5718560000     -0.4780070000
H                  2.5654600000      3.1146500000      0.4857930000
H                  2.4270850000      2.9750710000     -1.2844450000
H                  0.4699080000      2.7987050000     -0.2867360000
H                 -1.8717150000      2.1438070000     -0.1233410000
H                 -4.7342200000      0.1427980000      0.1956520000
H                 -3.6591160000      1.3718340000      0.9099680000
H                 -3.7993950000      1.2344170000     -0.8602830000
H                 -0.0440580000     -4.3979480000      0.1288470000
H                  2.3452570000     -3.7162340000      0.2006070000
$end
$rem
MAX_SCF_CYCLES=200
BASIS  =  6-311++G(d,p)
GUI  =  2
JOB_TYPE  =  SP
METHOD  =  B3LYP
SOLVENT_METHOD = PCM
$end
$pcm
theory = CPCM
$end
$solvent
dielectric 37.219
opticaldielectric 1.43
$end

--------------------------------------------------------------

             Standard Nuclear Orientation (Angstroms)
    I     Atom           X                Y                Z
 ----------------------------------------------------------------
    1      C       2.8761670000     2.5198750000    -0.3871540000
    2      O       2.5614690000     1.1585980000    -0.2519960000
    3      C       1.2361460000     0.7927030000    -0.1596330000
    4      C       0.2371030000     1.7453540000    -0.2007640000
    5      C      -1.1195670000     1.3659210000    -0.1060910000
    6      C      -1.4704010000     0.0330450000    -0.0183670000
    7      O      -2.7932360000    -0.3416270000     0.0747820000
    8      C      -3.7776440000     0.6590010000     0.0782050000
    9      C      -0.4765260000    -1.0042600000    -0.0125150000
   10      C      -0.8645800000    -2.4257830000     0.0157390000
   11      O      -2.0595770000    -2.8649740000    -0.0202310000
   12      C       0.2348240000    -3.3457090000     0.0951620000
   13      C       1.5560120000    -2.9689300000     0.1317880000
   14      C       2.0083500000    -1.6072980000     0.0807810000
   15      O       3.2548360000    -1.3494800000     0.1260070000
   16      C       0.9329810000    -0.6053910000    -0.0280940000
   17      H       3.9644380000     2.5718560000    -0.4780070000
   18      H       2.5654600000     3.1146500000     0.4857930000
   19      H       2.4270850000     2.9750710000    -1.2844450000
   20      H       0.4699080000     2.7987050000    -0.2867360000
   21      H      -1.8717150000     2.1438070000    -0.1233410000
   22      H      -4.7342200000     0.1427980000     0.1956520000
   23      H      -3.6591160000     1.3718340000     0.9099680000
   24      H      -3.7993950000     1.2344170000    -0.8602830000
   25      H      -0.0440580000    -4.3979480000     0.1288470000
   26      H       2.3452570000    -3.7162340000     0.2006070000
 ----------------------------------------------------------------

    9    -764.6027496000      7.20e-06  Convergence criterion met
 Total energy in the final basis set =     -764.6027496000

                    Orbital Energies (a.u.)
 --------------------------------------------------------------

 Alpha MOs
 -- Occupied --
-19.1281 -19.1280 -19.0099 -19.0098 -10.2050 -10.2050 -10.2030 -10.2030
-10.1715 -10.1715 -10.1442 -10.1438 -10.1405 -10.1400 -10.1161 -10.1155
 -1.0462  -1.0455  -0.9367  -0.9340  -0.8204  -0.7598  -0.7380  -0.7152
 -0.6849  -0.6586  -0.6341  -0.5816  -0.5734  -0.5377  -0.5009  -0.4882
 -0.4681  -0.4611  -0.4517  -0.4485  -0.4217  -0.4178  -0.4061  -0.3873
 -0.3842  -0.3745  -0.3679  -0.3546  -0.3345  -0.3307  -0.3281  -0.3235
 -0.3171  -0.3074  -0.3055  -0.2730  -0.2240  -0.2166  -0.1901  -0.1867
 -0.1847  -0.1028

          Ground-State Mulliken Net Atomic Charges

     Atom                 Charge (a.u.)
  ----------------------------------------
      1 C                    -0.315467
      2 O                    -0.176857
      3 C                    -0.247406
      4 C                    -0.204830
      5 C                    -0.206647
      6 C                    -0.249332
      7 O                    -0.177086
      8 C                    -0.315449
      9 C                     0.060274
     10 C                    -0.003602
     11 O                    -0.735221
     12 C                    -0.193260
     13 C                    -0.192215
     14 C                     0.003225
     15 O                    -0.735454
     16 C                     0.057603
     17 H                     0.191275
     18 H                     0.153984
     19 H                     0.146927
     20 H                     0.192013
     21 H                     0.193138
     22 H                     0.191274
     23 H                     0.146788
     24 H                     0.153832
     25 H                     0.131399
     26 H                     0.131095
  ----------------------------------------
  Sum of atomic charges =    -2.000000

                    Cartesian Multipole Moments
 -----------------------------------------------------------------
    Charge (ESU x 10^10)
                -9.6064
    Dipole Moment (Debye)
         X      -5.7878      Y      20.3968      Z      -0.5183
       Tot      21.2084
    Quadrupole Moments (Debye-Ang)
        XX    -156.6444     XY      -4.8170     YY    -141.4688
        XZ      -2.2611     YZ      -0.0707     ZZ    -104.3577

 Total job time:  53.50s(wall), 293.49s(cpu)
        *  Thank you very much for using Q-Chem.  Have a nice day.  *
