 Q-Chem 5.4, Q-Chem, Inc., Pleasanton, CA (2021)
 Q-Chem 5.4.0 for Intel X86 EM64T Linux

User input:
--------------------------------------------------------------
$molecule
0 1
C                  3.7413550000      0.0288080000     -0.2368300000
C                  2.8022320000      0.1296760000      0.9808400000
C                  1.3535630000      0.3024080000      0.6006840000
C                  0.5803420000     -0.9453300000      0.3436990000
O                  1.1404850000     -2.0262030000      0.4654170000
C                 -0.8460740000     -0.8243080000     -0.0516220000
C                 -1.6428190000     -1.9444910000     -0.3034330000
O                 -1.1782390000     -3.2069440000     -0.2078410000
C                 -2.9970730000     -1.7649530000     -0.6759380000
O                 -3.7188380000     -2.8970060000     -0.9078060000
C                 -3.5518800000     -0.5086010000     -0.7963310000
O                 -4.8613640000     -0.4132330000     -1.1583250000
C                 -2.7668530000      0.6270480000     -0.5469010000
C                 -1.4238250000      0.4726070000     -0.1776420000
C                 -0.6456510000      1.6801000000      0.0726300000
C                  0.7766340000      1.5203970000      0.4602550000
O                  1.4006950000      2.7033820000      0.6506230000
O                 -1.1381100000      2.8125180000     -0.0321550000
O                 -3.3900410000      1.8125080000     -0.6872710000
H                  3.4724280000     -0.8328980000     -0.8501810000
H                  3.6892920000      0.9227140000     -0.8649590000
H                  4.7770750000     -0.0974860000      0.0890630000
H                  2.8881060000     -0.7856180000      1.5687990000
H                  3.1279550000      0.9474300000      1.6372500000
H                 -1.9011400000     -3.8130430000     -0.4233560000
H                  2.3129410000      2.5478190000      0.9221140000
H                 -2.7122010000      2.5100100000     -0.4785050000
H                 -4.6234550000     -2.6601290000     -1.1521770000
H                 -5.1013720000      0.5236760000     -1.1992290000
$end
$rem
MAX_SCF_CYCLES=200
BASIS  =  6-311++G(d,p)
GUI  =  2
JOB_TYPE  =  SP
METHOD  =  B3LYP
SOLVENT_METHOD = COSMO
$end
$solvent
dielectric 37.219
opticaldielectric 1.43
$end

--------------------------------------------------------------

             Standard Nuclear Orientation (Angstroms)
    I     Atom           X                Y                Z
 ----------------------------------------------------------------
    1      C      -4.3181154518    -1.1465433482     1.0265228604
    2      C      -3.7134484645    -0.8024021577    -0.3485375990
    3      C      -2.3258807679    -0.2197773340    -0.2579782158
    4      C      -1.1978758341    -1.1926441031    -0.2144208923
    5      O      -1.4443908558    -2.3897994476    -0.2683775348
    6      C       0.1864323029    -0.6656743971    -0.1068033592
    7      C       1.2996171153    -1.5096512557    -0.0675100538
    8      O       1.1990549358    -2.8533746647    -0.1227787813
    9      C       2.5951630948    -0.9474115036     0.0346899521
   10      O       3.6372990317    -1.8243569148     0.0689085762
   11      C       2.7871112409     0.4164528348     0.0959729453
   12      O       4.0621714245     0.8851248321     0.1931899441
   13      C       1.6810569866     1.2786203096     0.0573387803
   14      C       0.3896507781     0.7436790031    -0.0428422742
   15      C      -0.7303285102     1.6766596875    -0.0805732897
   16      C      -2.0983303015     1.1138964234    -0.1831472500
   17      O      -3.0546897708     2.0680471177    -0.1940392353
   18      O      -0.5652202408     2.9037641884    -0.0274687431
   19      O       1.9611197286     2.5942315836     0.1214813410
   20      H      -3.6990053010    -1.8868157388     1.5361872792
   21      H      -4.3925529901    -0.2648943611     1.6695459160
   22      H      -5.3203752927    -1.5666194747     0.9086941728
   23      H      -3.6565395345    -1.7135229348    -0.9464117825
   24      H      -4.3822450220    -0.1210593665    -0.8909160009
   25      H       2.0911863694    -3.2259851181    -0.0821398341
   26      H      -3.9218487827     1.6557962482    -0.2845071477
   27      H       1.0869496360     3.0673682889     0.0823961069
   28      H       4.4689421170    -1.3367337282     0.1378521908
   29      H       4.0324216435     1.8521476742     0.2257049400
 ----------------------------------------------------------------

    9    -990.1604761719      8.09e-06  Convergence criterion met
 Total energy in the final basis set =     -990.1604761719
    5    -990.1900473135      2.96e-06  Convergence criterion met
 Total energy in the final basis set =     -990.1900473135

                    Orbital Energies (a.u.)
 --------------------------------------------------------------

 Alpha MOs
 -- Occupied --
-19.1868 -19.1831 -19.1811 -19.1757 -19.1731 -19.1433 -19.1199 -10.2913
-10.2780 -10.2711 -10.2704 -10.2678 -10.2672 -10.2639 -10.2096 -10.2077
-10.2040 -10.1840 -10.1642  -1.1174  -1.1058  -1.0996  -1.0866  -1.0756
 -1.0601  -1.0557  -0.8892  -0.8406  -0.7951  -0.7737  -0.7551  -0.7065
 -0.6804  -0.6736  -0.6398  -0.6157  -0.6083  -0.5821  -0.5758  -0.5489
 -0.5398  -0.5177  -0.5041  -0.4978  -0.4877  -0.4716  -0.4639  -0.4562
 -0.4450  -0.4383  -0.4321  -0.4243  -0.4181  -0.4166  -0.4106  -0.4079
 -0.4003  -0.3972  -0.3914  -0.3863  -0.3802  -0.3638  -0.3515  -0.3287
 -0.2981  -0.2716  -0.2684  -0.2452  -0.2356

          Ground-State Mulliken Net Atomic Charges

     Atom                 Charge (a.u.)
  ----------------------------------------
      1 C                    -0.614409
      2 C                    -0.140533
      3 C                     1.367105
      4 C                    -0.399609
      5 O                    -0.335519
      6 C                     0.559227
      7 C                    -0.216732
      8 O                    -0.254823
      9 C                    -0.232663
     10 O                    -0.315480
     11 C                    -0.234375
     12 O                    -0.321051
     13 C                     0.086017
     14 C                     0.911858
     15 C                    -0.587742
     16 C                    -0.831673
     17 O                    -0.247670
     18 O                    -0.376421
     19 O                    -0.420786
     20 H                     0.175660
     21 H                     0.160567
     22 H                     0.160625
     23 H                     0.212941
     24 H                     0.158563
     25 H                     0.330418
     26 H                     0.323058
     27 H                     0.397930
     28 H                     0.342420
     29 H                     0.343096
  ----------------------------------------
  Sum of atomic charges =     0.000000

                    Cartesian Multipole Moments
 -----------------------------------------------------------------
    Charge (ESU x 10^10)
                 0.0000
    Dipole Moment (Debye)
         X       2.1296      Y       0.7270      Z       0.2008
       Tot       2.2592
    Quadrupole Moments (Debye-Ang)
        XX     -73.9828     XY      -3.3388     YY    -130.0582
        XZ       1.7448     YZ      -1.1569     ZZ    -109.6134

 Total job time:  72.49s(wall), 539.04s(cpu)
        *  Thank you very much for using Q-Chem.  Have a nice day.  *
