 Gaussian 16, Revision A.03,
 Gaussian 16:  ES64L-G16RevA.03 25-Dec-2016

 ----------------------------------------------------------------------
 #P UB3LYP/6-311++G(d,p) nosym opt freq SCRF=(PCM,Solvent=n,n-DiMethylF
 ormamide)
 ----------------------------------------------------------------------

 -------
 Radical
 -------
 Symbolic Z-matrix:
 Charge = -1 Multiplicity = 2

 SCF Done:  E(UB3LYP) =  -3777.62930509     A.U. after   21 cycles
 SCF Done:  E(UB3LYP) =  -3777.62966358     A.U. after   15 cycles
 SCF Done:  E(UB3LYP) =  -3777.62971787     A.U. after   14 cycles
 SCF Done:  E(UB3LYP) =  -3777.62973465     A.U. after   13 cycles
 SCF Done:  E(UB3LYP) =  -3777.62974046     A.U. after   12 cycles
 SCF Done:  E(UB3LYP) =  -3777.62974485     A.U. after   12 cycles
 SCF Done:  E(UB3LYP) =  -3777.62974558     A.U. after   11 cycles
 Optimization completed.
    -- Stationary point found.
 Normal termination of Gaussian 16 at Sat Feb 10 17:04:32 2024.

 ----------------------------------------------------------------------
 #P Geom=AllCheck Guess=TCheck SCRF=Check GenChk UB3LYP/6-311++G(d,p) F
 req
 ----------------------------------------------------------------------

 Structure from the checkpoint file:  "160-rad.chk"
 -------
 Radical
 -------
 Charge = -1 Multiplicity = 2

                          Input orientation:
 ---------------------------------------------------------------------
 Center     Atomic      Atomic             Coordinates (Angstroms)
 Number     Number       Type             X           Y           Z
 ---------------------------------------------------------------------
      1          6           0       -1.775216    1.885542   -5.145024
      2          6           0       -1.679850    0.561096   -5.523024
      3          6           0       -1.296602   -0.417393   -4.580983
      4          6           0       -1.494003    2.294859   -3.820288
      5          6           0       -1.108755    1.306776   -2.875053
      6          6           0       -1.017988   -0.043501   -3.281835
      7          6           0       -1.614226    3.716825   -3.481930
      8          6           0       -0.810607    1.672029   -1.498296
      9          6           0       -1.302997    4.101268   -2.099741
     10          6           0       -0.923128    3.089173   -1.156129
     11          6           0       -1.354633    5.437192   -1.610757
     12          6           0       -1.070569    5.796899   -0.285405
     13          6           0       -0.707486    4.741544    0.594139
     14          6           0       -0.633472    3.442778    0.174468
     15          8           0       -1.974794    4.540359   -4.366089
     16          8           0       -0.469631    0.812366   -0.640075
     17          1           0       -2.068767    2.645466   -5.858237
     18          1           0       -1.899638    0.271065   -6.544951
     19          1           0       -1.222347   -1.457766   -4.878371
     20          1           0       -0.723052   -0.778563   -2.542932
     21         35           0       -0.293530    5.151579    2.432997
     22          1           0       -0.350168    2.651013    0.854302
     23          7           0       -1.189068    7.092402    0.174715
     24         17           0       -1.780949    6.807011   -2.652530
     25          1           0       -1.166588    7.818530   -0.526020
     26          1           0       -0.677757    7.312840    1.017038
 ---------------------------------------------------------------------

 SCF Done:  E(UB3LYP) =  -3777.62974558     A.U. after    1 cycles

 Alpha  occ. eigenvalues -- -482.83885-101.55207 -62.49169 -56.31195 -56.30821
 Alpha  occ. eigenvalues --  -56.30810 -19.07738 -19.07371 -14.33074 -10.24148
 Alpha  occ. eigenvalues --  -10.23819 -10.23393 -10.22857 -10.22835 -10.19443
 Alpha  occ. eigenvalues --  -10.18502 -10.18026 -10.17521 -10.17379 -10.17371
 Alpha  occ. eigenvalues --  -10.17306 -10.17164 -10.17006  -9.46691  -8.70138
 Alpha  occ. eigenvalues --   -7.23132  -7.22209  -7.22118  -6.53245  -6.52001
 Alpha  occ. eigenvalues --   -6.51983  -2.64344  -2.63987  -2.63974  -2.62987
 Alpha  occ. eigenvalues --   -2.62985  -1.00355  -1.00053  -0.94838  -0.87322
 Alpha  occ. eigenvalues --   -0.85892  -0.85231  -0.81193  -0.77368  -0.75157
 Alpha  occ. eigenvalues --   -0.74024  -0.73312  -0.66895  -0.64110  -0.62184
 Alpha  occ. eigenvalues --   -0.59854  -0.56556  -0.54754  -0.53694  -0.51525
 Alpha  occ. eigenvalues --   -0.49704  -0.47046  -0.46064  -0.45570  -0.43934
 Alpha  occ. eigenvalues --   -0.43637  -0.42846  -0.42268  -0.41566  -0.40866
 Alpha  occ. eigenvalues --   -0.40631  -0.39584  -0.38407  -0.36616  -0.35581
 Alpha  occ. eigenvalues --   -0.35457  -0.35010  -0.33874  -0.32298  -0.32149
 Alpha  occ. eigenvalues --   -0.30865  -0.30283  -0.26464  -0.25740  -0.25172
 Alpha  occ. eigenvalues --   -0.24694  -0.23379  -0.22545  -0.14318
 Alpha virt. eigenvalues --   -0.05874  -0.02614  -0.02446  -0.00842  -0.00413
 Alpha virt. eigenvalues --    0.00298   0.00945   0.01901   0.02059   0.03106
 Alpha virt. eigenvalues --    0.03864   0.03964   0.04607   0.04916   0.05243

  Beta  occ. eigenvalues -- -482.83884-101.55204 -62.49168 -56.31195 -56.30818
  Beta  occ. eigenvalues --  -56.30810 -19.07240 -19.06744 -14.33053 -10.24109
  Beta  occ. eigenvalues --  -10.23755 -10.23353 -10.22697 -10.22652 -10.19349
  Beta  occ. eigenvalues --  -10.18513 -10.17968 -10.17453 -10.17342 -10.17296
  Beta  occ. eigenvalues --  -10.17259 -10.17163 -10.16998  -9.46688  -8.70137
  Beta  occ. eigenvalues --   -7.23134  -7.22195  -7.22116  -6.53246  -6.51997
  Beta  occ. eigenvalues --   -6.51981  -2.64343  -2.63986  -2.63973  -2.62984
  Beta  occ. eigenvalues --   -2.62982  -0.99446  -0.98994  -0.94751  -0.87165
  Beta  occ. eigenvalues --   -0.85724  -0.85159  -0.81013  -0.77104  -0.74933
  Beta  occ. eigenvalues --   -0.73848  -0.73136  -0.66218  -0.63929  -0.61951
  Beta  occ. eigenvalues --   -0.59771  -0.56345  -0.54593  -0.53578  -0.51378
  Beta  occ. eigenvalues --   -0.49536  -0.46781  -0.45993  -0.45448  -0.43879
  Beta  occ. eigenvalues --   -0.43035  -0.42644  -0.42153  -0.41256  -0.40399
  Beta  occ. eigenvalues --   -0.39792  -0.39349  -0.36582  -0.36530  -0.35389
  Beta  occ. eigenvalues --   -0.34977  -0.34241  -0.33759  -0.32174  -0.31844
  Beta  occ. eigenvalues --   -0.30271  -0.30024  -0.25301  -0.24694  -0.24483
  Beta  occ. eigenvalues --   -0.24222  -0.22842  -0.21870
  Beta virt. eigenvalues --   -0.08452  -0.04937  -0.02561  -0.01507  -0.00518
  Beta virt. eigenvalues --   -0.00397   0.00304   0.00965   0.01916   0.02072
  Beta virt. eigenvalues --    0.03135   0.03882   0.04101   0.04626   0.05265

 Mulliken charges and spin densities:
               1          2
     1  C    0.117466   0.034890
     2  C   -0.487433   0.026703
     3  C   -0.422143   0.040094
     4  C    0.028710   0.032651
     5  C    0.083805   0.019350
     6  C    0.053062   0.019438
     7  C   -1.127230   0.101157
     8  C   -0.628508   0.087072
     9  C    0.671701   0.071823
    10  C    0.177256   0.025397
    11  C    0.258651   0.056440
    12  C   -1.083836   0.032208
    13  C    0.553406   0.025389
    14  C    0.302023   0.008478
    15  O   -0.361217   0.231557
    16  O   -0.452588   0.184859
    17  H    0.166547  -0.002499
    18  H    0.182559  -0.002423
    19  H    0.183359  -0.003167
    20  H    0.163531  -0.000889
    21  Br  -0.167514   0.001016
    22  H    0.219266  -0.000912
    23  N   -0.205725   0.009973
    24  Cl   0.257991   0.001813
    25  H    0.255342  -0.000406
    26  H    0.261520  -0.000013
 Sum of Mulliken charges =  -1.00000   1.00000

 Dipole moment (field-independent basis, Debye):
    X=              6.8645    Y=            -13.5012    Z=             11.3395  Tot=             18.9206
 Quadrupole moment (field-independent basis, Debye-Ang):
   XX=           -148.1642   YY=           -178.7872   ZZ=           -177.0742
   XY=             30.4366   XZ=            -19.6541   YZ=             51.3571

  Exact polarizability: 178.563 -25.998 492.702  68.381  87.133 476.399
 Approx polarizability: 206.533 -37.996 532.407  75.761  50.419 509.559

                      1                      2                      3
                      A                      A                      A
 Frequencies --     34.8329                37.4104                85.0972
 Red. masses --     10.2456                 9.3333                 6.9688
 Frc consts  --      0.0073                 0.0077                 0.0297
 IR Inten    --      7.8376                 5.2706                 1.4550

                      4                      5                      6
                      A                      A                      A
 Frequencies --    120.4494               126.9938               136.1616
 Red. masses --      5.1656                11.6760                 7.7751
 Frc consts  --      0.0442                 0.1109                 0.0849
 IR Inten    --      1.6853                 1.7020                 3.1648

                      7                      8                      9
                      A                      A                      A
 Frequencies --    187.5119               196.6150               219.7953
 Red. masses --      6.0837                12.5801                16.0662
 Frc consts  --      0.1260                 0.2865                 0.4573
 IR Inten    --      1.0122                 6.4124                 3.2161

                     10                     11                     12
                      A                      A                      A
 Frequencies --    273.7529               283.3985               323.4468
 Red. masses --      5.6039                 7.9750                 7.6423
 Frc consts  --      0.2474                 0.3774                 0.4711
 IR Inten    --      3.9248                 2.2580                 1.3720

                     13                     14                     15
                      A                      A                      A
 Frequencies --    328.4555               345.4985               368.5017
 Red. masses --      5.9881                 7.9655                 8.1655
 Frc consts  --      0.3806                 0.5602                 0.6533
 IR Inten    --     12.3198                 1.9852                 2.9369

                     16                     17                     18
                      A                      A                      A
 Frequencies --    387.1783               391.4720               436.0792
 Red. masses --      1.5123                 2.8323                 5.0812
 Frc consts  --      0.1336                 0.2557                 0.5693
 IR Inten    --     64.4997                 9.6001                 1.0115

                     19                     20                     21
                      A                      A                      A
 Frequencies --    445.3130               476.0764               491.6268
 Red. masses --      3.7607                 9.2167                 9.2147
 Frc consts  --      0.4394                 1.2308                 1.3122
 IR Inten    --     18.1455                11.6123                 2.8881

                     22                     23                     24
                      A                      A                      A
 Frequencies --    503.3544               508.4133               548.8197
 Red. masses --      1.8890                 2.3748                 5.6368
 Frc consts  --      0.2820                 0.3617                 1.0003
 IR Inten    --    377.2517               275.0001                21.7881

                     25                     26                     27
                      A                      A                      A
 Frequencies --    569.7493               619.7275               667.4217
 Red. masses --      5.3423                 6.0593                 6.6486
 Frc consts  --      1.0217                 1.3711                 1.7449
 IR Inten    --     17.7975                34.8315                43.8323

                     28                     29                     30
                      A                      A                      A
 Frequencies --    678.9087               699.9232               708.0977
 Red. masses --      7.8458                 6.9727                 2.7805
 Frc consts  --      2.1306                 2.0126                 0.8214
 IR Inten    --     18.0553                13.8866                93.9318

                     31                     32                     33
                      A                      A                      A
 Frequencies --    722.6909               766.0083               767.4776
 Red. masses --      6.0706                 9.1677                 6.6208
 Frc consts  --      1.8681                 3.1694                 2.2977
 IR Inten    --      2.3645               149.5600                45.1630

                     34                     35                     36
                      A                      A                      A
 Frequencies --    789.4438               796.5326               882.1448
 Red. masses --      1.8917                 4.4407                 6.3571
 Frc consts  --      0.6946                 1.6600                 2.9147
 IR Inten    --     42.9939                 0.3585                 9.2549

                     37                     38                     39
                      A                      A                      A
 Frequencies --    886.6986               930.4647               969.9202
 Red. masses --      1.4689                 1.3752                 8.6409
 Frc consts  --      0.6804                 0.7015                 4.7894
 IR Inten    --      0.2226                18.8965                 4.9832

                     40                     41                     42
                      A                      A                      A
 Frequencies --    990.4042              1003.7135              1018.5743
 Red. masses --      1.3618                 1.2914                 3.6831
 Frc consts  --      0.7870                 0.7666                 2.2514
 IR Inten    --      2.9425                 0.2381                59.7994

                     43                     44                     45
                      A                      A                      A
 Frequencies --   1042.5646              1107.5822              1118.5329
 Red. masses --      1.9235                 2.1046                 2.1482
 Frc consts  --      1.2318                 1.5211                 1.5835
 IR Inten    --     43.0111                55.4731                10.1144

                     46                     47                     48
                      A                      A                      A
 Frequencies --   1149.8870              1151.6787              1188.9038
 Red. masses --      1.4715                 3.9387                 1.9402
 Frc consts  --      1.1464                 3.0780                 1.6158
 IR Inten    --     42.5437                55.7833                20.8054

                     49                     50                     51
                      A                      A                      A
 Frequencies --   1219.8524              1224.1568              1290.1300
 Red. masses --      2.6285                 1.8693                 3.1418
 Frc consts  --      2.3045                 1.6505                 3.0810
 IR Inten    --     18.2200               121.7313                10.7479

                     52                     53                     54
                      A                      A                      A
 Frequencies --   1308.6502              1345.5935              1365.3870
 Red. masses --      2.9798                 5.8147                10.7112
 Frc consts  --      3.0066                 6.2031                11.7652
 IR Inten    --    169.7102                81.7644                13.0910

                     55                     56                     57
                      A                      A                      A
 Frequencies --   1387.8224              1436.4632              1467.7683
 Red. masses --      4.0007                 4.2163                 4.8788
 Frc consts  --      4.5399                 5.1259                 6.1926
 IR Inten    --    857.7600               680.1189               746.2243

                     58                     59                     60
                      A                      A                      A
 Frequencies --   1478.8460              1494.3260              1512.7654
 Red. masses --      2.9114                 3.9157                 7.5572
 Frc consts  --      3.7515                 5.1517                10.1896
 IR Inten    --     45.6993               882.6457               209.3628

                     61                     62                     63
                      A                      A                      A
 Frequencies --   1544.1534              1589.4563              1600.9849
 Red. masses --      6.3236                 4.2571                 8.4519
 Frc consts  --      8.8837                 6.3367                12.7638
 IR Inten    --     26.6162                40.0762                27.2727

                     64                     65                     66
                      A                      A                      A
 Frequencies --   1625.2251              1630.7223              3159.7269
 Red. masses --      2.0449                 2.3611                 1.0862
 Frc consts  --      3.1824                 3.6993                 6.3894
 IR Inten    --    205.7038               138.5799                13.9605

                     67                     68                     69
                      A                      A                      A
 Frequencies --   3173.9752              3190.9650              3197.8051
 Red. masses --      1.0907                 1.0930                 1.0925
 Frc consts  --      6.4740                 6.5574                 6.5823
 IR Inten    --     24.4628                26.7722                34.5360

                     70                     71                     72
                      A                      A                      A
 Frequencies --   3211.6824              3561.1833              3662.9915
 Red. masses --      1.0903                 1.0473                 1.1003
 Frc consts  --      6.6263                 7.8253                 8.6984
 IR Inten    --     10.0055               103.4664                94.2221

 - Thermochemistry -
 -------------------
 Temperature   298.150 Kelvin.  Pressure   1.00000 Atm.
 Atom     1 has atomic number  6 and mass  12.00000

 Molecular mass:   334.93487 amu.
 Principal axes and moments of inertia in atomic units:
                           1         2         3
     Eigenvalues --  3676.34822********************
           X            0.12512  -0.24723   0.96084
           Y            0.57884   0.80474   0.13169
           Z            0.80578  -0.53970  -0.24380
 This molecule is an asymmetric top.
 Rotational symmetry number  1.
 Warning -- assumption of classical behavior for rotation
           may cause significant error
 Rotational temperatures (Kelvin)      0.02356     0.00809     0.00602
 Rotational constants (GHZ):           0.49091     0.16863     0.12553
 Zero-point vibrational energy     455561.5 (Joules/Mol)
                                  108.88182 (Kcal/Mol)
 Warning -- explicit consideration of  26 degrees of freedom as
           vibrations may cause significant error
 Vibrational temperatures:     50.12    53.83   122.44   173.30   182.72
          (Kelvin)            195.91   269.79   282.89   316.24   393.87
                              407.75   465.37   472.57   497.10   530.19
                              557.06   563.24   627.42   640.71   684.97
                              707.34   724.21   731.49   789.63   819.74
                              891.65   960.27   976.80  1007.03  1018.79
                             1039.79  1102.12  1104.23  1135.83  1146.03
                             1269.21  1275.76  1338.73  1395.50  1424.97
                             1444.12  1465.50  1500.02  1593.56  1609.32
                             1654.43  1657.01  1710.57  1755.10  1761.29
                             1856.21  1882.86  1936.01  1964.49  1996.77
                             2066.75  2111.79  2127.73  2150.00  2176.53
                             2221.69  2286.87  2303.46  2338.34  2346.25
                             4546.14  4566.64  4591.09  4600.93  4620.89
                             5123.75  5270.23

 Zero-point correction=                           0.173514 (Hartree/Particle)
 Thermal correction to Energy=                    0.189041
 Thermal correction to Enthalpy=                  0.189986
 Thermal correction to Gibbs Free Energy=         0.128678
 Sum of electronic and zero-point Energies=          -3777.456231
 Sum of electronic and thermal Energies=             -3777.440704
 Sum of electronic and thermal Enthalpies=           -3777.439760
 Sum of electronic and thermal Free Energies=        -3777.501068

                     E (Thermal)             CV                S
                      KCal/Mol        Cal/Mol-Kelvin    Cal/Mol-Kelvin
 Total                  118.625             60.226            129.033
 Electronic               0.000              0.000              1.377
 Translational            0.889              2.981             43.321
 Rotational               0.889              2.981             34.691
 Vibrational            116.848             54.264             49.644
 Vibration     1          0.594              1.983              5.533
 Vibration     2          0.594              1.982              5.392
 Vibration     3          0.601              1.960              3.770
 Vibration     4          0.609              1.932              3.093
 Vibration     5          0.611              1.926              2.991
 Vibration     6          0.614              1.917              2.857
 Vibration     7          0.632              1.857              2.252
 Vibration     8          0.636              1.845              2.165
 Vibration     9          0.647              1.811              1.961
 Vibration    10          0.676              1.722              1.572
 Vibration    11          0.682              1.704              1.513
 Vibration    12          0.708              1.629              1.293
 Vibration    13          0.712              1.619              1.268
 Vibration    14          0.724              1.584              1.187
 Vibration    15          0.741              1.537              1.086
 Vibration    16          0.756              1.498              1.011
 Vibration    17          0.759              1.488              0.995
 Vibration    18          0.797              1.392              0.839
 Vibration    19          0.805              1.371              0.810
 Vibration    20          0.833              1.303              0.721
 Vibration    21          0.847              1.269              0.679
 Vibration    22          0.859              1.243              0.650
 Vibration    23          0.864              1.231              0.637
 Vibration    24          0.904              1.142              0.547
 Vibration    25          0.926              1.097              0.505
 Vibration    26          0.980              0.990              0.417

                           ! Non-Optimized Parameters !
 Normal termination of Gaussian 16 at Sat Feb 10 17:46:39 2024.
