 Gaussian 16, Revision A.03,
 Gaussian 16:  ES64L-G16RevA.03 25-Dec-2016

 ----------------------------------------------------------------
 #P UB3LYP/6-311++G(d,p) SCRF=(PCM,Solvent=n,n-DiMethylFormamide)
 ----------------------------------------------------------------

 ------------------
 Radical PCM in DMF
 ------------------
 Symbolic Z-matrix:
 Charge = -1 Multiplicity = 2

                         Standard orientation:
 ---------------------------------------------------------------------
 Center     Atomic      Atomic             Coordinates (Angstroms)
 Number     Number       Type             X           Y           Z
 ---------------------------------------------------------------------
      1          8           0        2.341464    2.920866   -0.000342
      2          6           0        1.737619    1.814132   -0.000223
      3          6           0        0.305439    1.711406   -0.000910
      4          6           0       -0.405727    0.524121   -0.001018
      5          6           0       -1.924744    0.566589   -0.000660
      6          6           0       -2.542168   -0.064111    1.268784
      7          6           0       -4.075319    0.026627    1.266971
      8          6           0       -4.677892   -0.600071    0.001350
      9          6           0       -4.076732    0.026072   -1.265237
     10          6           0       -2.543586   -0.064838   -1.269035
     11          6           0        0.282260   -0.751425   -0.000843
     12          8           0       -0.324953   -1.860710   -0.001325
     13          6           0        1.756319   -0.699901   -0.000442
     14          6           0        2.489594   -1.903982   -0.000253
     15          6           0        3.873094   -1.898129    0.000510
     16          6           0        4.572079   -0.674956    0.001104
     17          6           0        3.870805    0.517837    0.000819
     18          6           0        2.462797    0.531509    0.000015
     19          1           0       -0.230070    2.658245   -0.001072
     20          1           0       -2.208244    1.629673   -0.000796
     21          1           0       -2.227003   -1.110039    1.319398
     22          1           0       -2.136823    0.438694    2.153903
     23          1           0       -4.482580   -0.461862    2.160883
     24          1           0       -4.381442    1.081463    1.322659
     25          1           0       -4.468793   -1.677708    0.001453
     26          1           0       -5.769720   -0.489308    0.001928
     27          1           0       -4.382706    1.080964   -1.320865
     28          1           0       -4.485294   -0.462579   -2.158469
     29          1           0       -2.139344    0.437443   -2.154952
     30          1           0       -2.228518   -1.110798   -1.319398
     31          1           0        1.926792   -2.830504   -0.000669
     32          1           0        4.421407   -2.835957    0.000681
     33          1           0        5.658344   -0.670042    0.001788
     34          1           0        4.378879    1.475786    0.001272
 ---------------------------------------------------------------------

 SCF Done:  E(UB3LYP) =  -770.147022481     A.U. after   18 cycles

 The electronic state is 2-A.
 Alpha  occ. eigenvalues --  -19.07302 -19.07084 -10.21773 -10.21689 -10.17190
 Alpha  occ. eigenvalues --  -10.17140 -10.17034 -10.16971 -10.16848 -10.16773
 Alpha  occ. eigenvalues --  -10.16672 -10.16430 -10.15588 -10.15571 -10.15557
 Alpha  occ. eigenvalues --  -10.15490 -10.15033 -10.15032  -0.99681  -0.99380
 Alpha  occ. eigenvalues --   -0.85569  -0.82947  -0.79872  -0.75363  -0.74790
 Alpha  occ. eigenvalues --   -0.73093  -0.71714  -0.66781  -0.62301  -0.61027
 Alpha  occ. eigenvalues --   -0.60020  -0.58065  -0.55588  -0.54078  -0.50206
 Alpha  occ. eigenvalues --   -0.49564  -0.46919  -0.45682  -0.44945  -0.43252
 Alpha  occ. eigenvalues --   -0.42815  -0.42466  -0.41502  -0.41500  -0.40622
 Alpha  occ. eigenvalues --   -0.40464  -0.38444  -0.38059  -0.36916  -0.36874
 Alpha  occ. eigenvalues --   -0.36727  -0.34791  -0.34730  -0.33602  -0.33275
 Alpha  occ. eigenvalues --   -0.33100  -0.31171  -0.29636  -0.29614  -0.26712
 Alpha  occ. eigenvalues --   -0.25490  -0.24429  -0.23920  -0.23072  -0.14970
 Alpha virt. eigenvalues --   -0.03213  -0.01340  -0.00361   0.00246   0.00823
 Alpha virt. eigenvalues --    0.01506   0.01745   0.02006   0.03331   0.03718
 Alpha virt. eigenvalues --    0.03835   0.04151   0.04318   0.04829   0.04917

  Beta  occ. eigenvalues --  -19.06701 -19.06439 -10.21621 -10.21519 -10.17159
  Beta  occ. eigenvalues --  -10.17107 -10.16987 -10.16922 -10.16843 -10.16765
  Beta  occ. eigenvalues --  -10.16504 -10.16438 -10.15587 -10.15570 -10.15556
  Beta  occ. eigenvalues --  -10.15368 -10.15024 -10.15023  -0.98619  -0.98246
  Beta  occ. eigenvalues --   -0.85369  -0.82824  -0.79485  -0.75211  -0.74623
  Beta  occ. eigenvalues --   -0.73078  -0.71540  -0.65894  -0.62147  -0.60785
  Beta  occ. eigenvalues --   -0.59995  -0.57916  -0.55417  -0.53988  -0.49987
  Beta  occ. eigenvalues --   -0.49326  -0.46702  -0.45584  -0.44856  -0.43231
  Beta  occ. eigenvalues --   -0.42786  -0.42394  -0.41250  -0.40322  -0.40158
  Beta  occ. eigenvalues --   -0.40126  -0.38158  -0.37394  -0.36885  -0.36777
  Beta  occ. eigenvalues --   -0.34859  -0.34589  -0.33893  -0.33479  -0.33055
  Beta  occ. eigenvalues --   -0.32946  -0.31129  -0.29550  -0.29418  -0.24858
  Beta  occ. eigenvalues --   -0.24349  -0.23580  -0.23369  -0.22513
  Beta virt. eigenvalues --   -0.08306  -0.02485  -0.00351  -0.00240   0.00249
  Beta virt. eigenvalues --    0.00834   0.01535   0.01759   0.02008   0.03335
  Beta virt. eigenvalues --    0.03727   0.03873   0.04162   0.04421   0.04846

 Mulliken charges and spin densities:
               1          2
     1  O   -0.497610   0.216093
     2  C   -0.561797   0.115155
     3  C   -0.245826   0.077680
     4  C    0.497630   0.090014
     5  C    0.720306  -0.022942
     6  C   -0.540929   0.016422
     7  C   -0.361420   0.000853
     8  C   -0.404485   0.000101
     9  C   -0.361101   0.000858
    10  C   -0.540907   0.016405
    11  C   -0.743396   0.117529
    12  O   -0.431655   0.243043
    13  C   -0.172188   0.004416
    14  C    0.100726   0.046366
    15  C   -0.484540   0.021841
    16  C   -0.368941   0.028801
    17  C    0.049796   0.024725
    18  C    0.757392   0.024958
    19  H    0.181463  -0.008265
    20  H    0.174562  -0.002472
    21  H    0.181671  -0.001900
    22  H    0.158972   0.000053
    23  H    0.167905   0.000531
    24  H    0.123679  -0.000092
    25  H    0.111024   0.000060
    26  H    0.172326  -0.000016
    27  H    0.123659  -0.000091
    28  H    0.167930   0.000530
    29  H    0.158950   0.000062
    30  H    0.181714  -0.001907
    31  H    0.164084  -0.002453
    32  H    0.181113  -0.001984
    33  H    0.182142  -0.002165
    34  H    0.157751  -0.002207
 Sum of Mulliken charges =  -1.00000   1.00000

 Dipole moment (field-independent basis, Debye):
    X=             -5.5591    Y=             -3.0481    Z=              0.0049  Tot=              6.3399
 Quadrupole moment (field-independent basis, Debye-Ang):
   XX=           -124.5683   YY=           -140.6686   ZZ=           -114.6806
   XY=            -20.3166   XZ=              0.0047   YZ=             -0.0028

 Normal termination of Gaussian 16 at Sun Jan 21 08:23:54 2024.
