 Gaussian 16, Revision A.03,
 Gaussian 16:  ES64L-G16RevA.03 25-Dec-2016

 ----------------------------------------------------------------
 #P UB3LYP/6-311++G(d,p) SCRF=(PCM,Solvent=n,n-DiMethylFormamide)
 ----------------------------------------------------------------

 ------------------
 Quinone PCM in DMF
 ------------------
 Symbolic Z-matrix:
 Charge =  0 Multiplicity = 1

                         Standard orientation:
 ---------------------------------------------------------------------
 Center     Atomic      Atomic             Coordinates (Angstroms)
 Number     Number       Type             X           Y           Z
 ---------------------------------------------------------------------
      1          6           0        0.316866    1.210343   -0.121001
      2          6           0       -1.148746    1.413078   -0.078336
      3          6           0       -2.037849    0.408330    0.009626
      4          6           0       -1.523207   -0.994804    0.067144
      5          6           0       -0.055282   -1.205451    0.027234
      6          6           0        0.828395   -0.194602   -0.041881
      7          8           0        1.063701    2.169200   -0.241392
      8          8           0       -2.282183   -1.946181    0.145067
      9          6           0        2.311069   -0.533264   -0.041453
     10          6           0        3.295936    0.450865    0.535276
     11          8           0        2.658304   -1.613394   -0.471119
     12          1           0       -1.461672    2.450678   -0.135734
     13          1           0        3.377974    1.320446   -0.120258
     14          1           0        4.262503   -0.040594    0.638485
     15          1           0        2.953398    0.827833    1.502992
     16          6           0       -3.522140    0.597309    0.046753
     17          1           0        0.281103   -2.236009    0.062379
     18          1           0       -3.785124    1.654474    0.001048
     19          1           0       -3.940993    0.162102    0.958336
     20          1           0       -3.996015    0.073238   -0.787877
 ---------------------------------------------------------------------

 SCF Done:  E(UB3LYP) =  -573.589611233     A.U. after   15 cycles

 The electronic state is 1-A.
 Alpha  occ. eigenvalues --  -19.15222 -19.14805 -19.13893 -10.29669 -10.29515
 Alpha  occ. eigenvalues --  -10.29170 -10.22888 -10.22648 -10.22557 -10.20999
 Alpha  occ. eigenvalues --  -10.18192 -10.17874  -1.08281  -1.08013  -1.07412
 Alpha  occ. eigenvalues --   -0.87634  -0.82333  -0.76244  -0.73687  -0.70544
 Alpha  occ. eigenvalues --   -0.63917  -0.62263  -0.56096  -0.53984  -0.50805
 Alpha  occ. eigenvalues --   -0.49192  -0.47658  -0.47280  -0.45701  -0.45565
 Alpha  occ. eigenvalues --   -0.45471  -0.43392  -0.42937  -0.41529  -0.41479
 Alpha  occ. eigenvalues --   -0.40430  -0.39756  -0.38306  -0.32004  -0.30027
 Alpha  occ. eigenvalues --   -0.29919  -0.29498  -0.27605
 Alpha virt. eigenvalues --   -0.14658  -0.07084  -0.01961  -0.00663   0.00355
 Alpha virt. eigenvalues --    0.00666   0.01254   0.02490   0.02995   0.03238
 Alpha virt. eigenvalues --    0.04371   0.04622   0.04988   0.06205   0.06584

  Beta  occ. eigenvalues --  -19.15222 -19.14805 -19.13893 -10.29669 -10.29515
  Beta  occ. eigenvalues --  -10.29170 -10.22888 -10.22648 -10.22557 -10.20999
  Beta  occ. eigenvalues --  -10.18192 -10.17874  -1.08281  -1.08013  -1.07412
  Beta  occ. eigenvalues --   -0.87634  -0.82333  -0.76244  -0.73687  -0.70544
  Beta  occ. eigenvalues --   -0.63917  -0.62263  -0.56096  -0.53984  -0.50805
  Beta  occ. eigenvalues --   -0.49192  -0.47658  -0.47280  -0.45701  -0.45565
  Beta  occ. eigenvalues --   -0.45471  -0.43392  -0.42937  -0.41529  -0.41479
  Beta  occ. eigenvalues --   -0.40430  -0.39756  -0.38306  -0.32004  -0.30027
  Beta  occ. eigenvalues --   -0.29919  -0.29498  -0.27605
  Beta virt. eigenvalues --   -0.14658  -0.07084  -0.01961  -0.00663   0.00355
  Beta virt. eigenvalues --    0.00666   0.01254   0.02490   0.02995   0.03238
  Beta virt. eigenvalues --    0.04371   0.04622   0.04988   0.06205   0.06584

 Mulliken charges and spin densities:
               1          2
     1  C   -1.450155  -0.000000
     2  C   -0.450343   0.000000
     3  C    1.161744  -0.000000
     4  C   -0.866890   0.000000
     5  C    0.145469  -0.000000
     6  C    1.428175   0.000000
     7  O   -0.250526   0.000000
     8  O   -0.250117  -0.000000
     9  C    0.180950  -0.000000
    10  C   -0.606206   0.000000
    11  O   -0.288253   0.000000
    12  H    0.214978   0.000000
    13  H    0.209554   0.000000
    14  H    0.181264   0.000000
    15  H    0.183273  -0.000000
    16  C   -0.353106  -0.000000
    17  H    0.249823  -0.000000
    18  H    0.176089  -0.000000
    19  H    0.191874  -0.000000
    20  H    0.192402  -0.000000
 Sum of Mulliken charges =  -0.00000  -0.00000

 Dipole moment (field-independent basis, Debye):
    X=             -2.1439    Y=              3.0820    Z=              1.5028  Tot=              4.0440
 Quadrupole moment (field-independent basis, Debye-Ang):
   XX=            -69.7256   YY=            -83.1122   ZZ=            -68.4401
   XY=             -4.6769   XZ=              4.8325   YZ=             -0.6610

 Normal termination of Gaussian 16 at Sun Jan 21 07:02:34 2024.
