 Gaussian 16, Revision A.03,
 Gaussian 16:  ES64L-G16RevA.03 25-Dec-2016

 --------------------------------------
 #P UB3LYP/6-311++G(d,p) nosym opt freq
 --------------------------------------

 --------
 Oxidized
 --------
 Symbolic Z-matrix:
 Charge =  0 Multiplicity = 1

 SCF Done:  E(UB3LYP) =  -573.567726702     A.U. after   15 cycles
 SCF Done:  E(UB3LYP) =  -573.567726506     A.U. after   10 cycles
 SCF Done:  E(UB3LYP) =  -573.567733442     A.U. after   12 cycles
 SCF Done:  E(UB3LYP) =  -573.568374693     A.U. after   15 cycles
 SCF Done:  E(UB3LYP) =  -573.569451594     A.U. after   15 cycles
 SCF Done:  E(UB3LYP) =  -573.569832688     A.U. after   17 cycles
 SCF Done:  E(UB3LYP) =  -573.572225547     A.U. after   15 cycles
 SCF Done:  E(UB3LYP) =  -573.572273639     A.U. after   13 cycles
 SCF Done:  E(UB3LYP) =  -573.572387048     A.U. after   14 cycles
 SCF Done:  E(UB3LYP) =  -573.572462681     A.U. after   13 cycles
 SCF Done:  E(UB3LYP) =  -573.578052874     A.U. after   14 cycles
 SCF Done:  E(UB3LYP) =  -573.578364366     A.U. after   15 cycles
 SCF Done:  E(UB3LYP) =  -573.578391811     A.U. after   15 cycles
 SCF Done:  E(UB3LYP) =  -573.578423323     A.U. after   13 cycles
 SCF Done:  E(UB3LYP) =  -573.578422185     A.U. after   13 cycles
 SCF Done:  E(UB3LYP) =  -573.578425070     A.U. after   13 cycles
 SCF Done:  E(UB3LYP) =  -573.578428674     A.U. after   11 cycles
 SCF Done:  E(UB3LYP) =  -573.578429739     A.U. after   11 cycles
 SCF Done:  E(UB3LYP) =  -573.578430036     A.U. after   11 cycles
 Optimization completed.
    -- Stationary point found.
 Normal termination of Gaussian 16 at Sat Jan  6 06:55:13 2024.

 ----------------------------------------------------------------------
 #P Geom=AllCheck Guess=TCheck SCRF=Check GenChk UB3LYP/6-311++G(d,p) F
 req
 ----------------------------------------------------------------------

 Structure from the checkpoint file:  "058.chk"
 --------
 Oxidized
 --------
 Charge =  0 Multiplicity = 1

                          Input orientation:
 ---------------------------------------------------------------------
 Center     Atomic      Atomic             Coordinates (Angstroms)
 Number     Number       Type             X           Y           Z
 ---------------------------------------------------------------------
      1          6           0       -0.347911    0.732090    0.439588
      2          6           0       -1.442513   -0.138745   -0.044597
      3          6           0       -1.240340   -1.298466   -0.694160
      4          6           0        0.167063   -1.738007   -0.945100
      5          6           0        1.269274   -0.871354   -0.460527
      6          6           0        1.059341    0.277841    0.204873
      7          8           0       -0.606825    1.792363    0.987719
      8          8           0        0.411554   -2.779189   -1.531104
      9          6           0        2.270044    1.064368    0.682982
     10          6           0        2.159176    1.914963    1.922048
     11          8           0        3.312041    0.951241    0.071990
     12          1           0       -2.440197    0.238439    0.155874
     13          1           0        1.531012    2.784989    1.719337
     14          1           0        3.158216    2.228390    2.222247
     15          1           0        1.670856    1.366538    2.732408
     16          6           0       -2.336489   -2.185761   -1.195534
     17          1           0        2.276134   -1.217444   -0.667641
     18          1           0       -3.316899   -1.772003   -0.957947
     19          1           0       -2.252066   -3.183962   -0.757021
     20          1           0       -2.256169   -2.319570   -2.277874
 ---------------------------------------------------------------------

 SCF Done:  E(UB3LYP) =  -573.578430036     A.U. after    1 cycles

 Alpha  occ. eigenvalues --  -19.15344 -19.15071 -19.13549 -10.29981 -10.29715
 Alpha  occ. eigenvalues --  -10.28937 -10.23525 -10.23254 -10.22921 -10.21929
 Alpha  occ. eigenvalues --  -10.19560 -10.18300  -1.08405  -1.08182  -1.07059
 Alpha  occ. eigenvalues --   -0.88280  -0.83054  -0.76608  -0.74598  -0.71086
 Alpha  occ. eigenvalues --   -0.64585  -0.62792  -0.56304  -0.54499  -0.50817
 Alpha  occ. eigenvalues --   -0.49365  -0.48069  -0.47777  -0.45963  -0.45828
 Alpha  occ. eigenvalues --   -0.45657  -0.43731  -0.43415  -0.42405  -0.42210
 Alpha  occ. eigenvalues --   -0.40784  -0.40713  -0.38316  -0.32269  -0.30794
 Alpha  occ. eigenvalues --   -0.30003  -0.29618  -0.27436
 Alpha virt. eigenvalues --   -0.15034  -0.07416  -0.02505  -0.01559  -0.00309
 Alpha virt. eigenvalues --    0.00302   0.00986   0.01937   0.02331   0.02841
 Alpha virt. eigenvalues --    0.03779   0.04429   0.04672   0.05834   0.06118

  Beta  occ. eigenvalues --  -19.15344 -19.15071 -19.13549 -10.29981 -10.29715
  Beta  occ. eigenvalues --  -10.28937 -10.23525 -10.23254 -10.22921 -10.21929
  Beta  occ. eigenvalues --  -10.19560 -10.18300  -1.08405  -1.08182  -1.07059
  Beta  occ. eigenvalues --   -0.88280  -0.83054  -0.76608  -0.74598  -0.71086
  Beta  occ. eigenvalues --   -0.64585  -0.62792  -0.56304  -0.54499  -0.50817
  Beta  occ. eigenvalues --   -0.49365  -0.48069  -0.47777  -0.45963  -0.45828
  Beta  occ. eigenvalues --   -0.45657  -0.43731  -0.43415  -0.42405  -0.42210
  Beta  occ. eigenvalues --   -0.40784  -0.40713  -0.38316  -0.32269  -0.30794
  Beta  occ. eigenvalues --   -0.30003  -0.29618  -0.27436
  Beta virt. eigenvalues --   -0.15034  -0.07416  -0.02505  -0.01559  -0.00309
  Beta virt. eigenvalues --    0.00302   0.00986   0.01937   0.02331   0.02841
  Beta virt. eigenvalues --    0.03779   0.04429   0.04672   0.05834   0.06118

 Mulliken charges and spin densities:
               1          2
     1  C   -1.455986   0.000000
     2  C   -0.406152  -0.000000
     3  C    1.134778   0.000000
     4  C   -0.912429   0.000000
     5  C    0.171058  -0.000000
     6  C    1.348536  -0.000000
     7  O   -0.204044  -0.000000
     8  O   -0.192998  -0.000000
     9  C    0.110277   0.000000
    10  C   -0.581168  -0.000000
    11  O   -0.219908   0.000000
    12  H    0.195826  -0.000000
    13  H    0.208331   0.000000
    14  H    0.181264   0.000000
    15  H    0.159905   0.000000
    16  C   -0.328569  -0.000000
    17  H    0.255676  -0.000000
    18  H    0.158991  -0.000000
    19  H    0.187774  -0.000000
    20  H    0.188836  -0.000000
 Sum of Mulliken charges =  -0.00000  -0.00000

 Dipole moment (field-independent basis, Debye):
    X=             -2.9161    Y=             -0.5090    Z=              1.1301  Tot=              3.1686
 Quadrupole moment (field-independent basis, Debye-Ang):
   XX=            -74.5149   YY=            -77.3197   ZZ=            -69.2697
   XY=              4.3291   XZ=              6.7689   YZ=             -3.2741

  Exact polarizability: 116.825   9.456 134.692   3.111  41.855  93.175
 Approx polarizability: 158.209 -14.146 251.777 -15.735  85.698 154.445

                      1                      2                      3
                      A                      A                      A
 Frequencies --     36.8957                54.1062               122.2895
 Red. masses --      4.2499                 5.9194                 2.8876
 Frc consts  --      0.0034                 0.0102                 0.0254
 IR Inten    --      3.8047                 5.0370                 6.7761

                      4                      5                      6
                      A                      A                      A
 Frequencies --    128.4003               135.8418               174.3137
 Red. masses --      1.2726                 1.5717                 2.3654
 Frc consts  --      0.0124                 0.0171                 0.0423
 IR Inten    --      0.5253                 1.7344                 0.1163

                      7                      8                      9
                      A                      A                      A
 Frequencies --    194.0692               276.9420               288.2053
 Red. masses --      3.2821                 4.3573                 3.3447
 Frc consts  --      0.0728                 0.1969                 0.1637
 IR Inten    --      2.8601                 1.9417                 0.5689

                     10                     11                     12
                      A                      A                      A
 Frequencies --    312.7300               376.2018               395.1592
 Red. masses --      6.7739                 3.8569                 4.2577
 Frc consts  --      0.3903                 0.3216                 0.3917
 IR Inten    --      1.0411                 2.3900                 5.0895

                     13                     14                     15
                      A                      A                      A
 Frequencies --    409.4867               483.7486               549.4982
 Red. masses --      5.4974                10.8906                 4.4085
 Frc consts  --      0.5431                 1.5016                 0.7843
 IR Inten    --     14.8975                 4.7997                19.3026

                     16                     17                     18
                      A                      A                      A
 Frequencies --    559.9532               625.0351               660.8142
 Red. masses --      3.4232                 3.9756                 4.2602
 Frc consts  --      0.6324                 0.9151                 1.0961
 IR Inten    --      3.7007                 5.2214                 5.8565

                     19                     20                     21
                      A                      A                      A
 Frequencies --    695.2301               701.5634               782.8087
 Red. masses --      4.4614                 4.3115                 5.1584
 Frc consts  --      1.2705                 1.2503                 1.8624
 IR Inten    --      6.8007                 4.7683                 0.2252

                     22                     23                     24
                      A                      A                      A
 Frequencies --    800.6966               886.9215               950.4339
 Red. masses --      3.5095                 1.3669                 1.7070
 Frc consts  --      1.3257                 0.6335                 0.9085
 IR Inten    --      1.8568                 2.6514                36.0967

                     25                     26                     27
                      A                      A                      A
 Frequencies --    979.5820              1003.9284              1020.3985
 Red. masses --      2.5693                 2.3530                 1.6519
 Frc consts  --      1.4526                 1.3972                 1.0134
 IR Inten    --     12.2193                 2.4667                29.3072

                     28                     29                     30
                      A                      A                      A
 Frequencies --   1045.3394              1057.9750              1139.4016
 Red. masses --      1.8616                 1.5298                 2.8141
 Frc consts  --      1.1986                 1.0089                 2.1525
 IR Inten    --      2.9253                 2.1510                45.7864

                     31                     32                     33
                      A                      A                      A
 Frequencies --   1201.6154              1240.4839              1249.2635
 Red. masses --      2.8387                 1.7558                 3.4503
 Frc consts  --      2.4149                 1.5919                 3.1726
 IR Inten    --      8.4867                33.8466               210.6870

                     34                     35                     36
                      A                      A                      A
 Frequencies --   1352.2729              1369.2734              1392.3680
 Red. masses --      2.4960                 2.8411                 1.2832
 Frc consts  --      2.6892                 3.1385                 1.4657
 IR Inten    --     58.5918                 6.2123                49.1335

                     37                     38                     39
                      A                      A                      A
 Frequencies --   1416.8550              1452.7876              1467.4150
 Red. masses --      1.3044                 1.0523                 1.0429
 Frc consts  --      1.5428                 1.3086                 1.3231
 IR Inten    --     12.4713                22.6036                 9.9016

                     40                     41                     42
                      A                      A                      A
 Frequencies --   1469.3866              1478.9649              1642.2386
 Red. masses --      1.0592                 1.0707                 8.6477
 Frc consts  --      1.3474                 1.3799                13.7411
 IR Inten    --     10.5571                10.9632                 0.9344

                     43                     44                     45
                      A                      A                      A
 Frequencies --   1684.2655              1714.6591              1721.1171
 Red. masses --      8.7810                10.4976                10.9767
 Frc consts  --     14.6763                18.1843                19.1577
 IR Inten    --     34.1930               268.7343               229.7649

                     46                     47                     48
                      A                      A                      A
 Frequencies --   1761.9936              3037.0885              3042.0700
 Red. masses --     10.6305                 1.0359                 1.0364
 Frc consts  --     19.4451                 5.6296                 5.6509
 IR Inten    --    146.0639                 5.9543                 2.0720

                     49                     50                     51
                      A                      A                      A
 Frequencies --   3088.0504              3104.6712              3124.0651
 Red. masses --      1.0987                 1.0964                 1.1032
 Frc consts  --      6.1732                 6.2263                 6.3439
 IR Inten    --      4.7846                 5.3743                10.2601

                     52                     53                     54
                      A                      A                      A
 Frequencies --   3144.8077              3172.4993              3188.5018
 Red. masses --      1.1049                 1.0920                 1.0917
 Frc consts  --      6.4384                 6.4755                 6.5394
 IR Inten    --     11.7388                 3.5377                 1.3885

 - Thermochemistry -
 -------------------
 Temperature   298.150 Kelvin.  Pressure   1.00000 Atm.
 Atom     1 has atomic number  6 and mass  12.00000

 Molecular mass:   164.04734 amu.
 Principal axes and moments of inertia in atomic units:
                           1         2         3
     Eigenvalues --  1035.380762716.361343660.09239
           X            0.63351   0.77334   0.02460
           Y            0.66155  -0.52490  -0.53557
           Z            0.40127  -0.35556   0.84413
 This molecule is an asymmetric top.
 Rotational symmetry number  1.
 Warning -- assumption of classical behavior for rotation
           may cause significant error
 Rotational temperatures (Kelvin)      0.08365     0.03189     0.02366
 Rotational constants (GHZ):           1.74307     0.66440     0.49309
 Zero-point vibrational energy     390967.6 (Joules/Mol)
                                   93.44351 (Kcal/Mol)
 Warning -- explicit consideration of  16 degrees of freedom as
           vibrations may cause significant error
 Vibrational temperatures:     53.08    77.85   175.95   184.74   195.45
          (Kelvin)            250.80   279.22   398.46   414.66   449.95
                              541.27   568.55   589.16   696.01   790.61
                              805.65   899.29   950.76  1000.28  1009.39
                             1126.29  1152.02  1276.08  1367.46  1409.40
                             1444.43  1468.13  1504.01  1522.19  1639.34
                             1728.86  1784.78  1797.41  1945.62  1970.08
                             2003.31  2038.54  2090.24  2111.28  2114.12
                             2127.90  2362.81  2423.28  2467.01  2476.30
                             2535.12  4369.69  4376.86  4443.02  4466.93
                             4494.83  4524.68  4564.52  4587.54

 Zero-point correction=                           0.148912 (Hartree/Particle)
 Thermal correction to Energy=                    0.160562
 Thermal correction to Enthalpy=                  0.161506
 Thermal correction to Gibbs Free Energy=         0.110479
 Sum of electronic and zero-point Energies=           -573.429518
 Sum of electronic and thermal Energies=              -573.417868
 Sum of electronic and thermal Enthalpies=            -573.416924
 Sum of electronic and thermal Free Energies=         -573.467951

                     E (Thermal)             CV                S
                      KCal/Mol        Cal/Mol-Kelvin    Cal/Mol-Kelvin
 Total                  100.754             41.856            107.396
 Electronic               0.000              0.000              0.000
 Translational            0.889              2.981             41.193
 Rotational               0.889              2.981             30.710
 Vibrational             98.977             35.894             35.492
 Vibration     1          0.594              1.982              5.419
 Vibration     2          0.596              1.976              4.661
 Vibration     3          0.610              1.931              3.064
 Vibration     4          0.611              1.925              2.970
 Vibration     5          0.614              1.918              2.862
 Vibration     6          0.627              1.874              2.388
 Vibration     7          0.635              1.848              2.189
 Vibration     8          0.678              1.716              1.552
 Vibration     9          0.685              1.696              1.484
 Vibration    10          0.701              1.649              1.348
 Vibration    11          0.747              1.521              1.054
 Vibration    12          0.762              1.481              0.981
 Vibration    13          0.774              1.450              0.928
 Vibration    14          0.840              1.286              0.700
 Vibration    15          0.905              1.141              0.545
 Vibration    16          0.916              1.118              0.524

 Optimization completed.
    -- Stationary point found.
 Normal termination of Gaussian 16 at Sat Jan  6 07:13:21 2024.
