 Gaussian 16, Revision A.03,
 Gaussian 16:  ES64L-G16RevA.03 25-Dec-2016

 ----------------------------------------------------------------------
 #P UB3LYP/6-311++G(d,p) nosym opt freq SCRF=(PCM,Solvent=n,n-DiMethylF
 ormamide)
 ----------------------------------------------------------------------

 -------
 Reduced
 -------
 Symbolic Z-matrix:
 Charge = -2 Multiplicity = 1

 SCF Done:  E(UB3LYP) =  -839.724604170     A.U. after   14 cycles
 SCF Done:  E(UB3LYP) =  -839.724933779     A.U. after   12 cycles
 SCF Done:  E(UB3LYP) =  -839.724836752     A.U. after   12 cycles
 SCF Done:  E(UB3LYP) =  -839.724922133     A.U. after   11 cycles
 SCF Done:  E(UB3LYP) =  -839.724993533     A.U. after   11 cycles
 SCF Done:  E(UB3LYP) =  -839.725001621     A.U. after   10 cycles
 SCF Done:  E(UB3LYP) =  -839.725002455     A.U. after   10 cycles
 SCF Done:  E(UB3LYP) =  -839.725004022     A.U. after    9 cycles
 SCF Done:  E(UB3LYP) =  -839.725004273     A.U. after    8 cycles
 Optimization completed.
    -- Stationary point found.
 Normal termination of Gaussian 16 at Sat Feb 10 22:48:27 2024.

 ----------------------------------------------------------------------
 #P Geom=AllCheck Guess=TCheck SCRF=Check GenChk UB3LYP/6-311++G(d,p) F
 req
 ----------------------------------------------------------------------

 Structure from the checkpoint file:  "185-an.chk"
 -------
 Reduced
 -------
 Charge = -2 Multiplicity = 1

                          Input orientation:
 ---------------------------------------------------------------------
 Center     Atomic      Atomic             Coordinates (Angstroms)
 Number     Number       Type             X           Y           Z
 ---------------------------------------------------------------------
      1          6           0        4.881586   -2.868862   -0.352947
      2          6           0        5.601029   -1.979334   -1.115014
      3          6           0        4.999922   -0.759990   -1.538980
      4          6           0        3.534271   -2.612421    0.035177
      5          6           0        2.922499   -1.373152   -0.397185
      6          6           0        3.701955   -0.477115   -1.185313
      7          6           0        2.816201   -3.556659    0.827454
      8          6           0        1.471201   -3.231068    1.176713
      9          6           0        0.860543   -1.995274    0.744460
     10          6           0        1.577458   -1.049922   -0.048633
     11          6           0        0.693476   -4.144681    1.977178
     12          6           0       -0.603876   -3.844824    2.321472
     13          6           0       -0.502562   -1.724529    1.130458
     14          6           0       -1.206430   -2.625540    1.894697
     15          8           0        3.367946   -4.695297    1.228814
     16          8           0        1.006201    0.082152   -0.441332
     17          8           0        1.274504   -5.313683    2.385642
     18          1           0        5.329307   -3.799847   -0.024341
     19          1           0        6.625771   -2.202453   -1.395111
     20          1           0        5.568795   -0.057707   -2.140237
     21          1           0        3.234446    0.448074   -1.502511
     22          1           0        2.227142   -5.257437    1.981503
     23          8           0       -1.077737   -0.553260    0.720320
     24          1           0       -2.230884   -2.398749    2.172331
     25          1           0       -1.168565   -4.548312    2.924887
     26          1           0       -0.321909   -0.097099    0.177062
 ---------------------------------------------------------------------

 SCF Done:  E(UB3LYP) =  -839.725004273     A.U. after    1 cycles

 Alpha  occ. eigenvalues --  -19.09495 -19.09479 -19.04310 -19.04306 -10.19897
 Alpha  occ. eigenvalues --  -10.19893 -10.18723 -10.18721 -10.15443 -10.15404
 Alpha  occ. eigenvalues --  -10.15317 -10.15313 -10.14828 -10.14790 -10.14708
 Alpha  occ. eigenvalues --  -10.14671 -10.13930 -10.13886  -1.01298  -1.01135
 Alpha  occ. eigenvalues --   -0.94645  -0.94367  -0.83533  -0.81482  -0.76133
 Alpha  occ. eigenvalues --   -0.73224  -0.71431  -0.70339  -0.64943  -0.61233
 Alpha  occ. eigenvalues --   -0.60622  -0.56133  -0.54755  -0.51665  -0.49816
 Alpha  occ. eigenvalues --   -0.48736  -0.47343  -0.44541  -0.44088  -0.43251
 Alpha  occ. eigenvalues --   -0.40612  -0.40402  -0.39394  -0.38674  -0.38491
 Alpha  occ. eigenvalues --   -0.37371  -0.37092  -0.36579  -0.36476  -0.34374
 Alpha  occ. eigenvalues --   -0.32829  -0.32624  -0.32322  -0.31775  -0.30781
 Alpha  occ. eigenvalues --   -0.27484  -0.23742  -0.23580  -0.22623  -0.22216
 Alpha  occ. eigenvalues --   -0.21565  -0.18623  -0.11864
 Alpha virt. eigenvalues --   -0.02599  -0.00294   0.00181   0.00968   0.01468
 Alpha virt. eigenvalues --    0.02349   0.02757   0.03160   0.04687   0.04736
 Alpha virt. eigenvalues --    0.04972   0.05237   0.06727   0.06831   0.07076

  Beta  occ. eigenvalues --  -19.09495 -19.09479 -19.04310 -19.04306 -10.19897
  Beta  occ. eigenvalues --  -10.19893 -10.18723 -10.18721 -10.15443 -10.15404
  Beta  occ. eigenvalues --  -10.15317 -10.15313 -10.14828 -10.14790 -10.14708
  Beta  occ. eigenvalues --  -10.14671 -10.13930 -10.13886  -1.01298  -1.01135
  Beta  occ. eigenvalues --   -0.94645  -0.94367  -0.83533  -0.81482  -0.76133
  Beta  occ. eigenvalues --   -0.73224  -0.71431  -0.70339  -0.64943  -0.61233
  Beta  occ. eigenvalues --   -0.60622  -0.56133  -0.54755  -0.51665  -0.49816
  Beta  occ. eigenvalues --   -0.48736  -0.47343  -0.44541  -0.44088  -0.43251
  Beta  occ. eigenvalues --   -0.40612  -0.40402  -0.39394  -0.38674  -0.38491
  Beta  occ. eigenvalues --   -0.37371  -0.37092  -0.36579  -0.36476  -0.34374
  Beta  occ. eigenvalues --   -0.32829  -0.32624  -0.32322  -0.31775  -0.30781
  Beta  occ. eigenvalues --   -0.27484  -0.23742  -0.23580  -0.22623  -0.22216
  Beta  occ. eigenvalues --   -0.21565  -0.18623  -0.11864
  Beta virt. eigenvalues --   -0.02599  -0.00294   0.00181   0.00968   0.01468
  Beta virt. eigenvalues --    0.02349   0.02757   0.03160   0.04687   0.04736
  Beta virt. eigenvalues --    0.04972   0.05237   0.06727   0.06831   0.07076

 Mulliken charges and spin densities:
               1          2
     1  C   -0.107888   0.000000
     2  C   -0.497414   0.000000
     3  C   -0.497783  -0.000000
     4  C    0.084793   0.000000
     5  C    0.084601  -0.000000
     6  C   -0.108036  -0.000000
     7  C   -0.177086  -0.000000
     8  C    0.542281   0.000000
     9  C    0.541465  -0.000000
    10  C   -0.177353   0.000000
    11  C   -0.345074  -0.000000
    12  C   -0.192385   0.000000
    13  C   -0.344197  -0.000000
    14  C   -0.192334   0.000000
    15  O   -0.671573   0.000000
    16  O   -0.671607  -0.000000
    17  O   -0.491517   0.000000
    18  H    0.155209  -0.000000
    19  H    0.161959  -0.000000
    20  H    0.161938   0.000000
    21  H    0.155537  -0.000000
    22  H    0.376794  -0.000000
    23  O   -0.492107   0.000000
    24  H    0.162266   0.000000
    25  H    0.162252  -0.000000
    26  H    0.377258  -0.000000
 Sum of Mulliken charges =  -2.00000  -0.00000

 Dipole moment (field-independent basis, Debye):
    X=            -15.0486    Y=             23.9466    Z=             -7.0921  Tot=             29.1582
 Quadrupole moment (field-independent basis, Debye-Ang):
   XX=           -167.2143   YY=           -218.9591   ZZ=           -131.5645
   XY=             52.9518   XZ=             -8.6114   YZ=             35.2518

  Exact polarizability: 462.712   8.720 324.570-127.433 -98.895 251.815
 Approx polarizability: 520.623  -6.614 392.998-135.044-120.716 283.809

                      1                      2                      3
                      A                      A                      A
 Frequencies --     68.1459                86.0806               136.8085
 Red. masses --      6.5213                 7.5318                 8.2014
 Frc consts  --      0.0178                 0.0329                 0.0904
 IR Inten    --      7.8370                 0.0079                 0.0313

                      4                      5                      6
                      A                      A                      A
 Frequencies --    144.2105               174.9727               214.0586
 Red. masses --      5.0186                 8.6923                 5.3904
 Frc consts  --      0.0615                 0.1568                 0.1455
 IR Inten    --      0.0511                 3.0269                 4.2791

                      7                      8                      9
                      A                      A                      A
 Frequencies --    252.0662               335.8436               347.7743
 Red. masses --      5.6574                 6.6521                 5.9383
 Frc consts  --      0.2118                 0.4421                 0.4232
 IR Inten    --      0.0558                34.4110                21.6257

                     10                     11                     12
                      A                      A                      A
 Frequencies --    374.1046               390.4384               395.2119
 Red. masses --      7.0630                 7.6156                12.2703
 Frc consts  --      0.5824                 0.6840                 1.1292
 IR Inten    --      0.0066                 0.0359                 0.1339

                     13                     14                     15
                      A                      A                      A
 Frequencies --    423.2193               441.8633               443.7212
 Red. masses --      7.2595                 3.2796                 9.5330
 Frc consts  --      0.7661                 0.3773                 1.1059
 IR Inten    --    181.9929                 4.7191                 9.6466

                     16                     17                     18
                      A                      A                      A
 Frequencies --    479.1160               488.6459               520.0509
 Red. masses --     11.0765                 4.1320                 6.3569
 Frc consts  --      1.4981                 0.5813                 1.0129
 IR Inten    --      0.0091                 0.0043                46.3204

                     19                     20                     21
                      A                      A                      A
 Frequencies --    537.8348               594.6544               597.3315
 Red. masses --      9.6653                 3.2707                 5.2566
 Frc consts  --      1.6473                 0.6814                 1.1051
 IR Inten    --     23.0843                57.5737                13.2474

                     22                     23                     24
                      A                      A                      A
 Frequencies --    620.4910               654.7021               699.1583
 Red. masses --      4.3192                 6.5914                 6.6351
 Frc consts  --      0.9798                 1.6646                 1.9110
 IR Inten    --      0.0065                12.0147               104.6866

                     25                     26                     27
                      A                      A                      A
 Frequencies --    710.6502               720.8295               754.2133
 Red. masses --      2.4944                 6.2887                 7.4613
 Frc consts  --      0.7422                 1.9252                 2.5007
 IR Inten    --     17.9622                 0.0366                63.6526

                     28                     29                     30
                      A                      A                      A
 Frequencies --    770.8674               778.9243               794.4871
 Red. masses --      1.7027                 5.2420                 1.8283
 Frc consts  --      0.5961                 1.8739                 0.6799
 IR Inten    --    135.1484                 0.0645                62.5083

                     31                     32                     33
                      A                      A                      A
 Frequencies --    847.3554               851.9482               860.8075
 Red. masses --      1.4033                 1.5043                 7.4308
 Frc consts  --      0.5936                 0.6433                 3.2441
 IR Inten    --      0.0536                 0.0732               130.4334

                     34                     35                     36
                      A                      A                      A
 Frequencies --    900.9324               968.1549               974.6433
 Red. masses --      8.5181                 6.5676                 1.3520
 Frc consts  --      4.0736                 3.6270                 0.7567
 IR Inten    --    236.8544               357.9798                 5.9399

                     37                     38                     39
                      A                      A                      A
 Frequencies --    982.9641              1010.5223              1015.1182
 Red. masses --      1.2511                 1.0491                 2.3812
 Frc consts  --      0.7122                 0.6312                 1.4457
 IR Inten    --      0.2346               118.6332                67.6561

                     40                     41                     42
                      A                      A                      A
 Frequencies --   1020.0014              1045.5404              1085.9990
 Red. masses --      1.0486                 2.1731                 3.7049
 Frc consts  --      0.6428                 1.3996                 2.5744
 IR Inten    --    132.8910                33.1260               405.2072

                     43                     44                     45
                      A                      A                      A
 Frequencies --   1118.5300              1153.8801              1158.8749
 Red. masses --      1.8901                 1.4077                 1.5502
 Frc consts  --      1.3933                 1.1043                 1.2266
 IR Inten    --    306.9965                14.8004               230.6836

                     46                     47                     48
                      A                      A                      A
 Frequencies --   1224.5353              1236.6270              1244.3054
 Red. masses --      5.7755                 2.7662                 1.8782
 Frc consts  --      5.1025                 2.4924                 1.7134
 IR Inten    --    217.5454                46.1908                 1.5237

                     49                     50                     51
                      A                      A                      A
 Frequencies --   1249.0040              1283.1727              1313.3345
 Red. masses --      4.4546                 6.5427                 2.9984
 Frc consts  --      4.0943                 6.3471                 3.0472
 IR Inten    --    172.8355               127.9557              1272.6087

                     52                     53                     54
                      A                      A                      A
 Frequencies --   1332.8976              1366.0032              1380.5075
 Red. masses --      2.6684                 8.2392                 3.0512
 Frc consts  --      2.7932                 9.0581                 3.4261
 IR Inten    --    165.0451               247.0763              1126.4362

                     55                     56                     57
                      A                      A                      A
 Frequencies --   1429.3213              1451.6252              1477.5418
 Red. masses --      8.0085                 3.1546                 2.5936
 Frc consts  --      9.6396                 3.9165                 3.3360
 IR Inten    --      0.7623               422.8651                 1.1137

                     58                     59                     60
                      A                      A                      A
 Frequencies --   1514.5988              1540.5307              1558.6222
 Red. masses --      3.8509                 6.0974                 2.5934
 Frc consts  --      5.2048                 8.5258                 3.7119
 IR Inten    --    235.1423                86.8784               221.8401

                     61                     62                     63
                      A                      A                      A
 Frequencies --   1587.8642              1615.0128              1650.1325
 Red. masses --      3.5236                 5.2902                 1.6964
 Frc consts  --      5.2344                 8.1297                 2.7215
 IR Inten    --    256.1981                13.7879               406.6551

                     64                     65                     66
                      A                      A                      A
 Frequencies --   1672.0892              2425.1572              2443.9140
 Red. masses --      2.1150                 1.0878                 1.0855
 Frc consts  --      3.4840                 3.7695                 3.8197
 IR Inten    --     44.6002                74.4285              2959.8907

                     67                     68                     69
                      A                      A                      A
 Frequencies --   3144.4579              3150.0866              3159.1768
 Red. masses --      1.0850                 1.0865                 1.0892
 Frc consts  --      6.3209                 6.3522                 6.4048
 IR Inten    --     22.6122                59.3317                27.8480

                     70                     71                     72
                      A                      A                      A
 Frequencies --   3166.5088              3177.5040              3181.6523
 Red. masses --      1.0930                 1.0917                 1.0940
 Frc consts  --      6.4569                 6.4944                 6.5248
 IR Inten    --     54.3699                36.2777                67.7975

 - Thermochemistry -
 -------------------
 Temperature   298.150 Kelvin.  Pressure   1.00000 Atm.
 Atom     1 has atomic number  6 and mass  12.00000

 Molecular mass:   240.04226 amu.
 Principal axes and moments of inertia in atomic units:
                           1         2         3
     Eigenvalues --  2606.987834591.444307198.42939
           X            0.84610  -0.42272   0.32469
           Y            0.25435   0.85551   0.45101
           Z           -0.46843  -0.29901   0.83137
 This molecule is an asymmetric top.
 Rotational symmetry number  1.
 Warning -- assumption of classical behavior for rotation
           may cause significant error
 Rotational temperatures (Kelvin)      0.03322     0.01886     0.01203
 Rotational constants (GHZ):           0.69227     0.39307     0.25071
 Zero-point vibrational energy     478039.3 (Joules/Mol)
                                  114.25414 (Kcal/Mol)
 Warning -- explicit consideration of  22 degrees of freedom as
           vibrations may cause significant error
 Vibrational temperatures:     98.05   123.85   196.84   207.49   251.75
          (Kelvin)            307.98   362.67   483.20   500.37   538.25
                              561.75   568.62   608.92   635.74   638.42
                              689.34   703.05   748.24   773.82   855.57
                              859.43   892.75   941.97  1005.93  1022.47
                             1037.11  1085.14  1109.11  1120.70  1143.09
                             1219.16  1225.76  1238.51  1296.24  1392.96
                             1402.29  1414.27  1453.92  1460.53  1467.55
                             1504.30  1562.51  1609.32  1660.18  1667.36
                             1761.83  1779.23  1790.28  1797.04  1846.20
                             1889.60  1917.74  1965.37  1986.24  2056.47
                             2088.56  2125.85  2179.17  2216.48  2242.51
                             2284.58  2323.64  2374.17  2405.76  3489.26
                             3516.25  4524.17  4532.27  4545.35  4555.90
                             4571.72  4577.69

 Zero-point correction=                           0.182076 (Hartree/Particle)
 Thermal correction to Energy=                    0.194845
 Thermal correction to Enthalpy=                  0.195789
 Thermal correction to Gibbs Free Energy=         0.143181
 Sum of electronic and zero-point Energies=           -839.542929
 Sum of electronic and thermal Energies=              -839.530159
 Sum of electronic and thermal Enthalpies=            -839.529215
 Sum of electronic and thermal Free Energies=         -839.581823

                     E (Thermal)             CV                S
                      KCal/Mol        Cal/Mol-Kelvin    Cal/Mol-Kelvin
 Total                  122.267             53.054            110.724
 Electronic               0.000              0.000              0.000
 Translational            0.889              2.981             42.328
 Rotational               0.889              2.981             32.821
 Vibrational            120.490             47.093             35.574
 Vibration     1          0.598              1.969              4.206
 Vibration     2          0.601              1.959              3.747
 Vibration     3          0.614              1.917              2.848
 Vibration     4          0.616              1.909              2.747
 Vibration     5          0.627              1.873              2.381
 Vibration     6          0.644              1.820              2.009
 Vibration     7          0.664              1.759              1.716
 Vibration     8          0.717              1.604              1.232
 Vibration     9          0.725              1.580              1.176
 Vibration    10          0.745              1.525              1.063
 Vibration    11          0.758              1.491              0.998
 Vibration    12          0.762              1.480              0.980
 Vibration    13          0.785              1.420              0.881
 Vibration    14          0.802              1.379              0.821
 Vibration    15          0.803              1.375              0.815
 Vibration    16          0.836              1.296              0.712
 Vibration    17          0.845              1.275              0.687
 Vibration    18          0.875              1.206              0.610
 Vibration    19          0.893              1.166              0.570
 Vibration    20          0.952              1.043              0.459
 Vibration    21          0.955              1.037              0.454
 Vibration    22          0.981              0.989              0.416

 Optimization completed.
    -- Stationary point found.
 Normal termination of Gaussian 16 at Sat Feb 10 23:56:28 2024.
