 Q-Chem 5.4, Q-Chem, Inc., Pleasanton, CA (2021)
 Q-Chem 5.4.0 for Intel X86 EM64T Linux

User input:
--------------------------------------------------------------
$molecule
0 1
C                  5.8759420000     -5.5595980000      0.8757520000
C                  6.3867960000     -5.5414630000     -0.4179570000
C                  5.9619310000     -4.5688480000     -1.3269290000
C                  4.9358730000     -4.6029220000      1.2663520000
C                  4.5101710000     -3.6273920000      0.3555860000
C                  5.0265400000     -3.6136790000     -0.9425260000
C                  4.3859570000     -4.6225250000      2.6498820000
C                  3.3750860000     -3.5915020000      3.0405640000
C                  2.9776110000     -2.6310670000      2.1680390000
C                  3.5107990000     -2.6021060000      0.7680550000
O                  4.7486000000     -5.4627850000      3.4597240000
O                  3.1301950000     -1.7496830000     -0.0206540000
H                  7.1161450000     -6.2840090000     -0.7212210000
C                  1.9675370000     -1.5582610000      2.4895510000
H                  6.3622110000     -4.5578690000     -2.3343820000
C                  2.8751480000     -3.7231180000      4.4517110000
C                  0.5200780000     -1.9791080000      2.1569020000
C                 -0.4971310000     -0.8694770000      2.4421700000
C                 -1.9410350000     -1.2689840000      2.1172150000
C                 -2.9539770000     -0.1564740000      2.4030710000
H                  6.1908270000     -6.3040380000      1.5965330000
H                  4.6840290000     -2.8507930000     -1.6306020000
H                  2.2128740000     -0.6709470000      1.9023010000
H                  2.0346400000     -1.2806160000      3.5437930000
H                  2.5050800000     -4.7367650000      4.6245680000
H                  2.0825800000     -3.0150220000      4.6814830000
H                  3.6964110000     -3.5794930000      5.1603500000
H                  0.2594020000     -2.8749340000      2.7331230000
H                  0.4667770000     -2.2607990000      1.1000910000
H                 -0.2292790000      0.0226240000      1.8621750000
H                 -0.4323060000     -0.5775470000      3.4987810000
H                 -2.2074610000     -2.1626170000      2.6947420000
H                 -2.0049260000     -1.5587470000      1.0615630000
H                 -2.9384150000      0.1316200000      3.4590300000
H                 -3.9724060000     -0.4721700000      2.1604820000
H                 -2.7346160000      0.7390520000      1.8132440000
$end
$rem
MAX_SCF_CYCLES=200
BASIS  =  6-311++G(d,p)
GUI  =  2
JOB_TYPE  =  SP
METHOD  =  B3LYP
SOLVENT_METHOD = PCM
$end
$pcm
theory = CPCM
$end
$solvent
dielectric 37.219
opticaldielectric 1.43
$end

--------------------------------------------------------------

             Standard Nuclear Orientation (Angstroms)
    I     Atom           X                Y                Z
 ----------------------------------------------------------------
    1      C       5.8759420000    -5.5595980000     0.8757520000
    2      C       6.3867960000    -5.5414630000    -0.4179570000
    3      C       5.9619310000    -4.5688480000    -1.3269290000
    4      C       4.9358730000    -4.6029220000     1.2663520000
    5      C       4.5101710000    -3.6273920000     0.3555860000
    6      C       5.0265400000    -3.6136790000    -0.9425260000
    7      C       4.3859570000    -4.6225250000     2.6498820000
    8      C       3.3750860000    -3.5915020000     3.0405640000
    9      C       2.9776110000    -2.6310670000     2.1680390000
   10      C       3.5107990000    -2.6021060000     0.7680550000
   11      O       4.7486000000    -5.4627850000     3.4597240000
   12      O       3.1301950000    -1.7496830000    -0.0206540000
   13      H       7.1161450000    -6.2840090000    -0.7212210000
   14      C       1.9675370000    -1.5582610000     2.4895510000
   15      H       6.3622110000    -4.5578690000    -2.3343820000
   16      C       2.8751480000    -3.7231180000     4.4517110000
   17      C       0.5200780000    -1.9791080000     2.1569020000
   18      C      -0.4971310000    -0.8694770000     2.4421700000
   19      C      -1.9410350000    -1.2689840000     2.1172150000
   20      C      -2.9539770000    -0.1564740000     2.4030710000
   21      H       6.1908270000    -6.3040380000     1.5965330000
   22      H       4.6840290000    -2.8507930000    -1.6306020000
   23      H       2.2128740000    -0.6709470000     1.9023010000
   24      H       2.0346400000    -1.2806160000     3.5437930000
   25      H       2.5050800000    -4.7367650000     4.6245680000
   26      H       2.0825800000    -3.0150220000     4.6814830000
   27      H       3.6964110000    -3.5794930000     5.1603500000
   28      H       0.2594020000    -2.8749340000     2.7331230000
   29      H       0.4667770000    -2.2607990000     1.1000910000
   30      H      -0.2292790000     0.0226240000     1.8621750000
   31      H      -0.4323060000    -0.5775470000     3.4987810000
   32      H      -2.2074610000    -2.1626170000     2.6947420000
   33      H      -2.0049260000    -1.5587470000     1.0615630000
   34      H      -2.9384150000     0.1316200000     3.4590300000
   35      H      -3.9724060000    -0.4721700000     2.1604820000
   36      H      -2.7346160000     0.7390520000     1.8132440000
 ----------------------------------------------------------------

    8    -771.2270784995      8.21e-06  Convergence criterion met
 Total energy in the final basis set =     -771.2270784995

                    Orbital Energies (a.u.)
 --------------------------------------------------------------

 Alpha MOs
 -- Occupied --
-19.1324 -19.1324 -10.2806 -10.2799 -10.2116 -10.2089 -10.2047 -10.2042
-10.1955 -10.1952 -10.1949 -10.1946 -10.1730 -10.1703 -10.1663 -10.1601
-10.1595 -10.1528  -1.0669  -1.0650  -0.8882  -0.8505  -0.8031  -0.7842
 -0.7757  -0.7595  -0.7224  -0.6873  -0.6733  -0.6352  -0.6189  -0.5951
 -0.5806  -0.5759  -0.5491  -0.5171  -0.4991  -0.4787  -0.4688  -0.4603
 -0.4594  -0.4545  -0.4491  -0.4350  -0.4286  -0.4256  -0.4134  -0.4094
 -0.4044  -0.4005  -0.3927  -0.3815  -0.3756  -0.3680  -0.3658  -0.3596
 -0.3363  -0.3302  -0.3269  -0.3211  -0.2893  -0.2879  -0.2768  -0.2713
 -0.2685

          Ground-State Mulliken Net Atomic Charges

     Atom                 Charge (a.u.)
  ----------------------------------------
      1 C                     0.226464
      2 C                    -0.478836
      3 C                    -0.393591
      4 C                     0.138050
      5 C                    -0.126324
      6 C                     0.191196
      7 C                    -0.402933
      8 C                     0.822303
      9 C                     1.075798
     10 C                    -0.997054
     11 O                    -0.290517
     12 O                    -0.276911
     13 H                     0.219381
     14 C                    -0.517248
     15 H                     0.219474
     16 C                    -0.451056
     17 C                    -0.566767
     18 C                    -0.198233
     19 C                    -0.196685
     20 C                    -0.678283
     21 H                     0.199087
     22 H                     0.199099
     23 H                     0.219239
     24 H                     0.219808
     25 H                     0.192212
     26 H                     0.152543
     27 H                     0.209752
     28 H                     0.147304
     29 H                     0.181387
     30 H                     0.120420
     31 H                     0.125738
     32 H                     0.138145
     33 H                     0.135676
     34 H                     0.145910
     35 H                     0.149041
     36 H                     0.146400
  ----------------------------------------
  Sum of atomic charges =    -0.000007

                    Cartesian Multipole Moments
 -----------------------------------------------------------------
    Charge (ESU x 10^10)
                -0.0000
    Dipole Moment (Debye)
         X       0.0844      Y      -0.2721      Z      -0.4635
       Tot       0.5441
    Quadrupole Moments (Debye-Ang)
        XX    -100.9058     XY      -3.7149     YY    -112.2881
        XZ     -14.9868     YZ      14.3010     ZZ    -105.6726

 Total job time:  67.15s(wall), 427.85s(cpu)
        *  Thank you very much for using Q-Chem.  Have a nice day.  *
