 Q-Chem 5.4, Q-Chem, Inc., Pleasanton, CA (2021)
 Q-Chem 5.4.0 for Intel X86 EM64T Linux

User input:
--------------------------------------------------------------
$molecule
0 1
O                  3.4356750000      2.6729760000      0.8131640000
C                  3.0695800000      1.5253250000      0.5903380000
C                  4.0705390000      0.4228530000      0.4298270000
C                  5.4314620000      0.7204770000      0.5415370000
C                  6.3826540000     -0.2828990000      0.3946780000
C                  5.9826100000     -1.5964160000      0.1340010000
C                  4.6316910000     -1.9022870000      0.0212360000
C                  3.6681050000     -0.8989220000      0.1680000000
C                  2.2247920000     -1.2571290000      0.0448030000
O                  1.8748590000     -2.4050510000     -0.1818870000
C                  1.2279510000     -0.1556400000      0.2133890000
C                 -0.1205660000     -0.4678470000      0.0999480000
C                 -1.1189370000      0.5220950000      0.2412310000
C                 -0.6835680000      1.8495480000      0.4994580000
C                  0.6601900000      2.1516850000      0.6046780000
C                  1.6459300000      1.1653950000      0.4667940000
N                 -2.4527850000      0.2125960000      0.1347570000
C                 -2.9162330000     -1.1805000000      0.1632520000
C                 -4.3281600000     -1.2645400000      0.7478860000
C                 -5.3527100000     -0.4606150000     -0.0785450000
C                 -4.6783170000      0.7285500000     -0.7916170000
C                 -3.4693200000      1.2599420000     -0.0176450000
H                  5.7180350000      1.7452510000      0.7431410000
H                  7.4368920000     -0.0450570000      0.4825590000
H                  6.7257530000     -2.3775450000      0.0198110000
H                  4.2977930000     -2.9127270000     -0.1799590000
H                 -0.3712080000     -1.4941560000     -0.1267150000
H                 -1.4070130000      2.6399570000      0.6452080000
H                  0.9769110000      3.1669830000      0.8114550000
H                 -2.8891400000     -1.6269290000     -0.8417320000
H                 -2.2358120000     -1.7601160000      0.7890060000
H                 -4.2930590000     -0.8852250000      1.7741740000
H                 -4.6214930000     -2.3154390000      0.8149760000
H                 -5.8301530000     -1.1046290000     -0.8226220000
H                 -6.1507430000     -0.1052650000      0.5797820000
H                 -4.3370850000      0.4251850000     -1.7864800000
H                 -5.3891800000      1.5452980000     -0.9425130000
H                 -3.7846590000      1.6517550000      0.9613190000
H                 -3.0312830000      2.0930620000     -0.5708050000
$end

$rem
BASIS  =  6-311++G(d,p)
GUI  =  2
JOB_TYPE  =  SP
METHOD  =  B3LYP
SCF_CONVERGENCE  = 8
SOLVENT_METHOD = sm12
$end

$smx
solvent dimethylformamide
charges CM5
$end

--------------------------------------------------------------

             Standard Nuclear Orientation (Angstroms)
    I     Atom           X                Y                Z
 ----------------------------------------------------------------
    1      O       3.4356750000     2.6729760000     0.8131640000
    2      C       3.0695800000     1.5253250000     0.5903380000
    3      C       4.0705390000     0.4228530000     0.4298270000
    4      C       5.4314620000     0.7204770000     0.5415370000
    5      C       6.3826540000    -0.2828990000     0.3946780000
    6      C       5.9826100000    -1.5964160000     0.1340010000
    7      C       4.6316910000    -1.9022870000     0.0212360000
    8      C       3.6681050000    -0.8989220000     0.1680000000
    9      C       2.2247920000    -1.2571290000     0.0448030000
   10      O       1.8748590000    -2.4050510000    -0.1818870000
   11      C       1.2279510000    -0.1556400000     0.2133890000
   12      C      -0.1205660000    -0.4678470000     0.0999480000
   13      C      -1.1189370000     0.5220950000     0.2412310000
   14      C      -0.6835680000     1.8495480000     0.4994580000
   15      C       0.6601900000     2.1516850000     0.6046780000
   16      C       1.6459300000     1.1653950000     0.4667940000
   17      N      -2.4527850000     0.2125960000     0.1347570000
   18      C      -2.9162330000    -1.1805000000     0.1632520000
   19      C      -4.3281600000    -1.2645400000     0.7478860000
   20      C      -5.3527100000    -0.4606150000    -0.0785450000
   21      C      -4.6783170000     0.7285500000    -0.7916170000
   22      C      -3.4693200000     1.2599420000    -0.0176450000
   23      H       5.7180350000     1.7452510000     0.7431410000
   24      H       7.4368920000    -0.0450570000     0.4825590000
   25      H       6.7257530000    -2.3775450000     0.0198110000
   26      H       4.2977930000    -2.9127270000    -0.1799590000
   27      H      -0.3712080000    -1.4941560000    -0.1267150000
   28      H      -1.4070130000     2.6399570000     0.6452080000
   29      H       0.9769110000     3.1669830000     0.8114550000
   30      H      -2.8891400000    -1.6269290000    -0.8417320000
   31      H      -2.2358120000    -1.7601160000     0.7890060000
   32      H      -4.2930590000    -0.8852250000     1.7741740000
   33      H      -4.6214930000    -2.3154390000     0.8149760000
   34      H      -5.8301530000    -1.1046290000    -0.8226220000
   35      H      -6.1507430000    -0.1052650000     0.5797820000
   36      H      -4.3370850000     0.4251850000    -1.7864800000
   37      H      -5.3891800000     1.5452980000    -0.9425130000
   38      H      -3.7846590000     1.6517550000     0.9613190000
   39      H      -3.0312830000     2.0930620000    -0.5708050000
 ----------------------------------------------------------------

   15    -939.7222892972      4.73e-09  Convergence criterion met
 Total energy in the final basis set =     -939.7519293612

                    Orbital Energies (a.u.)
 --------------------------------------------------------------

 Alpha MOs
 -- Occupied --
-19.1261 -19.1145 -14.3462 -10.2778 -10.2686 -10.2378 -10.2067 -10.2059
-10.2050 -10.2044 -10.2030 -10.1961 -10.1954 -10.1948 -10.1935 -10.1914
-10.1889 -10.1869 -10.1865 -10.1694 -10.1691 -10.1650  -1.0603  -1.0485
 -0.9662  -0.8871  -0.8724  -0.8166  -0.7950  -0.7763  -0.7746  -0.7622
 -0.7541  -0.6892  -0.6764  -0.6567  -0.6429  -0.6234  -0.6076  -0.5814
 -0.5647  -0.5566  -0.5369  -0.5173  -0.5088  -0.4956  -0.4856  -0.4816
 -0.4558  -0.4523  -0.4491  -0.4484  -0.4469  -0.4445  -0.4350  -0.4341
 -0.4206  -0.4161  -0.4107  -0.4008  -0.3929  -0.3844  -0.3777  -0.3723
 -0.3697  -0.3667  -0.3592  -0.3369  -0.3282  -0.3199  -0.2986  -0.2813
 -0.2803  -0.2764  -0.2726  -0.2663  -0.2121

          Ground-State Mulliken Net Atomic Charges

     Atom                 Charge (a.u.)
  ----------------------------------------
      1 O                    -0.284947
      2 C                    -2.100481
      3 C                    -0.961475
      4 C                     0.033002
      5 C                     0.544482
      6 C                     0.446724
      7 C                     0.173825
      8 C                     0.070872
      9 C                    -1.541990
     10 O                    -0.223393
     11 C                     0.441083
     12 C                     0.333638
     13 C                     0.419871
     14 C                     0.597014
     15 C                     0.339718
     16 C                    -1.696444
     17 N                     0.347926
     18 C                    -0.059920
     19 C                    -0.073549
     20 C                    -0.533505
     21 C                    -0.025636
     22 C                     0.099510
     23 H                     0.178617
     24 H                     0.326009
     25 H                     0.334506
     26 H                     0.194324
     27 H                     0.160289
     28 H                     0.342340
     29 H                     0.221471
     30 H                     0.187279
     31 H                     0.211801
     32 H                     0.157299
     33 H                     0.222486
     34 H                     0.164378
     35 H                     0.170627
     36 H                     0.146028
     37 H                     0.235240
     38 H                     0.189697
     39 H                     0.211282
  ----------------------------------------
  Sum of atomic charges =     0.000000

                    Cartesian Multipole Moments
 -----------------------------------------------------------------
    Charge (ESU x 10^10)
                 0.0000
    Dipole Moment (Debye)
         X      -5.6501      Y      -1.0809      Z      -0.4103
       Tot       5.7672
    Quadrupole Moments (Debye-Ang)
        XX     -94.1236     XY     -12.6411     YY    -137.3693
        XZ      -1.5981     YZ      -2.6594     ZZ    -132.6235

 Total job time:  1425.98s(wall), 11181.27s(cpu)
        *  Thank you very much for using Q-Chem.  Have a nice day.  *
