 Q-Chem 5.4, Q-Chem, Inc., Pleasanton, CA (2021)
 Q-Chem 5.4.0 for Intel X86 EM64T Linux

User input:
--------------------------------------------------------------
$molecule
0 1
O                 -2.6878420000     -0.1734870000      0.4461790000
C                 -1.3912890000      0.0072970000      0.2430250000
C                 -0.7850470000      1.2154900000      0.2846030000
C                  0.6346730000      1.2833430000      0.0451210000
O                  1.3082130000      2.3087770000      0.0518020000
C                  1.3913120000     -0.0072660000     -0.2430780000
C                  0.7850660000     -1.2155010000     -0.2842470000
C                 -0.6346450000     -1.2833020000     -0.0447570000
O                 -1.3083820000     -2.3086160000     -0.0513620000
O                  2.6878160000      0.1733690000     -0.4468650000
H                 -2.8408890000     -1.1382240000      0.3559620000
H                 -1.3253680000      2.1304040000      0.4894950000
H                  1.3253470000     -2.1304490000     -0.4890340000
H                  2.8410350000      1.1381650000     -0.3568440000
$end

$rem
BASIS  =  6-311++G(d,p)
GUI  =  2
JOB_TYPE  =  SP
METHOD  =  B3LYP
SCF_CONVERGENCE  = 8
SOLVENT_METHOD = sm12
$end

$smx
solvent dimethylformamide
charges CM5
$end

--------------------------------------------------------------

             Standard Nuclear Orientation (Angstroms)
    I     Atom           X                Y                Z
 ----------------------------------------------------------------
    1      O      -2.6878420000    -0.1734870000     0.4461790000
    2      C      -1.3912890000     0.0072970000     0.2430250000
    3      C      -0.7850470000     1.2154900000     0.2846030000
    4      C       0.6346730000     1.2833430000     0.0451210000
    5      O       1.3082130000     2.3087770000     0.0518020000
    6      C       1.3913120000    -0.0072660000    -0.2430780000
    7      C       0.7850660000    -1.2155010000    -0.2842470000
    8      C      -0.6346450000    -1.2833020000    -0.0447570000
    9      O      -1.3083820000    -2.3086160000    -0.0513620000
   10      O       2.6878160000     0.1733690000    -0.4468650000
   11      H      -2.8408890000    -1.1382240000     0.3559620000
   12      H      -1.3253680000     2.1304040000     0.4894950000
   13      H       1.3253470000    -2.1304490000    -0.4890340000
   14      H       2.8410350000     1.1381650000    -0.3568440000
 ----------------------------------------------------------------

   14    -532.0850222132      8.49e-09  Convergence criterion met
 Total energy in the final basis set =     -532.1018736120

                    Orbital Energies (a.u.)
 --------------------------------------------------------------

 Alpha MOs
 -- Occupied --
-19.1941 -19.1941 -19.1505 -19.1505 -10.2967 -10.2967 -10.2867 -10.2867
-10.2011 -10.2011  -1.1249  -1.1228  -1.0720  -1.0714  -0.8667  -0.7931
 -0.7141  -0.6541  -0.6454  -0.6042  -0.5510  -0.5390  -0.4880  -0.4868
 -0.4852  -0.4655  -0.4579  -0.4535  -0.4175  -0.4148  -0.4013  -0.3919
 -0.3127  -0.3016  -0.2973  -0.2670

          Ground-State Mulliken Net Atomic Charges

     Atom                 Charge (a.u.)
  ----------------------------------------
      1 O                    -0.201384
      2 C                    -0.202384
      3 C                     0.489413
      4 C                    -0.313127
      5 O                    -0.360301
      6 C                    -0.201916
      7 C                     0.489445
      8 C                    -0.313339
      9 O                    -0.360330
     10 O                    -0.201336
     11 H                     0.289746
     12 H                     0.297841
     13 H                     0.297887
     14 H                     0.289785
  ----------------------------------------
  Sum of atomic charges =     0.000000

                    Cartesian Multipole Moments
 -----------------------------------------------------------------
    Charge (ESU x 10^10)
                 0.0000
    Dipole Moment (Debye)
         X       0.0013      Y      -0.0000      Z      -0.0007
       Tot       0.0015
    Quadrupole Moments (Debye-Ang)
        XX     -57.1260     XY      -2.3491     YY     -65.0616
        XZ      -0.1906     YZ      -0.6117     ZZ     -56.6375

 Total job time:  97.99s(wall), 738.41s(cpu)
        *  Thank you very much for using Q-Chem.  Have a nice day.  *
