 Gaussian 16, Revision A.03,
 Gaussian 16:  ES64L-G16RevA.03 25-Dec-2016

 ----------------------------------------------------------------------
 #P UB3LYP/6-311++G(d,p) nosym opt freq SCRF=(PCM,Solvent=n,n-DiMethylF
 ormamide)
 ----------------------------------------------------------------------

 --------
 Oxidized
 --------
 Symbolic Z-matrix:
 Charge = -1 Multiplicity = 1

 SCF Done:  E(UB3LYP) =  -1462.94082095     A.U. after   16 cycles
 SCF Done:  E(UB3LYP) =  -1462.94203620     A.U. after   14 cycles
 SCF Done:  E(UB3LYP) =  -1462.94280156     A.U. after   13 cycles
 SCF Done:  E(UB3LYP) =  -1462.94276859     A.U. after   12 cycles
 SCF Done:  E(UB3LYP) =  -1462.94286774     A.U. after   12 cycles
 SCF Done:  E(UB3LYP) =  -1462.94288549     A.U. after   11 cycles
 SCF Done:  E(UB3LYP) =  -1462.94288682     A.U. after   10 cycles
 SCF Done:  E(UB3LYP) =  -1462.94288736     A.U. after   10 cycles
 SCF Done:  E(UB3LYP) =  -1462.94288756     A.U. after   10 cycles
 Optimization completed.
    -- Stationary point found.
 Normal termination of Gaussian 16 at Sat Feb 10 23:43:09 2024.

 ----------------------------------------------------------------------
 #P Geom=AllCheck Guess=TCheck SCRF=Check GenChk UB3LYP/6-311++G(d,p) F
 req
 ----------------------------------------------------------------------

 Structure from the checkpoint file:  "194.chk"
 --------
 Oxidized
 --------
 Charge = -1 Multiplicity = 1

                          Input orientation:
 ---------------------------------------------------------------------
 Center     Atomic      Atomic             Coordinates (Angstroms)
 Number     Number       Type             X           Y           Z
 ---------------------------------------------------------------------
      1          6           0        5.051433   -2.908818   -0.365785
      2          6           0        5.822384   -2.047799   -1.138578
      3          6           0        5.286727   -0.837105   -1.586943
      4          6           0        3.736186   -2.568504   -0.032859
      5          6           0        3.197069   -1.348402   -0.484106
      6          6           0        3.980775   -0.489125   -1.261116
      7          6           0        2.928462   -3.497693    0.789535
      8          6           0        1.555218   -3.123142    1.125704
      9          6           0        1.012550   -1.885226    0.668526
     10          6           0        1.809056   -0.966510   -0.143831
     11          6           0        0.773168   -3.997546    1.904883
     12          6           0       -0.561805   -3.628012    2.227378
     13          6           0       -0.306621   -1.547096    1.004333
     14          6           0       -1.076655   -2.433964    1.785201
     15          8           0        3.418839   -4.573916    1.181143
     16          8           0        1.334590    0.113247   -0.542282
     17          8           0        1.248128   -5.162878    2.349625
     18          1           0        5.454675   -3.848981   -0.012632
     19          1           0        6.840576   -2.317071   -1.393157
     20          1           0        5.889470   -0.167913   -2.189327
     21          1           0        2.183708   -5.230523    2.019910
     22          8           0       -0.889270   -0.402608    0.614436
     23          1           0       -2.093805   -2.162976    2.037090
     24          1           0       -0.214354    0.089795    0.081663
     25          1           0        3.553608    0.445328   -1.601393
     26         16           0       -1.637436   -4.720906    3.223658
     27          8           0       -1.763350   -5.974325    2.435674
     28          8           0       -0.940116   -4.892479    4.524125
     29          8           0       -2.916790   -3.972462    3.340093
 ---------------------------------------------------------------------

 SCF Done:  E(UB3LYP) =  -1462.94288756     A.U. after    2 cycles

 Alpha  occ. eigenvalues --  -89.05262 -19.16548 -19.16423 -19.14095 -19.14046
 Alpha  occ. eigenvalues --  -19.09388 -19.09386 -19.09384 -10.29092 -10.29040
 Alpha  occ. eigenvalues --  -10.27635 -10.27018 -10.22431 -10.21390 -10.21383
 Alpha  occ. eigenvalues --  -10.21326 -10.21311 -10.20723 -10.20161 -10.20138
 Alpha  occ. eigenvalues --  -10.20101 -10.20072  -8.11107  -6.07365  -6.07354
 Alpha  occ. eigenvalues --   -6.07327  -1.11475  -1.09578  -1.09312  -1.06196
 Alpha  occ. eigenvalues --   -1.06061  -0.97631  -0.97614  -0.89954  -0.88364
 Alpha  occ. eigenvalues --   -0.82558  -0.78475  -0.78230  -0.77014  -0.71007
 Alpha  occ. eigenvalues --   -0.68244  -0.66732  -0.63930  -0.61703  -0.60185
 Alpha  occ. eigenvalues --   -0.57427  -0.56348  -0.54628  -0.53985  -0.50835
 Alpha  occ. eigenvalues --   -0.50576  -0.49308  -0.47456  -0.47073  -0.46781
 Alpha  occ. eigenvalues --   -0.46130  -0.45571  -0.45549  -0.45404  -0.44934
 Alpha  occ. eigenvalues --   -0.43851  -0.43209  -0.43018  -0.40600  -0.40546
 Alpha  occ. eigenvalues --   -0.38932  -0.38723  -0.38102  -0.37195  -0.34029
 Alpha  occ. eigenvalues --   -0.33736  -0.33615  -0.31569  -0.30746  -0.30040
 Alpha  occ. eigenvalues --   -0.29833  -0.28946  -0.28262  -0.28131  -0.27744
 Alpha  occ. eigenvalues --   -0.25780  -0.23680
 Alpha virt. eigenvalues --   -0.12742  -0.07513  -0.04557  -0.01966  -0.00501
 Alpha virt. eigenvalues --    0.00549   0.00991   0.01783   0.02427   0.02558
 Alpha virt. eigenvalues --    0.03546   0.03667   0.03901   0.04132   0.04495

  Beta  occ. eigenvalues --  -89.05262 -19.16548 -19.16423 -19.14095 -19.14046
  Beta  occ. eigenvalues --  -19.09388 -19.09386 -19.09384 -10.29092 -10.29040
  Beta  occ. eigenvalues --  -10.27635 -10.27018 -10.22431 -10.21390 -10.21383
  Beta  occ. eigenvalues --  -10.21326 -10.21311 -10.20723 -10.20161 -10.20138
  Beta  occ. eigenvalues --  -10.20101 -10.20072  -8.11107  -6.07365  -6.07354
  Beta  occ. eigenvalues --   -6.07327  -1.11475  -1.09578  -1.09312  -1.06196
  Beta  occ. eigenvalues --   -1.06061  -0.97631  -0.97614  -0.89954  -0.88364
  Beta  occ. eigenvalues --   -0.82558  -0.78475  -0.78230  -0.77014  -0.71007
  Beta  occ. eigenvalues --   -0.68244  -0.66732  -0.63930  -0.61703  -0.60185
  Beta  occ. eigenvalues --   -0.57427  -0.56348  -0.54628  -0.53985  -0.50835
  Beta  occ. eigenvalues --   -0.50576  -0.49308  -0.47456  -0.47073  -0.46781
  Beta  occ. eigenvalues --   -0.46130  -0.45571  -0.45549  -0.45404  -0.44934
  Beta  occ. eigenvalues --   -0.43851  -0.43209  -0.43018  -0.40600  -0.40546
  Beta  occ. eigenvalues --   -0.38932  -0.38723  -0.38102  -0.37195  -0.34029
  Beta  occ. eigenvalues --   -0.33736  -0.33615  -0.31569  -0.30746  -0.30040
  Beta  occ. eigenvalues --   -0.29833  -0.28946  -0.28262  -0.28131  -0.27744
  Beta  occ. eigenvalues --   -0.25780  -0.23680
  Beta virt. eigenvalues --   -0.12742  -0.07513  -0.04557  -0.01966  -0.00501
  Beta virt. eigenvalues --    0.00549   0.00991   0.01783   0.02427   0.02558
  Beta virt. eigenvalues --    0.03546   0.03667   0.03901   0.04132   0.04495

 Mulliken charges and spin densities:
               1          2
     1  C    0.049039   0.000000
     2  C   -0.397870  -0.000000
     3  C   -0.461447  -0.000000
     4  C    0.227266  -0.000000
     5  C    0.102364  -0.000000
     6  C    0.079833   0.000000
     7  C   -0.380054  -0.000000
     8  C    0.385480   0.000000
     9  C    0.785841  -0.000000
    10  C   -0.319328   0.000000
    11  C   -0.526194  -0.000000
    12  C   -0.157533   0.000000
    13  C   -0.413656   0.000000
    14  C   -0.121674   0.000000
    15  O   -0.332236  -0.000000
    16  O   -0.334059   0.000000
    17  O   -0.305866   0.000000
    18  H    0.189447   0.000000
    19  H    0.212997  -0.000000
    20  H    0.209922  -0.000000
    21  H    0.389396  -0.000000
    22  O   -0.326024   0.000000
    23  H    0.263443   0.000000
    24  H    0.358233  -0.000000
    25  H    0.194047  -0.000000
    26  S    0.707507  -0.000000
    27  O   -0.374390   0.000000
    28  O   -0.371455   0.000000
    29  O   -0.333028   0.000000
 Sum of Mulliken charges =  -1.00000  -0.00000

 Dipole moment (field-independent basis, Debye):
    X=             12.9200    Y=             25.6715    Z=            -19.0544  Tot=             34.4822
 Quadrupole moment (field-independent basis, Debye-Ang):
   XX=           -132.6937   YY=           -281.5704   ZZ=           -202.3321
   XY=            -44.7140   XZ=             20.1317   YZ=             92.5925

  Exact polarizability: 419.271  11.538 319.595-110.576 -94.371 248.007
 Approx polarizability: 466.591 -19.811 397.424-100.269-107.742 281.903

                      1                      2                      3
                      A                      A                      A
 Frequencies --     30.0001                59.5815                77.8386
 Red. masses --      8.4696                12.1057                10.4450
 Frc consts  --      0.0045                 0.0253                 0.0373
 IR Inten    --      0.1648                 1.4526                 5.0958

                      4                      5                      6
                      A                      A                      A
 Frequencies --     92.2756               120.3022               132.7360
 Red. masses --      6.4400                10.4345                 7.1220
 Frc consts  --      0.0323                 0.0890                 0.0739
 IR Inten    --      0.6376                 5.0019                 0.0101

                      7                      8                      9
                      A                      A                      A
 Frequencies --    155.8261               182.4469               208.5112
 Red. masses --      8.4674                10.8087                 8.8171
 Frc consts  --      0.1211                 0.2120                 0.2259
 IR Inten    --      2.0695                 0.1991                 6.0288

                     10                     11                     12
                      A                      A                      A
 Frequencies --    227.7845               233.8896               289.9861
 Red. masses --      8.5300                 7.1918                 6.6417
 Frc consts  --      0.2608                 0.2318                 0.3291
 IR Inten    --      1.0717                 1.6802                 0.0398

                     13                     14                     15
                      A                      A                      A
 Frequencies --    292.1186               326.9893               351.1466
 Red. masses --     12.8944                 6.5784                 6.4189
 Frc consts  --      0.6483                 0.4144                 0.4663
 IR Inten    --      1.5620                 2.4195                11.5934

                     16                     17                     18
                      A                      A                      A
 Frequencies --    404.5291               407.3567               425.7791
 Red. masses --      9.6033                11.6040                 3.3957
 Frc consts  --      0.9259                 1.1345                 0.3627
 IR Inten    --      0.3108                 3.8000                 2.0582

                     19                     20                     21
                      A                      A                      A
 Frequencies --    433.5941               447.5748               449.0307
 Red. masses --      8.9209                12.7014                 6.5592
 Frc consts  --      0.9882                 1.4991                 0.7792
 IR Inten    --     51.8943                 0.0255                 0.9243

                     22                     23                     24
                      A                      A                      A
 Frequencies --    487.2099               488.6385               489.8572
 Red. masses --     10.0664                12.6724                 6.3834
 Frc consts  --      1.4078                 1.7827                 0.9025
 IR Inten    --     85.2200                47.1283                11.2006

                     25                     26                     27
                      A                      A                      A
 Frequencies --    529.4287               530.0669               552.8029
 Red. masses --      7.3590                 8.5016                 8.9468
 Frc consts  --      1.2153                 1.4074                 1.6109
 IR Inten    --     61.4352                55.1617                 7.2034

                     28                     29                     30
                      A                      A                      A
 Frequencies --    598.5952               639.6164               659.5617
 Red. masses --     13.7822                 5.4230                 6.6260
 Frc consts  --      2.9096                 1.3072                 1.6983
 IR Inten    --    328.4869                 3.9602                 8.4180

                     31                     32                     33
                      A                      A                      A
 Frequencies --    681.6882               685.1638               714.0094
 Red. masses --      5.7233                 7.0410                 5.6740
 Frc consts  --      1.5670                 1.9475                 1.7043
 IR Inten    --      0.0107               107.4416                 0.1356

                     34                     35                     36
                      A                      A                      A
 Frequencies --    733.6688               741.1745               776.3207
 Red. masses --      6.6862                 2.2715                 1.3025
 Frc consts  --      2.1205                 0.7352                 0.4625
 IR Inten    --     11.8298                41.2829               146.4256

                     37                     38                     39
                      A                      A                      A
 Frequencies --    785.2102               795.1165               797.5955
 Red. masses --      2.8824                 7.7763                 1.1304
 Frc consts  --      1.0471                 2.8966                 0.4237
 IR Inten    --     79.0454                 6.8178               160.5268

                     40                     41                     42
                      A                      A                      A
 Frequencies --    816.3773               907.8001               912.7433
 Red. masses --      2.1827                 8.1207                 1.3846
 Frc consts  --      0.8571                 3.9430                 0.6797
 IR Inten    --      3.9641                72.4597                 0.3303

                     43                     44                     45
                      A                      A                      A
 Frequencies --    920.2187               923.6185               973.3202
 Red. masses --      1.3900                 8.8802                11.8966
 Frc consts  --      0.6935                 4.4633                 6.6402
 IR Inten    --     17.8473                44.7537               432.9809

                     46                     47                     48
                      A                      A                      A
 Frequencies --   1002.8846              1013.7672              1024.4032
 Red. masses --      1.3867                 6.9296                 1.3339
 Frc consts  --      0.8217                 4.1960                 0.8248
 IR Inten    --      1.8040               329.3445                 0.0025

                     49                     50                     51
                      A                      A                      A
 Frequencies --   1051.3841              1110.2170              1114.4688
 Red. masses --      2.4206                 3.2686                 2.2484
 Frc consts  --      1.5765                 2.3737                 1.6453
 IR Inten    --      7.9627                70.6679                 3.7587

                     52                     53                     54
                      A                      A                      A
 Frequencies --   1134.3216              1136.7412              1177.2437
 Red. masses --     15.0148                20.1662                 1.5814
 Frc consts  --     11.3826                15.3531                 1.2913
 IR Inten    --    432.0830               559.4565                97.8452

                     55                     56                     57
                      A                      A                      A
 Frequencies --   1181.8707              1227.5915              1243.1624
 Red. masses --      1.2656                 2.0692                 3.5627
 Frc consts  --      1.0416                 1.8372                 3.2440
 IR Inten    --    105.1667                92.6237               895.1126

                     58                     59                     60
                      A                      A                      A
 Frequencies --   1278.8383              1296.8481              1336.9595
 Red. masses --      2.4156                 3.5454                 2.7297
 Frc consts  --      2.3276                 3.5131                 2.8748
 IR Inten    --    154.6982               163.1429               253.3349

                     61                     62                     63
                      A                      A                      A
 Frequencies --   1347.7545              1367.9186              1390.1647
 Red. masses --      4.5071                 5.3626                 2.8682
 Frc consts  --      4.8236                 5.9121                 3.2658
 IR Inten    --    462.3847               462.3858               275.0112

                     64                     65                     66
                      A                      A                      A
 Frequencies --   1415.9118              1436.4981              1485.0245
 Red. masses --      9.5383                 3.4837                 2.5681
 Frc consts  --     11.2667                 4.2355                 3.3368
 IR Inten    --    218.0993               551.6190                 1.5793

                     67                     68                     69
                      A                      A                      A
 Frequencies --   1496.0807              1504.6130              1587.9387
 Red. masses --      3.4752                 2.6827                 3.3026
 Frc consts  --      4.5829                 3.5782                 4.9066
 IR Inten    --    108.4729                 8.3914               232.2856

                     70                     71                     72
                      A                      A                      A
 Frequencies --   1606.1196              1607.3445              1615.4840
 Red. masses --      6.0778                 6.7124                 3.0739
 Frc consts  --      9.2375                10.2176                 4.7266
 IR Inten    --    358.4663               380.5446                50.3401

                     73                     74                     75
                      A                      A                      A
 Frequencies --   1649.3055              1664.6327              3180.8014
 Red. masses --      8.1487                 8.3531                 1.0877
 Frc consts  --     13.0599                13.6376                 6.4838
 IR Inten    --    333.5163                21.6187                 4.0451

                     76                     77                     78
                      A                      A                      A
 Frequencies --   3192.9806              3193.7721              3207.0413
 Red. masses --      1.0857                 1.0763                 1.0926
 Frc consts  --      6.5216                 6.4683                 6.6212
 IR Inten    --    188.0143               234.7411                 1.8906

                     79                     80                     81
                      A                      A                      A
 Frequencies --   3207.9768              3209.7293              3269.6592
 Red. masses --      1.0907                 1.0950                 1.0685
 Frc consts  --      6.6134                 6.6468                 6.7301
 IR Inten    --     21.5244                19.2768               335.2072

 - Thermochemistry -
 -------------------
 Temperature   298.150 Kelvin.  Pressure   1.00000 Atm.
 Atom     1 has atomic number  6 and mass  12.00000

 Molecular mass:   318.99125 amu.
 Principal axes and moments of inertia in atomic units:
                           1         2         3
     Eigenvalues --  3015.90244********************
           X            0.75651  -0.56716   0.32560
           Y            0.40417   0.79689   0.44902
           Z           -0.51413  -0.20809   0.83208
 This molecule is an asymmetric top.
 Rotational symmetry number  1.
 Warning -- assumption of classical behavior for rotation
           may cause significant error
 Rotational temperatures (Kelvin)      0.02872     0.00783     0.00631
 Rotational constants (GHZ):           0.59841     0.16316     0.13152
 Zero-point vibrational energy     499181.1 (Joules/Mol)
                                  119.30713 (Kcal/Mol)
 Warning -- explicit consideration of  28 degrees of freedom as
           vibrations may cause significant error
 Vibrational temperatures:     43.16    85.72   111.99   132.76   173.09
          (Kelvin)            190.98   224.20   262.50   300.00   327.73
                              336.52   417.23   420.29   470.46   505.22
                              582.03   586.10   612.60   623.85   643.96
                              646.06   700.99   703.04   704.80   761.73
                              762.65   795.36   861.24   920.27   948.96
                              980.80   985.80  1027.30  1055.59  1066.38
                             1116.95  1129.74  1144.00  1147.56  1174.58
                             1306.12  1313.23  1323.99  1328.88  1400.39
                             1442.93  1458.58  1473.89  1512.71  1597.35
                             1603.47  1632.04  1635.52  1693.79  1700.45
                             1766.23  1788.63  1839.96  1865.88  1923.59
                             1939.12  1968.13  2000.14  2037.18  2066.80
                             2136.62  2152.53  2164.80  2284.69  2310.85
                             2312.61  2324.32  2372.98  2395.04  4576.46
                             4593.99  4595.13  4614.22  4615.56  4618.08
                             4704.31

 Zero-point correction=                           0.190128 (Hartree/Particle)
 Thermal correction to Energy=                    0.206966
 Thermal correction to Enthalpy=                  0.207911
 Thermal correction to Gibbs Free Energy=         0.145235
 Sum of electronic and zero-point Energies=          -1462.752760
 Sum of electronic and thermal Energies=             -1462.735921
 Sum of electronic and thermal Enthalpies=           -1462.734977
 Sum of electronic and thermal Free Energies=        -1462.797652

                     E (Thermal)             CV                S
                      KCal/Mol        Cal/Mol-Kelvin    Cal/Mol-Kelvin
 Total                  129.873             66.550            131.912
 Electronic               0.000              0.000              0.000
 Translational            0.889              2.981             43.176
 Rotational               0.889              2.981             34.481
 Vibrational            128.096             60.589             54.255
 Vibration     1          0.594              1.984              5.829
 Vibration     2          0.597              1.974              4.471
 Vibration     3          0.599              1.964              3.945
 Vibration     4          0.602              1.955              3.611
 Vibration     5          0.609              1.932              3.096
 Vibration     6          0.613              1.921              2.906
 Vibration     7          0.620              1.896              2.600
 Vibration     8          0.630              1.864              2.303
 Vibration     9          0.642              1.828              2.057
 Vibration    10          0.651              1.799              1.896
 Vibration    11          0.654              1.789              1.849
 Vibration    12          0.686              1.692              1.474
 Vibration    13          0.687              1.688              1.462
 Vibration    14          0.711              1.622              1.275
 Vibration    15          0.728              1.573              1.161
 Vibration    16          0.770              1.460              0.946
 Vibration    17          0.772              1.454              0.936
 Vibration    18          0.788              1.414              0.873
 Vibration    19          0.794              1.397              0.847
 Vibration    20          0.807              1.366              0.803
 Vibration    21          0.808              1.363              0.799
 Vibration    22          0.843              1.278              0.691
 Vibration    23          0.845              1.275              0.687
 Vibration    24          0.846              1.273              0.684
 Vibration    25          0.884              1.185              0.588
 Vibration    26          0.885              1.183              0.587
 Vibration    27          0.908              1.134              0.538
 Vibration    28          0.957              1.035              0.452

 Optimization completed.
    -- Stationary point found.
 Normal termination of Gaussian 16 at Sun Feb 11 00:38:18 2024.
