 Q-Chem 5.4, Q-Chem, Inc., Pleasanton, CA (2021)
 Q-Chem 5.4.0 for Intel X86 EM64T Linux

User input:
--------------------------------------------------------------
$molecule
-2 1
O                 -5.6016130000      1.1624810000     -1.3802980000
S                 -5.4059070000      0.6310390000     -0.0069720000
O                 -5.3483190000      1.6711030000      1.0479670000
O                 -6.2736030000     -0.5318370000      0.3184300000
C                 -3.7144660000     -0.0784650000     -0.0491230000
C                 -3.5536910000     -1.4474210000     -0.2762210000
C                 -2.2802080000     -1.9962330000     -0.3559380000
C                 -1.1466070000     -1.1898360000     -0.2105320000
C                  0.2010270000     -1.8115510000     -0.2999750000
O                  0.3348130000     -3.0152550000     -0.5060510000
C                  1.3807180000     -0.9230370000     -0.1282450000
C                  2.6645070000     -1.4742500000     -0.1950360000
C                  3.7877060000     -0.6724190000     -0.0374140000
C                  3.6444600000      0.6983690000      0.1902590000
C                  2.3717360000      1.2604850000      0.2627630000
C                  1.2351420000      0.4603430000      0.1036800000
C                 -0.1208530000      1.0865930000      0.1891450000
O                 -0.2537950000      2.2839360000      0.3894500000
C                 -1.3080150000      0.1918580000      0.0208880000
C                 -2.5943480000      0.7362400000      0.1011780000
S                  5.1443610000      1.7448390000      0.3364650000
O                  5.3086360000      2.3207710000     -1.0229630000
O                  4.8057700000      2.7381130000      1.3837230000
O                  6.2143810000      0.7852950000      0.7178270000
H                 -4.4408170000     -2.0620100000     -0.3714100000
H                 -2.1365040000     -3.0563710000     -0.5280470000
H                  2.7564070000     -2.5398450000     -0.3688750000
H                  4.7878060000     -1.0876350000     -0.0714370000
H                  2.2526030000      2.3193710000      0.4540830000
H                 -2.7113260000      1.7953280000      0.2926770000
$end

$rem
BASIS  =  6-311++G(d,p)
GUI  =  2
JOB_TYPE  =  SP
METHOD  =  B3LYP
SCF_CONVERGENCE  = 8
SOLVENT_METHOD = sm12
$end

$smx
solvent dimethylformamide
charges CM5
$end

--------------------------------------------------------------

             Standard Nuclear Orientation (Angstroms)
    I     Atom           X                Y                Z
 ----------------------------------------------------------------
    1      O      -5.6016130000     1.1624810000    -1.3802980000
    2      S      -5.4059070000     0.6310390000    -0.0069720000
    3      O      -5.3483190000     1.6711030000     1.0479670000
    4      O      -6.2736030000    -0.5318370000     0.3184300000
    5      C      -3.7144660000    -0.0784650000    -0.0491230000
    6      C      -3.5536910000    -1.4474210000    -0.2762210000
    7      C      -2.2802080000    -1.9962330000    -0.3559380000
    8      C      -1.1466070000    -1.1898360000    -0.2105320000
    9      C       0.2010270000    -1.8115510000    -0.2999750000
   10      O       0.3348130000    -3.0152550000    -0.5060510000
   11      C       1.3807180000    -0.9230370000    -0.1282450000
   12      C       2.6645070000    -1.4742500000    -0.1950360000
   13      C       3.7877060000    -0.6724190000    -0.0374140000
   14      C       3.6444600000     0.6983690000     0.1902590000
   15      C       2.3717360000     1.2604850000     0.2627630000
   16      C       1.2351420000     0.4603430000     0.1036800000
   17      C      -0.1208530000     1.0865930000     0.1891450000
   18      O      -0.2537950000     2.2839360000     0.3894500000
   19      C      -1.3080150000     0.1918580000     0.0208880000
   20      C      -2.5943480000     0.7362400000     0.1011780000
   21      S       5.1443610000     1.7448390000     0.3364650000
   22      O       5.3086360000     2.3207710000    -1.0229630000
   23      O       4.8057700000     2.7381130000     1.3837230000
   24      O       6.2143810000     0.7852950000     0.7178270000
   25      H      -4.4408170000    -2.0620100000    -0.3714100000
   26      H      -2.1365040000    -3.0563710000    -0.5280470000
   27      H       2.7564070000    -2.5398450000    -0.3688750000
   28      H       4.7878060000    -1.0876350000    -0.0714370000
   29      H       2.2526030000     2.3193710000     0.4540830000
   30      H      -2.7113260000     1.7953280000     0.2926770000
 ----------------------------------------------------------------

   15   -1935.6696467309      7.72e-09  Convergence criterion met
 Total energy in the final basis set =    -1935.9008872259

                    Orbital Energies (a.u.)
 --------------------------------------------------------------

 Alpha MOs
 -- Occupied --
-89.0362 -89.0361 -19.1326 -19.1323 -19.0796 -19.0795 -19.0795 -19.0794
-19.0790 -19.0789 -10.2860 -10.2848 -10.2150 -10.2150 -10.2148 -10.2148
-10.2129 -10.2129 -10.2040 -10.2040 -10.2034 -10.2034 -10.2027 -10.2026
 -8.0950  -8.0949  -6.0575  -6.0574  -6.0574  -6.0573  -6.0572  -6.0571
 -1.0984  -1.0983  -1.0662  -1.0629  -0.9632  -0.9632  -0.9612  -0.9611
 -0.8995  -0.8877  -0.8193  -0.7854  -0.7836  -0.7782  -0.6986  -0.6809
 -0.6589  -0.6275  -0.6048  -0.5912  -0.5887  -0.5472  -0.5389  -0.5084
 -0.4978  -0.4938  -0.4877  -0.4598  -0.4596  -0.4593  -0.4570  -0.4555
 -0.4516  -0.4407  -0.4398  -0.4353  -0.4343  -0.4202  -0.4200  -0.4068
 -0.3987  -0.3792  -0.3750  -0.3726  -0.3220  -0.3218  -0.3213  -0.3211
 -0.3081  -0.3071  -0.2917  -0.2876  -0.2869  -0.2843  -0.2840  -0.2829
 -0.2827  -0.2727  -0.2672  -0.2622  -0.2426  -0.2425

          Ground-State Mulliken Net Atomic Charges

     Atom                 Charge (a.u.)
  ----------------------------------------
      1 O                    -0.336464
      2 S                     0.136781
      3 O                    -0.381530
      4 O                    -0.334388
      5 C                    -2.683530
      6 C                    -0.042480
      7 C                     1.203262
      8 C                     2.090916
      9 C                     0.713689
     10 O                    -0.116681
     11 C                     2.089827
     12 C                     1.209697
     13 C                    -0.040001
     14 C                    -2.678801
     15 C                    -0.835904
     16 C                    -0.507188
     17 C                    -0.552232
     18 O                    -0.241119
     19 C                    -0.502158
     20 C                    -0.836699
     21 S                     0.139240
     22 O                    -0.336617
     23 O                    -0.381937
     24 O                    -0.334567
     25 H                     0.298974
     26 H                     0.321564
     27 H                     0.321657
     28 H                     0.299431
     29 H                     0.158663
     30 H                     0.158593
  ----------------------------------------
  Sum of atomic charges =    -2.000000

                    Cartesian Multipole Moments
 -----------------------------------------------------------------
    Charge (ESU x 10^10)
                -9.6064
    Dipole Moment (Debye)
         X       1.5012      Y     -13.6443      Z      -1.6597
       Tot      13.8266
    Quadrupole Moments (Debye-Ang)
        XX    -452.5670     XY     -26.6537     YY    -201.7129
        XZ      -8.6832     YZ      -4.8592     ZZ    -173.4202

 Total job time:  827.51s(wall), 6418.85s(cpu)
        *  Thank you very much for using Q-Chem.  Have a nice day.  *
