 Q-Chem 5.4, Q-Chem, Inc., Pleasanton, CA (2021)
 Q-Chem 5.4.0 for Intel X86 EM64T Linux

User input:
--------------------------------------------------------------
$molecule
-2 1
N                 -4.5579810000      1.0371550000     -0.4993690000
C                 -3.2778340000      0.4628570000     -0.3243410000
C                 -3.1442970000     -0.9581460000     -0.2528790000
Cl                -4.6511820000     -1.9616660000     -0.2023180000
C                 -1.9301130000     -1.5770950000     -0.1953280000
C                 -0.7292000000     -0.8389040000     -0.1413090000
C                  0.5012090000     -1.6015760000     -0.1011250000
O                  0.5266080000     -2.8822730000     -0.1842190000
C                  1.6920820000     -0.8032550000      0.0766340000
C                  2.9577420000     -1.4403860000      0.1299720000
C                  4.1283460000     -0.7322750000      0.3067670000
C                  4.0747980000      0.6827750000      0.4427010000
C                  2.8559830000      1.3283710000      0.4034680000
C                  1.6334620000      0.6318050000      0.2204820000
C                  0.3965330000      1.4012520000      0.2051360000
O                  0.4050510000      2.6673750000      0.3989830000
C                 -0.7916240000      0.6237140000     -0.0547820000
C                 -2.1009410000      1.1836000000     -0.2278220000
Br                -2.3188030000      3.1126970000     -0.6208660000
H                 -4.4877210000      1.9775130000     -0.8727140000
H                 -5.1645660000      0.4558700000     -1.0662160000
H                 -1.8342420000     -2.6566400000     -0.1776620000
H                  2.9585620000     -2.5211090000      0.0261700000
H                  5.0853300000     -1.2500440000      0.3438420000
H                  4.9926790000      1.2526470000      0.5781450000
H                  2.7801190000      2.4057410000      0.5112380000
$end
$rem
MAX_SCF_CYCLES=200
BASIS  =  6-311++G(d,p)
GUI  =  2
JOB_TYPE  =  SP
METHOD  =  B3LYP
SOLVENT_METHOD = PCM
$end
$pcm
theory = CPCM
$end
$solvent
dielectric 37.219
opticaldielectric 1.43
$end

--------------------------------------------------------------

             Standard Nuclear Orientation (Angstroms)
    I     Atom           X                Y                Z
 ----------------------------------------------------------------
    1      N      -4.5579810000     1.0371550000    -0.4993690000
    2      C      -3.2778340000     0.4628570000    -0.3243410000
    3      C      -3.1442970000    -0.9581460000    -0.2528790000
    4      Cl     -4.6511820000    -1.9616660000    -0.2023180000
    5      C      -1.9301130000    -1.5770950000    -0.1953280000
    6      C      -0.7292000000    -0.8389040000    -0.1413090000
    7      C       0.5012090000    -1.6015760000    -0.1011250000
    8      O       0.5266080000    -2.8822730000    -0.1842190000
    9      C       1.6920820000    -0.8032550000     0.0766340000
   10      C       2.9577420000    -1.4403860000     0.1299720000
   11      C       4.1283460000    -0.7322750000     0.3067670000
   12      C       4.0747980000     0.6827750000     0.4427010000
   13      C       2.8559830000     1.3283710000     0.4034680000
   14      C       1.6334620000     0.6318050000     0.2204820000
   15      C       0.3965330000     1.4012520000     0.2051360000
   16      O       0.4050510000     2.6673750000     0.3989830000
   17      C      -0.7916240000     0.6237140000    -0.0547820000
   18      C      -2.1009410000     1.1836000000    -0.2278220000
   19      Br     -2.3188030000     3.1126970000    -0.6208660000
   20      H      -4.4877210000     1.9775130000    -0.8727140000
   21      H      -5.1645660000     0.4558700000    -1.0662160000
   22      H      -1.8342420000    -2.6566400000    -0.1776620000
   23      H       2.9585620000    -2.5211090000     0.0261700000
   24      H       5.0853300000    -1.2500440000     0.3438420000
   25      H       4.9926790000     1.2526470000     0.5781450000
   26      H       2.7801190000     2.4057410000     0.5112380000
 ----------------------------------------------------------------

   10   -3777.7294663090      7.20e-06  Convergence criterion met
 Total energy in the final basis set =    -3777.7294663090

                    Orbital Energies (a.u.)
 --------------------------------------------------------------

 Alpha MOs
 -- Occupied --
********-101.5479 -62.4653 -56.2856 -56.2821 -56.2818 -19.0305 -19.0211
-14.3111 -10.2181 -10.2155 -10.2103 -10.1842 -10.1821 -10.1642 -10.1573
-10.1529 -10.1522 -10.1502 -10.1491 -10.1483 -10.1429 -10.1421  -9.4620
 -8.6740  -7.2262  -7.2171  -7.2168  -6.5048  -6.4931  -6.4923  -2.6158
 -2.6126  -2.6119  -2.6027  -2.6027  -0.9505  -0.9446  -0.9208  -0.8546
 -0.8305  -0.8219  -0.7788  -0.7512  -0.7270  -0.7139  -0.7055  -0.6423
 -0.6137  -0.5948  -0.5709  -0.5366  -0.5188  -0.5049  -0.4911  -0.4664
 -0.4414  -0.4406  -0.4303  -0.4086  -0.4060  -0.4009  -0.3928  -0.3843
 -0.3756  -0.3736  -0.3689  -0.3448  -0.3359  -0.3326  -0.3282  -0.3247
 -0.3141  -0.3085  -0.2931  -0.2835  -0.2788  -0.2358  -0.2301  -0.2252
 -0.2114  -0.2059  -0.1956  -0.1120

          Ground-State Mulliken Net Atomic Charges

     Atom                 Charge (a.u.)
  ----------------------------------------
      1 N                    -0.197833
      2 C                    -2.293726
      3 C                     1.546912
      4 Cl                    0.369454
      5 C                    -0.251332
      6 C                    -0.419446
      7 C                    -0.649038
      8 O                    -0.649324
      9 C                     0.184537
     10 C                     0.011321
     11 C                    -0.580938
     12 C                    -0.510994
     13 C                     0.036641
     14 C                     0.343720
     15 C                    -1.246695
     16 O                    -0.581543
     17 C                     1.098809
     18 C                     0.655961
     19 Br                   -0.241068
     20 H                     0.263895
     21 H                     0.256379
     22 H                     0.199699
     23 H                     0.151088
     24 H                     0.175289
     25 H                     0.176594
     26 H                     0.151637
  ----------------------------------------
  Sum of atomic charges =    -2.000000

                    Cartesian Multipole Moments
 -----------------------------------------------------------------
    Charge (ESU x 10^10)
                -9.6064
    Dipole Moment (Debye)
         X      -0.6199      Y      -0.1889      Z      -1.8720
       Tot       1.9810
    Quadrupole Moments (Debye-Ang)
        XX    -165.9185     XY      -0.1348     YY    -196.7729
        XZ       5.7912     YZ      -6.2563     ZZ    -140.7851

 Total job time:  198.01s(wall), 463.70s(cpu)
        *  Thank you very much for using Q-Chem.  Have a nice day.  *
