 Gaussian 16, Revision A.03,
 Gaussian 16:  ES64L-G16RevA.03 25-Dec-2016

 ----------------------------------------------------------------
 #P UB3LYP/6-311++G(d,p) SCRF=(PCM,Solvent=n,n-DiMethylFormamide)
 ----------------------------------------------------------------

 -------
 Reduced
 -------
 Symbolic Z-matrix:
 Charge = -2 Multiplicity = 1

                         Standard orientation:
 ---------------------------------------------------------------------
 Center     Atomic      Atomic             Coordinates (Angstroms)
 Number     Number       Type             X           Y           Z
 ---------------------------------------------------------------------
      1          8           0        2.017214    2.883890    0.008252
      2          6           0        1.428373    1.759174    0.017002
      3          6           0        0.026957    1.568845    0.007963
      4          6           0       -0.613698    0.322855    0.001618
      5          8           0        0.184622   -0.832156    0.067770
      6          6           0        1.541838   -0.740758    0.021926
      7          6           0        2.254299   -1.944447   -0.010284
      8          6           0        3.655880   -1.925103   -0.019504
      9          6           0        4.334639   -0.708323   -0.033502
     10          6           0        3.613476    0.490838   -0.038636
     11          6           0        2.209918    0.498863    0.006809
     12          6           0       -2.005910    0.050482    0.005075
     13          6           0       -2.992535    1.096495    0.017196
     14          6           0       -4.346418    0.819463   -0.029833
     15          6           0       -4.830526   -0.502363   -0.062812
     16          6           0       -3.884421   -1.542310   -0.003087
     17          6           0       -2.524398   -1.289142    0.041435
     18          1           0       -0.586380    2.461293   -0.017994
     19          1           0        1.702479   -2.878432   -0.001843
     20          1           0        4.208065   -2.862926   -0.013143
     21          1           0        5.422120   -0.695589   -0.043432
     22          1           0        4.106783    1.456019   -0.064941
     23          1           0       -2.671361    2.131461    0.051161
     24          1           0       -5.053644    1.648411   -0.040344
     25          1           0       -5.895326   -0.709697   -0.103546
     26          1           0       -4.226362   -2.576623    0.005723
     27          1           0       -1.825905   -2.115196    0.091969
 ---------------------------------------------------------------------

 SCF Done:  E(UB3LYP) =  -728.432609845     A.U. after   18 cycles

 The electronic state is 1-A.
 Alpha  occ. eigenvalues --  -19.13272 -19.02000 -10.21536 -10.17210 -10.16631
 Alpha  occ. eigenvalues --  -10.15275 -10.14988 -10.14880 -10.14470 -10.14133
 Alpha  occ. eigenvalues --  -10.14111 -10.14087 -10.13575 -10.12884 -10.12581
 Alpha  occ. eigenvalues --  -10.11882 -10.11655  -1.05186  -0.94289  -0.83137
 Alpha  occ. eigenvalues --   -0.81338  -0.75655  -0.73808  -0.71595  -0.70764
 Alpha  occ. eigenvalues --   -0.69168  -0.62133  -0.60282  -0.57344  -0.56083
 Alpha  occ. eigenvalues --   -0.54751  -0.50232  -0.49415  -0.48503  -0.45146
 Alpha  occ. eigenvalues --   -0.43651  -0.42810  -0.41926  -0.41060  -0.39959
 Alpha  occ. eigenvalues --   -0.39107  -0.38691  -0.37622  -0.36541  -0.34995
 Alpha  occ. eigenvalues --   -0.34637  -0.33305  -0.33249  -0.32143  -0.32018
 Alpha  occ. eigenvalues --   -0.31010  -0.29092  -0.25613  -0.23071  -0.22699
 Alpha  occ. eigenvalues --   -0.20943  -0.19970  -0.18624  -0.07204
 Alpha virt. eigenvalues --   -0.00967  -0.00084   0.00588   0.01105   0.01383
 Alpha virt. eigenvalues --    0.02048   0.02075   0.02394   0.03876   0.04153
 Alpha virt. eigenvalues --    0.04601   0.04861   0.05523   0.06064   0.06253

  Beta  occ. eigenvalues --  -19.13272 -19.02000 -10.21536 -10.17210 -10.16631
  Beta  occ. eigenvalues --  -10.15275 -10.14988 -10.14880 -10.14470 -10.14133
  Beta  occ. eigenvalues --  -10.14111 -10.14087 -10.13575 -10.12884 -10.12581
  Beta  occ. eigenvalues --  -10.11882 -10.11655  -1.05186  -0.94289  -0.83137
  Beta  occ. eigenvalues --   -0.81338  -0.75655  -0.73808  -0.71595  -0.70764
  Beta  occ. eigenvalues --   -0.69168  -0.62133  -0.60282  -0.57344  -0.56083
  Beta  occ. eigenvalues --   -0.54751  -0.50232  -0.49415  -0.48503  -0.45146
  Beta  occ. eigenvalues --   -0.43651  -0.42810  -0.41926  -0.41060  -0.39959
  Beta  occ. eigenvalues --   -0.39107  -0.38691  -0.37622  -0.36541  -0.34995
  Beta  occ. eigenvalues --   -0.34637  -0.33305  -0.33249  -0.32143  -0.32018
  Beta  occ. eigenvalues --   -0.31010  -0.29092  -0.25613  -0.23071  -0.22699
  Beta  occ. eigenvalues --   -0.20943  -0.19970  -0.18624  -0.07204
  Beta virt. eigenvalues --   -0.00967  -0.00084   0.00588   0.01105   0.01383
  Beta virt. eigenvalues --    0.02048   0.02075   0.02394   0.03876   0.04153
  Beta virt. eigenvalues --    0.04601   0.04861   0.05523   0.06064   0.06253

 Mulliken charges and spin densities:
               1          2
     1  O   -0.678253   0.000000
     2  C   -0.836929  -0.000000
     3  C   -0.504257   0.000000
     4  C    0.543524  -0.000000
     5  O   -0.110585   0.000000
     6  C   -1.462111  -0.000000
     7  C   -0.427611  -0.000000
     8  C   -0.461337  -0.000000
     9  C   -0.225635   0.000000
    10  C    0.142230   0.000000
    11  C    1.892867   0.000000
    12  C    0.985530  -0.000000
    13  C   -0.604985   0.000000
    14  C   -0.545546  -0.000000
    15  C   -0.503639  -0.000000
    16  C   -0.426348   0.000000
    17  C   -0.155871   0.000000
    18  H    0.136553   0.000000
    19  H    0.149666   0.000000
    20  H    0.164192  -0.000000
    21  H    0.153675   0.000000
    22  H    0.151053  -0.000000
    23  H    0.067865   0.000000
    24  H    0.155137   0.000000
    25  H    0.119883  -0.000000
    26  H    0.149189   0.000000
    27  H    0.131744   0.000000
 Sum of Mulliken charges =  -2.00000  -0.00000

 Dipole moment (field-independent basis, Debye):
    X=              0.1461    Y=             -8.3067    Z=             -0.0531  Tot=              8.3081
 Quadrupole moment (field-independent basis, Debye-Ang):
   XX=           -178.3959   YY=           -140.5084   ZZ=           -116.3497
   XY=            -21.7225   XZ=              0.0227   YZ=             -0.2804

 Normal termination of Gaussian 16 at Sat Jan 13 19:20:02 2024.
