 Gaussian 16, Revision A.03,
 Gaussian 16:  ES64L-G16RevA.03 25-Dec-2016

 ----------------------------------------------------------------------
 #P UB3LYP/6-311++G(d,p) nosym opt freq SCRF=(PCM,Solvent=n,n-DiMethylF
 ormamide)
 ----------------------------------------------------------------------

 -------
 Reduced
 -------
 Symbolic Z-matrix:
 Charge = -2 Multiplicity = 1

 SCF Done:  E(UB3LYP) =  -879.003601903     A.U. after   16 cycles
 SCF Done:  E(UB3LYP) =  -879.004302895     A.U. after   13 cycles
 SCF Done:  E(UB3LYP) =  -879.004085780     A.U. after   13 cycles
 SCF Done:  E(UB3LYP) =  -879.004698022     A.U. after   12 cycles
 SCF Done:  E(UB3LYP) =  -879.004651443     A.U. after   11 cycles
 SCF Done:  E(UB3LYP) =  -879.004719587     A.U. after   11 cycles
 SCF Done:  E(UB3LYP) =  -879.004736691     A.U. after   11 cycles
 SCF Done:  E(UB3LYP) =  -879.004737556     A.U. after   10 cycles
 SCF Done:  E(UB3LYP) =  -879.004738935     A.U. after    9 cycles
 SCF Done:  E(UB3LYP) =  -879.004739090     A.U. after    8 cycles
 Optimization completed.
    -- Stationary point found.
 Normal termination of Gaussian 16 at Sat Feb 10 19:02:05 2024.

 ----------------------------------------------------------------------
 #P Geom=AllCheck Guess=TCheck SCRF=Check GenChk UB3LYP/6-311++G(d,p) F
 req
 ----------------------------------------------------------------------

 Structure from the checkpoint file:  "179-an.chk"
 -------
 Reduced
 -------
 Charge = -2 Multiplicity = 1

                          Input orientation:
 ---------------------------------------------------------------------
 Center     Atomic      Atomic             Coordinates (Angstroms)
 Number     Number       Type             X           Y           Z
 ---------------------------------------------------------------------
      1          6           0       -3.473727   -2.753585   -0.385476
      2          8           0       -2.167368   -2.235072   -0.212206
      3          6           0       -2.007376   -0.857778   -0.197857
      4          6           0       -3.083233   -0.012459   -0.352893
      5          6           0       -2.929412    1.398151   -0.355937
      6          6           0       -1.688904    1.997461   -0.212196
      7          8           0       -1.532385    3.312846   -0.223323
      8          6           0       -0.522088    1.119510   -0.043427
      9          6           0        0.748698    1.718705    0.101841
     10          8           0        0.887613    3.090469    0.084732
     11          6           0        1.899158    0.933797    0.265994
     12          6           0        3.199009    1.515690    0.405227
     13          6           0        4.318327    0.735600    0.565681
     14          6           0        4.202482   -0.681042    0.597973
     15          6           0        2.960259   -1.264433    0.468768
     16          6           0        1.777984   -0.499527    0.299346
     17          6           0        0.497891   -1.179377    0.169928
     18          8           0        0.462398   -2.460808    0.234712
     19          6           0       -0.669005   -0.332080   -0.023735
     20          1           0       -3.370259   -3.838886   -0.365409
     21          1           0       -4.149590   -2.443541    0.421233
     22          1           0       -3.911665   -2.453146   -1.345493
     23          1           0       -4.079557   -0.413705   -0.481329
     24          1           0       -3.802728    2.032079   -0.479582
     25          1           0       -0.084590    3.412833   -0.044982
     26          1           0        3.283362    2.595786    0.380161
     27          1           0        5.294345    1.200265    0.667770
     28          1           0        5.088389   -1.295146    0.723644
     29          1           0        2.851973   -2.342604    0.491744
 ---------------------------------------------------------------------

 SCF Done:  E(UB3LYP) =  -879.004739090     A.U. after    1 cycles

 Alpha  occ. eigenvalues --  -19.12461 -19.08535 -19.04202 -19.02243 -10.20448
 Alpha  occ. eigenvalues --  -10.19837 -10.18993 -10.18860 -10.18335 -10.15581
 Alpha  occ. eigenvalues --  -10.15284 -10.15085 -10.15021 -10.14996 -10.14925
 Alpha  occ. eigenvalues --  -10.14767 -10.14141 -10.13814 -10.12536  -1.03686
 Alpha  occ. eigenvalues --   -1.00299  -0.94298  -0.94271  -0.83526  -0.80881
 Alpha  occ. eigenvalues --   -0.76177  -0.73096  -0.71920  -0.70888  -0.66897
 Alpha  occ. eigenvalues --   -0.64451  -0.60777  -0.59918  -0.55338  -0.54118
 Alpha  occ. eigenvalues --   -0.51161  -0.50960  -0.48233  -0.46329  -0.44912
 Alpha  occ. eigenvalues --   -0.44775  -0.43718  -0.42134  -0.41629  -0.40551
 Alpha  occ. eigenvalues --   -0.40078  -0.39466  -0.38375  -0.36766  -0.36150
 Alpha  occ. eigenvalues --   -0.35729  -0.35453  -0.34811  -0.33619  -0.32299
 Alpha  occ. eigenvalues --   -0.31893  -0.31252  -0.31138  -0.30668  -0.26207
 Alpha  occ. eigenvalues --   -0.24518  -0.23289  -0.21977  -0.21929  -0.19335
 Alpha  occ. eigenvalues --   -0.17363  -0.11705
 Alpha virt. eigenvalues --   -0.02350  -0.00008   0.00033   0.00541   0.01359
 Alpha virt. eigenvalues --    0.02284   0.02343   0.03371   0.03910   0.04186
 Alpha virt. eigenvalues --    0.04210   0.04624   0.05545   0.05913   0.06669

  Beta  occ. eigenvalues --  -19.12461 -19.08535 -19.04202 -19.02243 -10.20448
  Beta  occ. eigenvalues --  -10.19837 -10.18993 -10.18860 -10.18335 -10.15581
  Beta  occ. eigenvalues --  -10.15284 -10.15085 -10.15021 -10.14996 -10.14925
  Beta  occ. eigenvalues --  -10.14767 -10.14141 -10.13814 -10.12536  -1.03686
  Beta  occ. eigenvalues --   -1.00299  -0.94298  -0.94271  -0.83526  -0.80881
  Beta  occ. eigenvalues --   -0.76177  -0.73096  -0.71920  -0.70888  -0.66897
  Beta  occ. eigenvalues --   -0.64451  -0.60777  -0.59918  -0.55338  -0.54118
  Beta  occ. eigenvalues --   -0.51161  -0.50960  -0.48233  -0.46329  -0.44912
  Beta  occ. eigenvalues --   -0.44775  -0.43718  -0.42134  -0.41629  -0.40551
  Beta  occ. eigenvalues --   -0.40078  -0.39466  -0.38375  -0.36766  -0.36150
  Beta  occ. eigenvalues --   -0.35729  -0.35453  -0.34811  -0.33619  -0.32299
  Beta  occ. eigenvalues --   -0.31893  -0.31252  -0.31138  -0.30668  -0.26207
  Beta  occ. eigenvalues --   -0.24518  -0.23289  -0.21977  -0.21929  -0.19335
  Beta  occ. eigenvalues --   -0.17363  -0.11705
  Beta virt. eigenvalues --   -0.02350  -0.00008   0.00033   0.00541   0.01359
  Beta virt. eigenvalues --    0.02284   0.02343   0.03371   0.03910   0.04186
  Beta virt. eigenvalues --    0.04210   0.04624   0.05545   0.05913   0.06669

 Mulliken charges and spin densities:
               1          2
     1  C   -0.261047   0.000000
     2  O   -0.183321  -0.000000
     3  C   -0.374143   0.000000
     4  C   -0.160206  -0.000000
     5  C   -0.235150   0.000000
     6  C   -0.514769   0.000000
     7  O   -0.678833   0.000000
     8  C    0.706727  -0.000000
     9  C    0.106340  -0.000000
    10  O   -0.545501   0.000000
    11  C    0.244111   0.000000
    12  C   -0.181196   0.000000
    13  C   -0.493321   0.000000
    14  C   -0.545890   0.000000
    15  C   -0.038923  -0.000000
    16  C   -0.021528  -0.000000
    17  C   -0.219438  -0.000000
    18  O   -0.628351  -0.000000
    19  C    0.197120  -0.000000
    20  H    0.185096   0.000000
    21  H    0.141498  -0.000000
    22  H    0.139272  -0.000000
    23  H    0.173515  -0.000000
    24  H    0.144110   0.000000
    25  H    0.421876  -0.000000
    26  H    0.150926   0.000000
    27  H    0.161799   0.000000
    28  H    0.161202  -0.000000
    29  H    0.148026   0.000000
 Sum of Mulliken charges =  -2.00000  -0.00000

 Dipole moment (field-independent basis, Debye):
    X=             -0.7930    Y=             -5.7254    Z=             -0.6596  Tot=              5.8176
 Quadrupole moment (field-independent basis, Debye-Ang):
   XX=           -136.6991   YY=           -181.1840   ZZ=           -122.9525
   XY=             16.6458   XZ=             -2.2248   YZ=              3.8363

  Exact polarizability: 547.414  -6.813 384.129  48.495  -7.423 172.090
 Approx polarizability: 592.837  -6.286 462.370  51.678  -9.408 190.940

                      1                      2                      3
                      A                      A                      A
 Frequencies --     45.6059                64.0128                90.8239
 Red. masses --      4.7990                 5.6343                 5.1791
 Frc consts  --      0.0059                 0.0136                 0.0252
 IR Inten    --     17.4752                 1.6577                 0.4298

                      4                      5                      6
                      A                      A                      A
 Frequencies --    113.3338               137.8905               176.9396
 Red. masses --      5.0709                 4.8560                 7.0718
 Frc consts  --      0.0384                 0.0544                 0.1304
 IR Inten    --      0.5988                 1.4504                 1.9320

                      7                      8                      9
                      A                      A                      A
 Frequencies --    177.2587               261.7836               265.7821
 Red. masses --      4.5003                 5.2691                 5.0723
 Frc consts  --      0.0833                 0.2128                 0.2111
 IR Inten    --     25.4718                 0.9217                 0.8524

                     10                     11                     12
                      A                      A                      A
 Frequencies --    275.6332               325.5711               354.3102
 Red. masses --      1.1792                 4.5941                 8.7638
 Frc consts  --      0.0528                 0.2869                 0.6482
 IR Inten    --      0.3207                 5.5292                45.0378

                     13                     14                     15
                      A                      A                      A
 Frequencies --    362.8612               380.7181               381.4759
 Red. masses --      8.5454                 5.0015                 7.0800
 Frc consts  --      0.6629                 0.4271                 0.6070
 IR Inten    --      0.5902                 0.4465                 0.9219

                     16                     17                     18
                      A                      A                      A
 Frequencies --    405.6091               431.1780               440.9174
 Red. masses --      6.4731                 8.1721                 3.3077
 Frc consts  --      0.6274                 0.8952                 0.3789
 IR Inten    --     75.6851                 5.2223                 4.7146

                     19                     20                     21
                      A                      A                      A
 Frequencies --    485.2476               498.3304               525.5495
 Red. masses --     11.2904                 4.2184                 8.1820
 Frc consts  --      1.5663                 0.6172                 1.3315
 IR Inten    --      3.8334                 0.4569                12.9701

                     22                     23                     24
                      A                      A                      A
 Frequencies --    555.8296               592.3977               610.6584
 Red. masses --      6.9470                 3.3274                 5.3797
 Frc consts  --      1.2645                 0.6880                 1.1820
 IR Inten    --      7.9320                46.8531                40.4183

                     25                     26                     27
                      A                      A                      A
 Frequencies --    617.3834               657.9057               709.9394
 Red. masses --      3.9950                 6.3829                 2.7131
 Frc consts  --      0.8972                 1.6278                 0.8057
 IR Inten    --     13.7009                 0.2465                 9.5221

                     28                     29                     30
                      A                      A                      A
 Frequencies --    710.6036               734.6873               743.7670
 Red. masses --      4.4247                 4.6938                 6.8886
 Frc consts  --      1.3164                 1.4927                 2.2452
 IR Inten    --     14.7968                 0.2494               145.9379

                     31                     32                     33
                      A                      A                      A
 Frequencies --    759.8170               787.0587               799.7419
 Red. masses --      1.7055                 2.2391                 3.9460
 Frc consts  --      0.5801                 0.8172                 1.4870
 IR Inten    --    134.7581                61.8399                 1.0454

                     34                     35                     36
                      A                      A                      A
 Frequencies --    832.5740               835.3969               848.5086
 Red. masses --      6.4502                 1.4360                 1.5657
 Frc consts  --      2.6343                 0.5905                 0.6642
 IR Inten    --     69.1587                 1.0519                 2.5506

                     37                     38                     39
                      A                      A                      A
 Frequencies --    882.7560               937.3525               972.7328
 Red. masses --      8.7909                 5.9482                 1.3490
 Frc consts  --      4.0361                 3.0792                 0.7521
 IR Inten    --    214.4138                40.1895                 5.2503

                     40                     41                     42
                      A                      A                      A
 Frequencies --    980.3920              1004.1335              1019.3194
 Red. masses --      1.2552                 1.0503                 2.4538
 Frc consts  --      0.7108                 0.6239                 1.5021
 IR Inten    --      0.2230               131.8430                81.0355

                     43                     44                     45
                      A                      A                      A
 Frequencies --   1038.8382              1071.1219              1100.2158
 Red. masses --      4.6548                 4.5173                 2.6649
 Frc consts  --      2.9597                 3.0536                 1.9006
 IR Inten    --    257.1630               442.7800                72.7418

                     46                     47                     48
                      A                      A                      A
 Frequencies --   1126.9774              1155.2659              1162.6278
 Red. masses --      1.5913                 1.5123                 1.2809
 Frc consts  --      1.1908                 1.1892                 1.0201
 IR Inten    --    304.5281                70.9621                 1.7773

                     49                     50                     51
                      A                      A                      A
 Frequencies --   1169.9845              1195.9329              1213.1009
 Red. masses --      2.0101                 1.7499                 3.3336
 Frc consts  --      1.6211                 1.4746                 2.8904
 IR Inten    --      5.1468               190.0340               172.5664

                     52                     53                     54
                      A                      A                      A
 Frequencies --   1220.6170              1247.9092              1268.7365
 Red. masses --      2.1217                 2.1094                 4.6403
 Frc consts  --      1.8625                 1.9355                 4.4008
 IR Inten    --    429.3832                64.3386               159.5078

                     55                     56                     57
                      A                      A                      A
 Frequencies --   1284.1160              1339.6623              1352.1695
 Red. masses --      5.6259                 3.7075                 6.1948
 Frc consts  --      5.4657                 3.9203                 6.6732
 IR Inten    --    229.4029                47.4263               395.4393

                     58                     59                     60
                      A                      A                      A
 Frequencies --   1372.8225              1397.0308              1430.2467
 Red. masses --      2.9613                 3.7403                 3.1949
 Frc consts  --      3.2882                 4.3009                 3.8506
 IR Inten    --    186.4820              1414.9364               103.5970

                     61                     62                     63
                      A                      A                      A
 Frequencies --   1448.0192              1467.6595              1476.5646
 Red. masses --      3.7651                 1.3875                 2.2211
 Frc consts  --      4.6513                 1.7609                 2.8532
 IR Inten    --    940.6259                 0.3642               110.3953

                     64                     65                     66
                      A                      A                      A
 Frequencies --   1477.0383              1499.5508              1505.6774
 Red. masses --      1.0469                 1.1375                 2.3293
 Frc consts  --      1.3456                 1.5071                 3.1113
 IR Inten    --      9.1409                87.3082               136.1107

                     67                     68                     69
                      A                      A                      A
 Frequencies --   1526.4662              1578.2710              1590.0246
 Red. masses --      4.9269                 6.0080                 5.3215
 Frc consts  --      6.7640                 8.8174                 7.9266
 IR Inten    --    336.5562                20.6430               219.0778

                     70                     71                     72
                      A                      A                      A
 Frequencies --   1621.2382              1656.0714              2493.0454
 Red. masses --      4.8693                 1.9942                 1.0830
 Frc consts  --      7.5407                 3.2224                 3.9658
 IR Inten    --    105.9447                73.0721              1740.7227

                     73                     74                     75
                      A                      A                      A
 Frequencies --   2982.1373              3030.4845              3106.3453
 Red. masses --      1.0348                 1.1048                 1.0976
 Frc consts  --      5.4222                 5.9778                 6.2401
 IR Inten    --    150.8159                93.9510                50.5675

                     76                     77                     78
                      A                      A                      A
 Frequencies --   3142.3722              3143.7643              3159.2807
 Red. masses --      1.0880                 1.0852                 1.0895
 Frc consts  --      6.3301                 6.3193                 6.4071
 IR Inten    --     95.4187                21.5046                31.0040

                     79                     80                     81
                      A                      A                      A
 Frequencies --   3178.0690              3183.5257              3195.3650
 Red. masses --      1.0919                 1.0934                 1.0893
 Frc consts  --      6.4977                 6.5289                 6.5531
 IR Inten    --     43.3765                61.2267                32.5767

 - Thermochemistry -
 -------------------
 Temperature   298.150 Kelvin.  Pressure   1.00000 Atm.
 Atom     1 has atomic number  6 and mass  12.00000

 Molecular mass:   254.05791 amu.
 Principal axes and moments of inertia in atomic units:
                           1         2         3
     Eigenvalues --  3024.123515471.781718483.34357
           X            0.97565  -0.17713  -0.12936
           Y            0.18166   0.98307   0.02403
           Z            0.12291  -0.04695   0.99131
 This molecule is an asymmetric top.
 Rotational symmetry number  1.
 Warning -- assumption of classical behavior for rotation
           may cause significant error
 Rotational temperatures (Kelvin)      0.02864     0.01583     0.01021
 Rotational constants (GHZ):           0.59678     0.32983     0.21274
 Zero-point vibrational energy     552687.5 (Joules/Mol)
                                  132.09548 (Kcal/Mol)
 Warning -- explicit consideration of  25 degrees of freedom as
           vibrations may cause significant error
 Vibrational temperatures:     65.62    92.10   130.68   163.06   198.39
          (Kelvin)            254.58   255.04   376.65   382.40   396.57
                              468.42   509.77   522.08   547.77   548.86
                              583.58   620.37   634.38   698.16   716.99
                              756.15   799.71   852.33   878.60   888.28
                              946.58  1021.44  1022.40  1057.05  1070.11
                             1093.21  1132.40  1150.65  1197.89  1201.95
                             1220.81  1270.09  1348.64  1399.55  1410.57
                             1444.72  1466.57  1494.66  1541.11  1582.97
                             1621.47  1662.17  1672.76  1683.35  1720.68
                             1745.38  1756.20  1795.46  1825.43  1847.56
                             1927.48  1945.47  1975.19  2010.02  2057.81
                             2083.38  2111.63  2124.45  2125.13  2157.52
                             2166.33  2196.24  2270.78  2287.69  2332.60
                             2382.72  3586.94  4290.63  4360.19  4469.34
                             4521.17  4523.18  4545.50  4572.53  4580.38
                             4597.42

 Zero-point correction=                           0.210508 (Hartree/Particle)
 Thermal correction to Energy=                    0.225221
 Thermal correction to Enthalpy=                  0.226166
 Thermal correction to Gibbs Free Energy=         0.168876
 Sum of electronic and zero-point Energies=           -878.794232
 Sum of electronic and thermal Energies=              -878.779518
 Sum of electronic and thermal Enthalpies=            -878.778574
 Sum of electronic and thermal Free Energies=         -878.835863

                     E (Thermal)             CV                S
                      KCal/Mol        Cal/Mol-Kelvin    Cal/Mol-Kelvin
 Total                  141.329             59.229            120.576
 Electronic               0.000              0.000              0.000
 Translational            0.889              2.981             42.497
 Rotational               0.889              2.981             33.306
 Vibrational            139.551             53.268             44.772
 Vibration     1          0.595              1.979              4.999
 Vibration     2          0.597              1.971              4.329
 Vibration     3          0.602              1.956              3.642
 Vibration     4          0.607              1.938              3.211
 Vibration     5          0.614              1.915              2.833
 Vibration     6          0.628              1.871              2.360
 Vibration     7          0.628              1.870              2.357
 Vibration     8          0.669              1.743              1.650
 Vibration     9          0.672              1.736              1.623
 Vibration    10          0.677              1.718              1.561
 Vibration    11          0.710              1.624              1.282
 Vibration    12          0.730              1.566              1.147
 Vibration    13          0.737              1.549              1.110
 Vibration    14          0.750              1.511              1.036
 Vibration    15          0.751              1.510              1.033
 Vibration    16          0.771              1.458              0.942
 Vibration    17          0.792              1.402              0.855
 Vibration    18          0.801              1.381              0.824
 Vibration    19          0.841              1.283              0.696
 Vibration    20          0.854              1.254              0.662
 Vibration    21          0.881              1.193              0.597
 Vibration    22          0.911              1.127              0.532
 Vibration    23          0.950              1.048              0.463
 Vibration    24          0.970              1.009              0.432
 Vibration    25          0.977              0.995              0.421

 Optimization completed.
    -- Stationary point found.
 Normal termination of Gaussian 16 at Sat Feb 10 19:39:12 2024.
