 Gaussian 16, Revision A.03,
 Gaussian 16:  ES64L-G16RevA.03 25-Dec-2016

 ----------------------------------------------------------------
 #P UB3LYP/6-311++G(d,p) SCRF=(PCM,Solvent=n,n-DiMethylFormamide)
 ----------------------------------------------------------------

 ------------------
 Quinone PCM in DMF
 ------------------
 Symbolic Z-matrix:
 Charge =  0 Multiplicity = 1

                         Standard orientation:
 ---------------------------------------------------------------------
 Center     Atomic      Atomic             Coordinates (Angstroms)
 Number     Number       Type             X           Y           Z
 ---------------------------------------------------------------------
      1          6           0        3.482152   -0.412081    0.000072
      2          6           0        2.045722    0.013067    0.000042
      3          6           0        1.651712    1.300272    0.000124
      4          6           0        0.236777    1.725370    0.000018
      5          8           0       -0.055535    2.911526   -0.000009
      6          6           0       -0.802443    0.655242   -0.000059
      7          6           0       -2.156248    0.996832   -0.000173
      8          6           0       -3.124616   -0.002051   -0.000052
      9          6           0       -2.745749   -1.346922    0.000178
     10          6           0       -1.398780   -1.694152    0.000184
     11          6           0       -0.420236   -0.696551    0.000051
     12          6           0        1.021315   -1.081038   -0.000084
     13          8           0        1.372567   -2.249569   -0.000300
     14          1           0        4.147331    0.452023   -0.000358
     15          1           0        3.698489   -1.031849    0.874591
     16          1           0        3.698300   -1.032677   -0.873888
     17          1           0        2.372148    2.112276    0.000191
     18          1           0       -2.426865    2.045651   -0.000350
     19          1           0       -4.175477    0.264244   -0.000117
     20          1           0       -3.503084   -2.122564    0.000322
     21          1           0       -1.084738   -2.730704    0.000271
 ---------------------------------------------------------------------

 SCF Done:  E(UB3LYP) =  -574.599550259     A.U. after   15 cycles

 The electronic state is 1-A.
 Alpha  occ. eigenvalues --  -19.13925 -19.13592 -10.28654 -10.28417 -10.22249
 Alpha  occ. eigenvalues --  -10.21004 -10.20912 -10.20501 -10.20022 -10.20002
 Alpha  occ. eigenvalues --  -10.19958 -10.19930 -10.17912  -1.07236  -1.06783
 Alpha  occ. eigenvalues --   -0.89260  -0.84891  -0.78776  -0.78046  -0.73145
 Alpha  occ. eigenvalues --   -0.68663  -0.64991  -0.62551  -0.59012  -0.54773
 Alpha  occ. eigenvalues --   -0.53125  -0.50277  -0.48105  -0.46504  -0.46204
 Alpha  occ. eigenvalues --   -0.45804  -0.45357  -0.43172  -0.42884  -0.41703
 Alpha  occ. eigenvalues --   -0.41222  -0.40026  -0.38214  -0.38023  -0.37133
 Alpha  occ. eigenvalues --   -0.30090  -0.29119  -0.28107  -0.28026  -0.27859
 Alpha virt. eigenvalues --   -0.12740  -0.05850  -0.03363  -0.00701   0.00316
 Alpha virt. eigenvalues --    0.01153   0.02160   0.02368   0.02446   0.03422
 Alpha virt. eigenvalues --    0.04239   0.04901   0.05220   0.05374   0.05583

  Beta  occ. eigenvalues --  -19.13925 -19.13592 -10.28654 -10.28417 -10.22249
  Beta  occ. eigenvalues --  -10.21004 -10.20912 -10.20501 -10.20022 -10.20002
  Beta  occ. eigenvalues --  -10.19958 -10.19930 -10.17912  -1.07236  -1.06783
  Beta  occ. eigenvalues --   -0.89260  -0.84891  -0.78776  -0.78046  -0.73145
  Beta  occ. eigenvalues --   -0.68663  -0.64991  -0.62551  -0.59012  -0.54773
  Beta  occ. eigenvalues --   -0.53125  -0.50277  -0.48105  -0.46504  -0.46204
  Beta  occ. eigenvalues --   -0.45804  -0.45357  -0.43172  -0.42884  -0.41703
  Beta  occ. eigenvalues --   -0.41222  -0.40026  -0.38214  -0.38023  -0.37133
  Beta  occ. eigenvalues --   -0.30090  -0.29119  -0.28107  -0.28026  -0.27859
  Beta virt. eigenvalues --   -0.12740  -0.05850  -0.03363  -0.00701   0.00316
  Beta virt. eigenvalues --    0.01153   0.02160   0.02368   0.02446   0.03422
  Beta virt. eigenvalues --    0.04239   0.04901   0.05220   0.05374   0.05583

 Mulliken charges and spin densities:
               1          2
     1  C   -0.311893   0.000000
     2  C    0.880189  -0.000000
     3  C   -0.411636  -0.000000
     4  C   -0.840347   0.000000
     5  O   -0.295939   0.000000
     6  C    0.467564   0.000000
     7  C    0.077689   0.000000
     8  C   -0.341174   0.000000
     9  C   -0.444571   0.000000
    10  C    0.107958  -0.000000
    11  C    0.326670  -0.000000
    12  C   -0.492785   0.000000
    13  O   -0.265971  -0.000000
    14  H    0.174101  -0.000000
    15  H    0.191078   0.000000
    16  H    0.190989   0.000000
    17  H    0.202489  -0.000000
    18  H    0.182953  -0.000000
    19  H    0.211178   0.000000
    20  H    0.213051  -0.000000
    21  H    0.178408   0.000000
 Sum of Mulliken charges =  -0.00000   0.00000

 Dipole moment (field-independent basis, Debye):
    X=             -0.9488    Y=             -1.1637    Z=              0.0008  Tot=              1.5015
 Quadrupole moment (field-independent basis, Debye-Ang):
   XX=            -56.5719   YY=            -90.9115   ZZ=            -76.4069
   XY=              7.5904   XZ=              0.0015   YZ=             -0.0025

 Normal termination of Gaussian 16 at Sun Jan 21 07:52:10 2024.
