 Gaussian 16, Revision A.03,
 Gaussian 16:  ES64L-G16RevA.03 25-Dec-2016

 ----------------------------------------------------------------------
 #P UB3LYP/6-311++G(d,p) nosym opt freq SCRF=(PCM,Solvent=n,n-DiMethylF
 ormamide)
 ----------------------------------------------------------------------

 -------
 Reduced
 -------
 Symbolic Z-matrix:
 Charge = -2 Multiplicity = 1

 SCF Done:  E(UB3LYP) =  -1165.33631771     A.U. after   17 cycles
 SCF Done:  E(UB3LYP) =  -1165.23378509     A.U. after   16 cycles
 SCF Done:  E(UB3LYP) =  -1165.33281103     A.U. after   14 cycles
 SCF Done:  E(UB3LYP) =  -1165.33671501     A.U. after   11 cycles
 SCF Done:  E(UB3LYP) =  -1165.33680547     A.U. after   14 cycles
 SCF Done:  E(UB3LYP) =  -1165.33715983     A.U. after   15 cycles
 SCF Done:  E(UB3LYP) =  -1165.33450006     A.U. after   14 cycles
 SCF Done:  E(UB3LYP) =  -1165.33716631     A.U. after   13 cycles
 SCF Done:  E(UB3LYP) =  -1165.33747146     A.U. after   14 cycles
 SCF Done:  E(UB3LYP) =  -1165.33755269     A.U. after   12 cycles
 SCF Done:  E(UB3LYP) =  -1165.34332619     A.U. after   11 cycles
 SCF Done:  E(UB3LYP) =  -1165.34332800     A.U. after   11 cycles
 SCF Done:  E(UB3LYP) =  -1165.34332843     A.U. after    9 cycles
 SCF Done:  E(UB3LYP) =  -1165.34332859     A.U. after    9 cycles
 SCF Done:  E(UB3LYP) =  -1165.34332864     A.U. after    8 cycles
 SCF Done:  E(UB3LYP) =  -1165.34332868     A.U. after    8 cycles
 SCF Done:  E(UB3LYP) =  -1165.34332870     A.U. after    7 cycles
 SCF Done:  E(UB3LYP) =  -1165.34332871     A.U. after    7 cycles
 SCF Done:  E(UB3LYP) =  -1165.34332872     A.U. after    8 cycles
 Optimization completed.
    -- Stationary point found.
 Normal termination of Gaussian 16 at Sat Feb 10 14:03:00 2024.

 ----------------------------------------------------------------------
 #P Geom=AllCheck Guess=TCheck SCRF=Check GenChk UB3LYP/6-311++G(d,p) F
 req
 ----------------------------------------------------------------------

 Structure from the checkpoint file:  "052-an.chk"
 -------
 Reduced
 -------
 Charge = -2 Multiplicity = 1

                          Input orientation:
 ---------------------------------------------------------------------
 Center     Atomic      Atomic             Coordinates (Angstroms)
 Number     Number       Type             X           Y           Z
 ---------------------------------------------------------------------
      1          6           0        1.500765    2.984100    1.573444
      2          6           0        0.148814    2.803766    1.238913
      3          6           0       -0.268759    1.624534    0.601420
      4          6           0        0.650906    0.570936    0.282410
      5          6           0        2.032921    0.792323    0.604531
      6          6           0        2.433728    1.974959    1.257598
      7          8           0        1.842120    4.144848    2.241944
      8          8           0        0.264260   -0.538336   -0.278775
      9          6           0       -0.861068    3.880304    1.579709
     10          6           0       -1.721778    1.432847    0.238035
     11          6           0        2.997058   -0.299712    0.217446
     12         16           0        4.140690    2.209554    1.790284
     13          6           0        4.829278    3.329867    0.479685
     14          6           0        5.897609    4.254269    1.048718
     15          6           0        5.399432    5.373643    1.991984
     16          8           0        6.289634    6.022406    2.596035
     17          8           0        4.153907    5.581289    2.066472
     18          1           0       -0.393751    4.699387    2.122859
     19          1           0       -1.676286    3.483343    2.194530
     20          1           0       -1.325608    4.295384    0.677623
     21          1           0       -2.148814    2.319101   -0.242821
     22          1           0       -2.346500    1.223704    1.117534
     23          1           0       -1.816417    0.584297   -0.439394
     24          1           0        2.786329   -0.642518   -0.800091
     25          1           0        2.887969   -1.183969    0.859826
     26          1           0        4.033244    0.030698    0.281616
     27          1           0        3.996433    3.907212    0.080462
     28          1           0        5.238688    2.708530   -0.319672
     29          1           0        6.408235    4.752763    0.215211
     30          1           0        6.673864    3.685190    1.569859
     31          1           0        2.778744    4.416471    2.110427
 ---------------------------------------------------------------------

 SCF Done:  E(UB3LYP) =  -1165.34332872     A.U. after    1 cycles

 Alpha  occ. eigenvalues --  -88.82448 -19.10642 -19.05945 -19.05476 -19.01857
 Alpha  occ. eigenvalues --  -10.24923 -10.19419 -10.18445 -10.17680 -10.17235
 Alpha  occ. eigenvalues --  -10.16123 -10.14948 -10.14635 -10.14312 -10.13985
 Alpha  occ. eigenvalues --  -10.13917 -10.13828  -7.91082  -5.87470  -5.87116
 Alpha  occ. eigenvalues --   -5.86461  -1.02048  -1.01226  -0.93194  -0.93035
 Alpha  occ. eigenvalues --   -0.82031  -0.79089  -0.76262  -0.71632  -0.70693
 Alpha  occ. eigenvalues --   -0.68948  -0.63932  -0.62812  -0.59437  -0.55279
 Alpha  occ. eigenvalues --   -0.52935  -0.49683  -0.49254  -0.46985  -0.45099
 Alpha  occ. eigenvalues --   -0.43835  -0.42170  -0.41513  -0.40613  -0.39532
 Alpha  occ. eigenvalues --   -0.39014  -0.38705  -0.38523  -0.38106  -0.37327
 Alpha  occ. eigenvalues --   -0.37188  -0.36871  -0.35849  -0.35531  -0.34568
 Alpha  occ. eigenvalues --   -0.33362  -0.32351  -0.31821  -0.31212  -0.29482
 Alpha  occ. eigenvalues --   -0.25356  -0.25202  -0.24092  -0.23030  -0.21890
 Alpha  occ. eigenvalues --   -0.20853  -0.19564  -0.14616
 Alpha virt. eigenvalues --   -0.00519   0.00106   0.00810   0.01258   0.02008
 Alpha virt. eigenvalues --    0.02404   0.03020   0.03316   0.03814   0.03996
 Alpha virt. eigenvalues --    0.04468   0.05042   0.05239   0.05333   0.05772

  Beta  occ. eigenvalues --  -88.82448 -19.10642 -19.05945 -19.05476 -19.01857
  Beta  occ. eigenvalues --  -10.24923 -10.19419 -10.18445 -10.17680 -10.17235
  Beta  occ. eigenvalues --  -10.16123 -10.14948 -10.14635 -10.14312 -10.13985
  Beta  occ. eigenvalues --  -10.13917 -10.13828  -7.91082  -5.87470  -5.87116
  Beta  occ. eigenvalues --   -5.86461  -1.02048  -1.01226  -0.93194  -0.93035
  Beta  occ. eigenvalues --   -0.82031  -0.79089  -0.76262  -0.71632  -0.70693
  Beta  occ. eigenvalues --   -0.68948  -0.63932  -0.62812  -0.59437  -0.55279
  Beta  occ. eigenvalues --   -0.52935  -0.49683  -0.49254  -0.46985  -0.45099
  Beta  occ. eigenvalues --   -0.43835  -0.42170  -0.41513  -0.40613  -0.39532
  Beta  occ. eigenvalues --   -0.39014  -0.38705  -0.38523  -0.38106  -0.37327
  Beta  occ. eigenvalues --   -0.37188  -0.36871  -0.35849  -0.35531  -0.34568
  Beta  occ. eigenvalues --   -0.33362  -0.32351  -0.31821  -0.31212  -0.29482
  Beta  occ. eigenvalues --   -0.25356  -0.25202  -0.24092  -0.23030  -0.21890
  Beta  occ. eigenvalues --   -0.20853  -0.19564  -0.14616
  Beta virt. eigenvalues --   -0.00519   0.00106   0.00810   0.01258   0.02008
  Beta virt. eigenvalues --    0.02404   0.03020   0.03316   0.03814   0.03996
  Beta virt. eigenvalues --    0.04468   0.05042   0.05239   0.05333   0.05772

 Mulliken charges and spin densities:
               1          2
     1  C   -1.088989  -0.000000
     2  C    0.391689   0.000000
     3  C    0.855060   0.000000
     4  C   -1.335735  -0.000000
     5  C    0.647699   0.000000
     6  C    0.908477   0.000000
     7  O   -0.330525  -0.000000
     8  O   -0.663092   0.000000
     9  C   -0.578692  -0.000000
    10  C   -0.528591   0.000000
    11  C   -0.487099   0.000000
    12  S   -0.423925  -0.000000
    13  C   -0.495642   0.000000
    14  C   -0.348575  -0.000000
    15  C    0.111774   0.000000
    16  O   -0.537987   0.000000
    17  O   -0.539388  -0.000000
    18  H    0.157742   0.000000
    19  H    0.146795   0.000000
    20  H    0.149617   0.000000
    21  H    0.129458  -0.000000
    22  H    0.151415   0.000000
    23  H    0.169469   0.000000
    24  H    0.144025   0.000000
    25  H    0.151585  -0.000000
    26  H    0.101935  -0.000000
    27  H    0.203511  -0.000000
    28  H    0.215955   0.000000
    29  H    0.173955   0.000000
    30  H    0.168903  -0.000000
    31  H    0.379175  -0.000000
 Sum of Mulliken charges =  -2.00000  -0.00000

 Dipole moment (field-independent basis, Debye):
    X=            -26.0008    Y=            -28.3917    Z=            -15.1667  Tot=             41.3783
 Quadrupole moment (field-independent basis, Debye-Ang):
   XX=           -244.0399   YY=           -290.2262   ZZ=           -157.8201
   XY=           -138.5581   XZ=            -72.6381   YZ=            -84.1759

  Exact polarizability: 337.481  15.682 287.624  17.040  45.441 208.872
 Approx polarizability: 347.680  10.303 311.035  16.685  46.364 233.302

                      1                      2                      3
                      A                      A                      A
 Frequencies --     20.4698                41.7917                57.4265
 Red. masses --      5.9218                 7.2710                 3.4674
 Frc consts  --      0.0015                 0.0075                 0.0067
 IR Inten    --     13.1330                 3.6035                 5.3414

                      4                      5                      6
                      A                      A                      A
 Frequencies --     66.3869                84.7445                99.1374
 Red. masses --      4.5203                 2.4710                 1.0503
 Frc consts  --      0.0117                 0.0105                 0.0061
 IR Inten    --     17.6909                 8.5272                 0.9049

                      7                      8                      9
                      A                      A                      A
 Frequencies --    117.9805               125.3095               139.5075
 Red. masses --      1.5021                 1.5236                 5.1435
 Frc consts  --      0.0123                 0.0141                 0.0590
 IR Inten    --      1.3637                 1.7141                26.4640

                     10                     11                     12
                      A                      A                      A
 Frequencies --    150.9997               172.2512               213.1422
 Red. masses --      2.5415                 3.5316                 3.6528
 Frc consts  --      0.0341                 0.0617                 0.0978
 IR Inten    --      7.2160                 2.9197                 3.3920

                     13                     14                     15
                      A                      A                      A
 Frequencies --    224.4041               251.3533               287.0049
 Red. masses --      2.8917                 7.3056                 3.8223
 Frc consts  --      0.0858                 0.2719                 0.1855
 IR Inten    --      5.2692                 6.5853                 3.6577

                     16                     17                     18
                      A                      A                      A
 Frequencies --    320.2058               326.7744               345.0925
 Red. masses --      2.5575                 3.2295                 3.5726
 Frc consts  --      0.1545                 0.2032                 0.2507
 IR Inten    --      7.7706                 2.2125                 1.1512

                     19                     20                     21
                      A                      A                      A
 Frequencies --    351.3566               373.0827               401.4583
 Red. masses --      4.1804                 6.6828                 6.9919
 Frc consts  --      0.3041                 0.5480                 0.6639
 IR Inten    --      7.9224                 9.3343                 7.7580

                     22                     23                     24
                      A                      A                      A
 Frequencies --    411.4407               457.2505               520.0763
 Red. masses --      6.0651                 5.9307                 6.1657
 Frc consts  --      0.6049                 0.7306                 0.9826
 IR Inten    --      1.3721                10.4427                31.5780

                     25                     26                     27
                      A                      A                      A
 Frequencies --    528.8645               562.6233               575.4307
 Red. masses --      5.3220                 3.1737                 3.6234
 Frc consts  --      0.8770                 0.5919                 0.7069
 IR Inten    --      6.7130                 7.8795                 9.4029

                     28                     29                     30
                      A                      A                      A
 Frequencies --    578.1260               632.2680               646.2320
 Red. masses --      4.4197                 3.2832                 1.9022
 Frc consts  --      0.8703                 0.7733                 0.4681
 IR Inten    --     25.5034                 7.6093                92.3554

                     31                     32                     33
                      A                      A                      A
 Frequencies --    667.2902               677.3198               697.3574
 Red. masses --      3.6028                 2.9852                 2.5755
 Frc consts  --      0.9452                 0.8069                 0.7380
 IR Inten    --     13.6271                41.5314                12.5474

                     34                     35                     36
                      A                      A                      A
 Frequencies --    756.9142               791.9787               833.2402
 Red. masses --      5.3900                 4.8415                 3.2590
 Frc consts  --      1.8194                 1.7892                 1.3332
 IR Inten    --      7.8416                41.7618                61.6046

                     37                     38                     39
                      A                      A                      A
 Frequencies --    870.0162               925.6786               961.9697
 Red. masses --      2.7523                 2.6049                 2.1159
 Frc consts  --      1.2274                 1.3151                 1.1536
 IR Inten    --     14.2744                20.0501                38.1815

                     40                     41                     42
                      A                      A                      A
 Frequencies --    966.8326              1003.1570              1025.3496
 Red. masses --      2.1179                 2.2500                 2.1662
 Frc consts  --      1.1664                 1.3341                 1.3418
 IR Inten    --      3.0538                84.3658                84.3982

                     43                     44                     45
                      A                      A                      A
 Frequencies --   1029.9087              1045.8881              1050.2459
 Red. masses --      1.4171                 1.4737                 2.2425
 Frc consts  --      0.8856                 0.9498                 1.4573
 IR Inten    --      4.6096                 2.0037                 2.7597

                     46                     47                     48
                      A                      A                      A
 Frequencies --   1057.8475              1080.4795              1114.0001
 Red. masses --      1.5244                 2.2407                 4.4919
 Frc consts  --      1.0051                 1.5412                 3.2844
 IR Inten    --      5.9794               148.8996                10.3547

                     49                     50                     51
                      A                      A                      A
 Frequencies --   1152.4934              1214.9051              1230.6746
 Red. masses --      1.1582                 1.2877                 3.1978
 Frc consts  --      0.9064                 1.1198                 2.8536
 IR Inten    --      4.2869                10.4202               202.4393

                     52                     53                     54
                      A                      A                      A
 Frequencies --   1273.9767              1299.4125              1316.4837
 Red. masses --      4.7406                 1.3055                 1.7794
 Frc consts  --      4.5332                 1.2987                 1.8170
 IR Inten    --     70.4918                49.5003               124.6336

                     55                     56                     57
                      A                      A                      A
 Frequencies --   1331.3577              1335.1518              1371.0028
 Red. masses --      1.6498                 4.6233                 1.8367
 Frc consts  --      1.7230                 4.8558                 2.0341
 IR Inten    --    301.2537                21.6500               335.5444

                     58                     59                     60
                      A                      A                      A
 Frequencies --   1388.4145              1392.3684              1395.7993
 Red. masses --      1.3396                 4.6014                 1.2695
 Frc consts  --      1.5214                 5.2559                 1.4572
 IR Inten    --     93.4939               335.4150                 0.0674

                     61                     62                     63
                      A                      A                      A
 Frequencies --   1413.9782              1435.2889              1447.9444
 Red. masses --      2.7125                 3.4832                 1.1177
 Frc consts  --      3.1952                 4.2277                 1.3806
 IR Inten    --    741.0275                11.6467                17.3586

                     64                     65                     66
                      A                      A                      A
 Frequencies --   1460.0858              1462.1089              1465.0162
 Red. masses --      1.1426                 1.1165                 1.0807
 Frc consts  --      1.4352                 1.4063                 1.3665
 IR Inten    --      5.6704                67.5983                21.5693

                     67                     68                     69
                      A                      A                      A
 Frequencies --   1474.0787              1485.0026              1487.8537
 Red. masses --      1.0968                 1.0595                 1.1359
 Frc consts  --      1.4042                 1.3765                 1.4816
 IR Inten    --      3.6223                16.8256                34.9998

                     70                     71                     72
                      A                      A                      A
 Frequencies --   1498.1975              1560.3837              1577.3425
 Red. masses --      1.0609                 5.8658                 6.4689
 Frc consts  --      1.4030                 8.4147                 9.4827
 IR Inten    --     26.7270               223.9148               260.2326

                     73                     74                     75
                      A                      A                      A
 Frequencies --   1579.5721              2984.2447              2989.4307
 Red. masses --      7.7392                 1.0532                 1.0539
 Frc consts  --     11.3769                 5.5265                 5.5493
 IR Inten    --    805.9689               144.0105               123.4023

                     76                     77                     78
                      A                      A                      A
 Frequencies --   3006.9129              3016.0728              3035.4221
 Red. masses --      1.0434                 1.0652                 1.0859
 Frc consts  --      5.5586                 5.7092                 5.8950
 IR Inten    --     96.8896                43.4614                86.5803

                     79                     80                     81
                      A                      A                      A
 Frequencies --   3039.9377              3043.2363              3050.0674
 Red. masses --      1.0835                 1.0981                 1.0634
 Frc consts  --      5.8992                 5.9919                 5.8284
 IR Inten    --     64.8803                37.0433                62.0491

                     82                     83                     84
                      A                      A                      A
 Frequencies --   3057.4435              3111.6348              3112.5350
 Red. masses --      1.0956                 1.0946                 1.0964
 Frc consts  --      6.0341                 6.2441                 6.2585
 IR Inten    --     37.3637                14.9023                31.9630

                     85                     86                     87
                      A                      A                      A
 Frequencies --   3116.5671              3129.7063              3404.6098
 Red. masses --      1.1021                 1.0941                 1.0721
 Frc consts  --      6.3071                 6.3139                 7.3215
 IR Inten    --     14.7055                21.6196              1590.4828

 - Thermochemistry -
 -------------------
 Temperature   298.150 Kelvin.  Pressure   1.00000 Atm.
 Atom     1 has atomic number  6 and mass  12.00000

 Molecular mass:   254.06128 amu.
 Principal axes and moments of inertia in atomic units:
                           1         2         3
     Eigenvalues --  2266.944347248.680599117.71088
           X            0.79818  -0.60231  -0.01186
           Y            0.56229   0.75192  -0.34414
           Z            0.21620   0.26802   0.93884
 This molecule is an asymmetric top.
 Rotational symmetry number  1.
 Warning -- assumption of classical behavior for rotation
           may cause significant error
 Rotational temperatures (Kelvin)      0.03821     0.01195     0.00950
 Rotational constants (GHZ):           0.79611     0.24898     0.19794
 Zero-point vibrational energy     620768.5 (Joules/Mol)
                                  148.36722 (Kcal/Mol)
 Warning -- explicit consideration of  28 degrees of freedom as
           vibrations may cause significant error
 Vibrational temperatures:     29.45    60.13    82.62    95.52   121.93
          (Kelvin)            142.64   169.75   180.29   200.72   217.25
                              247.83   306.66   322.87   361.64   412.94
                              460.70   470.16   496.51   505.52   536.78
                              577.61   591.97   657.88   748.27   760.92
                              809.49   827.92   831.79   909.69   929.78
                              960.08   974.51  1003.34  1089.03  1139.48
                             1198.85  1251.76  1331.85  1384.06  1391.06
                             1443.32  1475.25  1481.81  1504.80  1511.07
                             1522.01  1554.57  1602.80  1658.18  1747.98
                             1770.67  1832.97  1869.56  1894.13  1915.53
                             1920.99  1972.57  1997.62  2003.31  2008.24
                             2034.40  2065.06  2083.27  2100.74  2103.65
                             2107.83  2120.87  2136.59  2140.69  2155.57
                             2245.04  2269.44  2272.65  4293.66  4301.12
                             4326.28  4339.46  4367.30  4373.79  4378.54
                             4388.37  4398.98  4476.95  4478.24  4484.04
                             4502.95  4898.47

 Zero-point correction=                           0.236438 (Hartree/Particle)
 Thermal correction to Energy=                    0.254602
 Thermal correction to Enthalpy=                  0.255546
 Thermal correction to Gibbs Free Energy=         0.188916
 Sum of electronic and zero-point Energies=          -1165.106891
 Sum of electronic and thermal Energies=             -1165.088727
 Sum of electronic and thermal Enthalpies=           -1165.087783
 Sum of electronic and thermal Free Energies=        -1165.154412

                     E (Thermal)             CV                S
                      KCal/Mol        Cal/Mol-Kelvin    Cal/Mol-Kelvin
 Total                  159.765             66.032            140.233
 Electronic               0.000              0.000              0.000
 Translational            0.889              2.981             42.497
 Rotational               0.889              2.981             33.371
 Vibrational            157.987             60.070             64.365
 Vibration     1          0.593              1.986              6.588
 Vibration     2          0.594              1.980              5.172
 Vibration     3          0.596              1.975              4.544
 Vibration     4          0.598              1.970              4.258
 Vibration     5          0.601              1.960              3.778
 Vibration     6          0.604              1.950              3.471
 Vibration     7          0.608              1.934              3.133
 Vibration     8          0.610              1.928              3.017
 Vibration     9          0.615              1.914              2.811
 Vibration    10          0.618              1.902              2.660
 Vibration    11          0.626              1.877              2.411
 Vibration    12          0.644              1.821              2.017
 Vibration    13          0.649              1.804              1.923
 Vibration    14          0.663              1.760              1.721
 Vibration    15          0.684              1.698              1.492
 Vibration    16          0.706              1.635              1.309
 Vibration    17          0.710              1.622              1.276
 Vibration    18          0.723              1.585              1.189
 Vibration    19          0.728              1.572              1.160
 Vibration    20          0.744              1.527              1.067
 Vibration    21          0.767              1.467              0.957
 Vibration    22          0.775              1.445              0.922
 Vibration    23          0.815              1.345              0.774
 Vibration    24          0.875              1.206              0.610
 Vibration    25          0.884              1.186              0.590
 Vibration    26          0.918              1.112              0.519
 Vibration    27          0.932              1.084              0.494
 Vibration    28          0.935              1.079              0.489

 Optimization completed.
    -- Stationary point found.
 Normal termination of Gaussian 16 at Sat Feb 10 14:39:47 2024.
