 Gaussian 16, Revision A.03,
 Gaussian 16:  ES64L-G16RevA.03 25-Dec-2016

 ----------------------------------------------------------------
 #P UB3LYP/6-311++G(d,p) SCRF=(PCM,Solvent=n,n-DiMethylFormamide)
 ----------------------------------------------------------------

 ------------------
 Quinone PCM in DMF
 ------------------
 Symbolic Z-matrix:
 Charge =  0 Multiplicity = 1

                         Standard orientation:
 ---------------------------------------------------------------------
 Center     Atomic      Atomic             Coordinates (Angstroms)
 Number     Number       Type             X           Y           Z
 ---------------------------------------------------------------------
      1          6           0        3.489878   -2.074343    0.020680
      2          8           0        2.765601   -0.851183    0.001478
      3          6           0        1.415265   -0.877280   -0.003756
      4          6           0        0.692041   -2.074680    0.000078
      5          6           0       -0.691975   -2.074691   -0.000120
      6          6           0       -1.415234   -0.877294   -0.003945
      7          8           0       -2.765591   -0.851241    0.000650
      8          6           0       -3.489854   -2.074406    0.017317
      9          6           0       -0.711774    0.352047   -0.008476
     10          6           0       -1.460173    1.650561   -0.008150
     11          8           0       -2.676579    1.737476   -0.062058
     12          6           0       -0.667157    2.898217    0.060304
     13          6           0        0.667250    2.898206    0.059217
     14          6           0        1.460118    1.650534   -0.010398
     15          8           0        2.676411    1.737430   -0.067048
     16          6           0        0.711780    0.352062   -0.008807
     17          1           0        4.539213   -1.785859    0.027452
     18          1           0        3.286049   -2.677090   -0.870918
     19          1           0        3.269002   -2.659474    0.920006
     20          1           0        1.208932   -3.023874    0.003367
     21          1           0       -1.208812   -3.023910    0.003028
     22          1           0       -4.539206   -1.785943    0.022974
     23          1           0       -3.284812   -2.676047   -0.874769
     24          1           0       -3.270237   -2.660660    0.916206
     25          1           0       -1.254052    3.809710    0.093454
     26          1           0        1.254203    3.809699    0.091362
 ---------------------------------------------------------------------

 SCF Done:  E(UB3LYP) =  -764.367247203     A.U. after   15 cycles

 The electronic state is 1-A.
 Alpha  occ. eigenvalues --  -19.17013 -19.17013 -19.12649 -19.12648 -10.28020
 Alpha  occ. eigenvalues --  -10.28019 -10.26299 -10.26298 -10.22835 -10.22834
 Alpha  occ. eigenvalues --  -10.21290 -10.21245 -10.20564 -10.20479 -10.20133
 Alpha  occ. eigenvalues --  -10.20075  -1.09176  -1.09065  -1.06065  -1.05906
 Alpha  occ. eigenvalues --   -0.88675  -0.83794  -0.78781  -0.78380  -0.73244
 Alpha  occ. eigenvalues --   -0.70378  -0.69529  -0.64943  -0.63921  -0.58435
 Alpha  occ. eigenvalues --   -0.55023  -0.54799  -0.52528  -0.52396  -0.49914
 Alpha  occ. eigenvalues --   -0.48809  -0.48366  -0.48095  -0.46234  -0.45053
 Alpha  occ. eigenvalues --   -0.44520  -0.43989  -0.42856  -0.42792  -0.41488
 Alpha  occ. eigenvalues --   -0.41416  -0.39651  -0.39497  -0.36491  -0.35769
 Alpha  occ. eigenvalues --   -0.35123  -0.31727  -0.30338  -0.28541  -0.27430
 Alpha  occ. eigenvalues --   -0.26440  -0.23120
 Alpha virt. eigenvalues --   -0.12212  -0.03868  -0.03747  -0.00763   0.00327
 Alpha virt. eigenvalues --    0.00411   0.01843   0.02284   0.02469   0.02838
 Alpha virt. eigenvalues --    0.03231   0.03997   0.04269   0.04701   0.05164

  Beta  occ. eigenvalues --  -19.17013 -19.17013 -19.12649 -19.12648 -10.28020
  Beta  occ. eigenvalues --  -10.28019 -10.26299 -10.26298 -10.22835 -10.22834
  Beta  occ. eigenvalues --  -10.21290 -10.21245 -10.20564 -10.20479 -10.20133
  Beta  occ. eigenvalues --  -10.20075  -1.09176  -1.09065  -1.06065  -1.05906
  Beta  occ. eigenvalues --   -0.88675  -0.83794  -0.78781  -0.78380  -0.73244
  Beta  occ. eigenvalues --   -0.70378  -0.69529  -0.64943  -0.63921  -0.58435
  Beta  occ. eigenvalues --   -0.55023  -0.54799  -0.52528  -0.52396  -0.49914
  Beta  occ. eigenvalues --   -0.48809  -0.48366  -0.48095  -0.46234  -0.45053
  Beta  occ. eigenvalues --   -0.44520  -0.43989  -0.42856  -0.42792  -0.41488
  Beta  occ. eigenvalues --   -0.41416  -0.39651  -0.39497  -0.36491  -0.35769
  Beta  occ. eigenvalues --   -0.35123  -0.31727  -0.30338  -0.28541  -0.27430
  Beta  occ. eigenvalues --   -0.26440  -0.23120
  Beta virt. eigenvalues --   -0.12212  -0.03868  -0.03747  -0.00763   0.00327
  Beta virt. eigenvalues --    0.00411   0.01843   0.02284   0.02469   0.02838
  Beta virt. eigenvalues --    0.03231   0.03997   0.04269   0.04701   0.05164

 Mulliken charges and spin densities:
               1          2
     1  C   -0.307589   0.000000
     2  O   -0.143632  -0.000000
     3  C    0.012810   0.000000
     4  C   -0.084010  -0.000000
     5  C   -0.084117  -0.000000
     6  C    0.015178   0.000000
     7  O   -0.143647  -0.000000
     8  C   -0.307482   0.000000
     9  C   -0.017157  -0.000000
    10  C   -0.001981   0.000000
    11  O   -0.318767  -0.000000
    12  C   -0.133312   0.000000
    13  C   -0.134117  -0.000000
    14  C   -0.001067  -0.000000
    15  O   -0.318798  -0.000000
    16  C   -0.017947   0.000000
    17  H    0.205308  -0.000000
    18  H    0.167349  -0.000000
    19  H    0.166243  -0.000000
    20  H    0.226160  -0.000000
    21  H    0.226155   0.000000
    22  H    0.205297  -0.000000
    23  H    0.167319  -0.000000
    24  H    0.166251  -0.000000
    25  H    0.227757   0.000000
    26  H    0.227797  -0.000000
 Sum of Mulliken charges =  -0.00000   0.00000

 Dipole moment (field-independent basis, Debye):
    X=              0.0003    Y=             -6.9908    Z=              0.3688  Tot=              7.0005
 Quadrupole moment (field-independent basis, Debye-Ang):
   XX=           -101.7433   YY=            -70.8179   ZZ=            -93.1633
   XY=             -0.0002   XZ=              0.0400   YZ=              0.6303

 Normal termination of Gaussian 16 at Sun Jan 21 08:05:45 2024.
