 Gaussian 16, Revision A.03,
 Gaussian 16:  ES64L-G16RevA.03 25-Dec-2016

 ----------------------------------------------------------------------
 #P UB3LYP/6-311++G(d,p) nosym opt freq SCRF=(PCM,Solvent=n,n-DiMethylF
 ormamide)
 ----------------------------------------------------------------------

 -------
 Radical
 -------
 Symbolic Z-matrix:
 Charge = -1 Multiplicity = 2

 SCF Done:  E(UB3LYP) =  -5757.91224700     A.U. after   17 cycles
 SCF Done:  E(UB3LYP) =  -5757.91264632     A.U. after   15 cycles
 SCF Done:  E(UB3LYP) =  -5757.91288931     A.U. after   13 cycles
 SCF Done:  E(UB3LYP) =  -5757.91295912     A.U. after   13 cycles
 SCF Done:  E(UB3LYP) =  -5757.91297596     A.U. after   12 cycles
 SCF Done:  E(UB3LYP) =  -5757.91298223     A.U. after   12 cycles
 SCF Done:  E(UB3LYP) =  -5757.91298461     A.U. after   11 cycles
 SCF Done:  E(UB3LYP) =  -5757.91298555     A.U. after   10 cycles
 SCF Done:  E(UB3LYP) =  -5757.91298575     A.U. after   10 cycles
 SCF Done:  E(UB3LYP) =  -5757.91298580     A.U. after    9 cycles
 SCF Done:  E(UB3LYP) =  -5757.91298583     A.U. after    9 cycles
 Optimization completed.
    -- Stationary point found.
 Normal termination of Gaussian 16 at Sat Feb 10 11:52:31 2024.

 ----------------------------------------------------------------------
 #P Geom=AllCheck Guess=TCheck SCRF=Check GenChk UB3LYP/6-311++G(d,p) F
 req
 ----------------------------------------------------------------------

 Structure from the checkpoint file:  "088-rad.chk"
 -------
 Radical
 -------
 Charge = -1 Multiplicity = 2

                          Input orientation:
 ---------------------------------------------------------------------
 Center     Atomic      Atomic             Coordinates (Angstroms)
 Number     Number       Type             X           Y           Z
 ---------------------------------------------------------------------
      1          6           0        1.850364    0.918338   -0.667673
      2          6           0        0.567636    1.408402   -0.186714
      3          6           0       -0.463197    0.563407    0.150225
      4          6           0       -0.356296   -0.882549    0.028346
      5          6           0        0.931585   -1.375094   -0.450233
      6          6           0        1.960363   -0.532122   -0.785578
      7          8           0        2.814239    1.673162   -0.948736
      8          8           0       -1.300441   -1.667812    0.293233
      9          8           0        3.166773   -1.055483   -1.171541
     10          6           0        3.484437   -0.903784   -2.566108
     11         35           0        0.426966    3.311784   -0.028409
     12         35           0       -2.151320    1.208376    0.783767
     13          1           0        4.477481   -1.331101   -2.700827
     14          1           0        3.494328    0.150128   -2.848793
     15          1           0        2.764092   -1.452418   -3.180713
     16          8           0        1.073125   -2.724655   -0.641118
     17          6           0        1.192748   -3.506540    0.560274
     18          1           0        1.257586   -4.546370    0.241794
     19          1           0        0.319511   -3.369762    1.200129
     20          1           0        2.103792   -3.232814    1.101333
 ---------------------------------------------------------------------

 SCF Done:  E(UB3LYP) =  -5757.91298583     A.U. after    1 cycles

 Alpha  occ. eigenvalues -- -482.83167-482.83165 -62.48440 -62.48439 -56.30474
 Alpha  occ. eigenvalues --  -56.30473 -56.30105 -56.30104 -56.30064 -56.30063
 Alpha  occ. eigenvalues --  -19.14283 -19.14269 -19.09175 -19.09169 -10.24317
 Alpha  occ. eigenvalues --  -10.24310 -10.23309 -10.23249 -10.22946 -10.22882
 Alpha  occ. eigenvalues --  -10.21265 -10.21261  -8.69408  -8.69407  -6.52541
 Alpha  occ. eigenvalues --   -6.52540  -6.51305  -6.51304  -6.51189  -6.51188
 Alpha  occ. eigenvalues --   -2.63639  -2.63637  -2.63304  -2.63302  -2.63217
 Alpha  occ. eigenvalues --   -2.63215  -2.62230  -2.62229  -2.62229  -2.62228
 Alpha  occ. eigenvalues --   -1.06931  -1.04970  -1.01485  -1.01169  -0.86499
 Alpha  occ. eigenvalues --   -0.80211  -0.79612  -0.73505  -0.71713  -0.67493
 Alpha  occ. eigenvalues --   -0.67170  -0.58731  -0.58261  -0.53059  -0.50695
 Alpha  occ. eigenvalues --   -0.49614  -0.47655  -0.45091  -0.44614  -0.44525
 Alpha  occ. eigenvalues --   -0.43717  -0.42472  -0.42060  -0.39958  -0.39300
 Alpha  occ. eigenvalues --   -0.38857  -0.36142  -0.35710  -0.34009  -0.30924
 Alpha  occ. eigenvalues --   -0.30672  -0.29425  -0.29392  -0.27886  -0.27390
 Alpha  occ. eigenvalues --   -0.25353  -0.25286  -0.23963  -0.17476
 Alpha virt. eigenvalues --   -0.03770  -0.01905  -0.00099   0.00666   0.00879
 Alpha virt. eigenvalues --    0.01523   0.01905   0.02600   0.03027   0.03879
 Alpha virt. eigenvalues --    0.03945   0.04585   0.04894   0.06054   0.06096

  Beta  occ. eigenvalues -- -482.83165-482.83164 -62.48438 -62.48437 -56.30476
  Beta  occ. eigenvalues --  -56.30475 -56.30098 -56.30097 -56.30063 -56.30062
  Beta  occ. eigenvalues --  -19.14272 -19.14258 -19.08501 -19.08495 -10.24178
  Beta  occ. eigenvalues --  -10.24171 -10.23152 -10.23090 -10.22877 -10.22813
  Beta  occ. eigenvalues --  -10.21260 -10.21256  -8.69405  -8.69404  -6.52545
  Beta  occ. eigenvalues --   -6.52544  -6.51292  -6.51290  -6.51188  -6.51187
  Beta  occ. eigenvalues --   -2.63639  -2.63638  -2.63298  -2.63296  -2.63219
  Beta  occ. eigenvalues --   -2.63217  -2.62223  -2.62222  -2.62222  -2.62221
  Beta  occ. eigenvalues --   -1.06827  -1.04827  -1.00375  -1.00075  -0.86026
  Beta  occ. eigenvalues --   -0.79980  -0.79446  -0.73340  -0.71434  -0.67055
  Beta  occ. eigenvalues --   -0.66700  -0.58400  -0.57897  -0.52885  -0.50493
  Beta  occ. eigenvalues --   -0.49451  -0.47280  -0.44924  -0.44378  -0.44246
  Beta  occ. eigenvalues --   -0.43629  -0.41763  -0.40724  -0.39467  -0.39119
  Beta  occ. eigenvalues --   -0.36557  -0.35975  -0.35504  -0.32672  -0.30864
  Beta  occ. eigenvalues --   -0.30283  -0.29151  -0.29093  -0.27746  -0.25239
  Beta  occ. eigenvalues --   -0.24834  -0.24726  -0.23376
  Beta virt. eigenvalues --   -0.10437  -0.03626  -0.00760   0.00211   0.00832
  Beta virt. eigenvalues --    0.01149   0.01597   0.02632   0.03068   0.03834
  Beta virt. eigenvalues --    0.03903   0.04150   0.04663   0.04920   0.06111

 Mulliken charges and spin densities:
               1          2
     1  C   -0.360393   0.067958
     2  C    0.276768   0.097900
     3  C    0.281208   0.097440
     4  C   -0.369265   0.068307
     5  C    0.084430   0.077933
     6  C    0.097684   0.078006
     7  O   -0.417904   0.247101
     8  O   -0.417987   0.247214
     9  O   -0.181386  -0.000860
    10  C   -0.281441   0.002101
    11  Br  -0.112669   0.007310
    12  Br  -0.112670   0.007310
    13  H    0.161607   0.000441
    14  H    0.170533  -0.000111
    15  H    0.155915   0.000143
    16  O   -0.181451  -0.000752
    17  C   -0.281008   0.002076
    18  H    0.161533   0.000435
    19  H    0.171045  -0.000086
    20  H    0.155450   0.000134
 Sum of Mulliken charges =  -1.00000   1.00000

 Dipole moment (field-independent basis, Debye):
    X=             -1.9981    Y=             -2.3299    Z=              0.8555  Tot=              3.1864
 Quadrupole moment (field-independent basis, Debye-Ang):
   XX=           -134.7392   YY=           -126.2933   ZZ=           -106.1299
   XY=            -15.8348   XZ=              3.6950   YZ=              0.1557

  Exact polarizability: 274.244  26.113 282.017 -54.166  -5.777 154.396
 Approx polarizability: 308.191  47.550 303.633 -55.836 -10.414 170.346

                      1                      2                      3
                      A                      A                      A
 Frequencies --     45.8197                56.9371                69.6941
 Red. masses --      6.2221                 4.0790                 3.9892
 Frc consts  --      0.0077                 0.0078                 0.0114
 IR Inten    --      1.8084                12.9272                 8.4074

                      4                      5                      6
                      A                      A                      A
 Frequencies --     78.1154               102.2979               133.7252
 Red. masses --      3.4994                 5.8698                42.4322
 Frc consts  --      0.0126                 0.0362                 0.4471
 IR Inten    --     13.1008                 1.7245                 1.1583

                      7                      8                      9
                      A                      A                      A
 Frequencies --    148.4735               153.5004               158.3607
 Red. masses --      1.1242                 1.0823                 6.0612
 Frc consts  --      0.0146                 0.0150                 0.0896
 IR Inten    --      0.9010                 0.3427                 5.4150

                     10                     11                     12
                      A                      A                      A
 Frequencies --    197.7176               220.7375               233.4962
 Red. masses --      8.1894                 7.9955                 5.9574
 Frc consts  --      0.1886                 0.2295                 0.1914
 IR Inten    --      3.8582                 1.6577                 4.6346

                     13                     14                     15
                      A                      A                      A
 Frequencies --    273.0192               294.4344               336.1738
 Red. masses --     11.8801                 9.4256                 7.6313
 Frc consts  --      0.5217                 0.4814                 0.5081
 IR Inten    --      0.7117                13.3909                 5.3987

                     16                     17                     18
                      A                      A                      A
 Frequencies --    349.9658               387.1106               418.6102
 Red. masses --     11.6315                12.0096                 9.1719
 Frc consts  --      0.8393                 1.0604                 0.9470
 IR Inten    --      5.1124                 2.8497                 3.5104

                     19                     20                     21
                      A                      A                      A
 Frequencies --    444.4279               495.6228               539.4339
 Red. masses --      7.8153                13.6848                 7.1243
 Frc consts  --      0.9095                 1.9806                 1.2214
 IR Inten    --      2.9130                10.9459                11.6682

                     22                     23                     24
                      A                      A                      A
 Frequencies --    619.3084               732.2793               744.8770
 Red. masses --      9.6738                11.1013                10.5474
 Frc consts  --      2.1861                 3.5073                 3.4480
 IR Inten    --      1.9014                26.0604               109.2395

                     25                     26                     27
                      A                      A                      A
 Frequencies --    752.6673               784.2215               818.6932
 Red. masses --     11.2904                 8.6379                10.5614
 Frc consts  --      3.7685                 3.1299                 4.1708
 IR Inten    --      6.3293                63.4068               190.8657

                     28                     29                     30
                      A                      A                      A
 Frequencies --    951.9831               983.8571              1081.0086
 Red. masses --      8.5351                 7.9737                12.4976
 Frc consts  --      4.5574                 4.5475                 8.6047
 IR Inten    --     89.2965                24.1220               149.6794

                     31                     32                     33
                      A                      A                      A
 Frequencies --   1112.3967              1157.9227              1161.0109
 Red. masses --      8.7295                 1.2925                 1.2662
 Frc consts  --      6.3644                 1.0210                 1.0056
 IR Inten    --     60.1523                71.6544                10.0026

                     34                     35                     36
                      A                      A                      A
 Frequencies --   1182.8860              1184.1778              1228.8198
 Red. masses --      2.1264                 2.7254                 2.4628
 Frc consts  --      1.7530                 2.2517                 2.1910
 IR Inten    --    296.9633               170.6687               269.8421

                     37                     38                     39
                      A                      A                      A
 Frequencies --   1230.2858              1352.4113              1447.1228
 Red. masses --      2.6514                 6.7101                 1.9712
 Frc consts  --      2.3645                 7.2309                 2.4322
 IR Inten    --    392.2503                13.4180                 9.4363

                     40                     41                     42
                      A                      A                      A
 Frequencies --   1466.2818              1470.3869              1477.0891
 Red. masses --      1.2608                 2.2194                 1.0699
 Frc consts  --      1.5971                 2.8271                 1.3754
 IR Inten    --    115.5682                 0.9395                 3.3623

                     43                     44                     45
                      A                      A                      A
 Frequencies --   1478.2742              1495.5825              1496.9991
 Red. masses --      1.0753                 1.0482                 1.0497
 Frc consts  --      1.3845                 1.3814                 1.3860
 IR Inten    --     12.5206                10.6998                 8.2472

                     46                     47                     48
                      A                      A                      A
 Frequencies --   1514.1263              1546.2042              1611.2037
 Red. masses --      8.6256                11.3437                10.2102
 Frc consts  --     11.6511                15.9786                15.6166
 IR Inten    --   1112.5285               175.2151                 0.8895

                     49                     50                     51
                      A                      A                      A
 Frequencies --   3019.2990              3020.0852              3095.5745
 Red. masses --      1.0344                 1.0346                 1.1008
 Frc consts  --      5.5558                 5.5596                 6.2152
 IR Inten    --    132.5982                61.9340                49.7659

                     52                     53                     54
                      A                      A                      A
 Frequencies --   3096.0249              3131.5384              3131.7223
 Red. masses --      1.1002                 1.1051                 1.1052
 Frc consts  --      6.2135                 6.3850                 6.3865
 IR Inten    --     31.0756                28.3431                44.5691

 - Thermochemistry -
 -------------------
 Temperature   298.150 Kelvin.  Pressure   1.00000 Atm.
 Atom     1 has atomic number  6 and mass  12.00000

 Molecular mass:   323.86328 amu.
 Principal axes and moments of inertia in atomic units:
                           1         2         3
     Eigenvalues --  3606.642705618.299288937.47009
           X           -0.56526   0.72584   0.39197
           Y            0.78802   0.61564  -0.00363
           Z            0.24395  -0.30683   0.91997
 This molecule is an asymmetric top.
 Rotational symmetry number  1.
 Warning -- assumption of classical behavior for rotation
           may cause significant error
 Rotational temperatures (Kelvin)      0.02402     0.01542     0.00969
 Rotational constants (GHZ):           0.50039     0.32123     0.20193
 Zero-point vibrational energy     333243.7 (Joules/Mol)
                                   79.64716 (Kcal/Mol)
 Warning -- explicit consideration of  22 degrees of freedom as
           vibrations may cause significant error
 Vibrational temperatures:     65.92    81.92   100.27   112.39   147.18
          (Kelvin)            192.40   213.62   220.85   227.85   284.47
                              317.59   335.95   392.81   423.63   483.68
                              503.52   556.97   602.29   639.43   713.09
                              776.13   891.05  1053.59  1071.71  1082.92
                             1128.32  1177.92  1369.69  1415.55  1555.33
                             1600.49  1665.99  1670.44  1701.91  1703.77
                             1768.00  1770.11  1945.82  2082.09  2109.65
                             2115.56  2125.20  2126.91  2151.81  2153.85
                             2178.49  2224.64  2318.16  4344.10  4345.23
                             4453.84  4454.49  4505.59  4505.85

 Zero-point correction=                           0.126926 (Hartree/Particle)
 Thermal correction to Energy=                    0.141732
 Thermal correction to Enthalpy=                  0.142676
 Thermal correction to Gibbs Free Energy=         0.082009
 Sum of electronic and zero-point Energies=          -5757.786060
 Sum of electronic and thermal Energies=             -5757.771254
 Sum of electronic and thermal Enthalpies=           -5757.770310
 Sum of electronic and thermal Free Energies=        -5757.830977

                     E (Thermal)             CV                S
                      KCal/Mol        Cal/Mol-Kelvin    Cal/Mol-Kelvin
 Total                   88.938             50.244            127.685
 Electronic               0.000              0.000              1.377
 Translational            0.889              2.981             43.221
 Rotational               0.889              2.981             33.559
 Vibrational             87.161             44.282             49.527
 Vibration     1          0.595              1.979              4.990
 Vibration     2          0.596              1.975              4.561
 Vibration     3          0.598              1.969              4.162
 Vibration     4          0.599              1.964              3.938
 Vibration     5          0.604              1.947              3.410
 Vibration     6          0.613              1.920              2.892
 Vibration     7          0.618              1.904              2.692
 Vibration     8          0.619              1.899              2.628
 Vibration     9          0.621              1.893              2.569
 Vibration    10          0.637              1.843              2.154
 Vibration    11          0.647              1.810              1.953
 Vibration    12          0.654              1.790              1.852
 Vibration    13          0.676              1.723              1.577
 Vibration    14          0.689              1.684              1.448
 Vibration    15          0.717              1.603              1.230
 Vibration    16          0.727              1.575              1.166
 Vibration    17          0.756              1.498              1.011
 Vibration    18          0.781              1.430              0.897
 Vibration    19          0.804              1.373              0.813
 Vibration    20          0.851              1.260              0.669
 Vibration    21          0.894              1.163              0.567
 Vibration    22          0.979              0.991              0.418

 Optimization completed.
    -- Stationary point found.
 Normal termination of Gaussian 16 at Sat Feb 10 12:29:43 2024.
