 Q-Chem 5.4, Q-Chem, Inc., Pleasanton, CA (2021)
 Q-Chem 5.4.0 for Intel X86 EM64T Linux

User input:
--------------------------------------------------------------
$molecule
0 1
I                 -2.8062370000     -2.0734520000      0.0042450000
C                 -1.1866600000     -0.7439190000      0.0002450000
C                 -1.3591830000      0.5853330000     -0.0163410000
C                 -0.2019830000      1.5118870000     -0.0189250000
O                 -0.3631960000      2.7202600000     -0.0340380000
C                  1.1577430000      0.9215270000     -0.0025490000
C                  1.3404370000     -0.4064380000      0.0141330000
I                  3.2519420000     -1.2640150000      0.0377010000
C                  0.1825790000     -1.3668940000      0.0170830000
O                  0.3423760000     -2.5646080000      0.0319820000
H                 -2.3362900000      1.0521950000     -0.0285930000
H                  1.9784690000      1.6281260000     -0.0049430000
$end
$rem
MAX_SCF_CYCLES=200
BASIS  =  6-311++G(d,p)
GUI  =  2
JOB_TYPE  =  SP
METHOD  =  B3LYP
SOLVENT_METHOD = COSMO
$end
$solvent
dielectric 37.219
opticaldielectric 1.43
$end

--------------------------------------------------------------

             Standard Nuclear Orientation (Angstroms)
    I     Atom           X                Y                Z
 ----------------------------------------------------------------
    1      I       3.0560432666    -0.6119837730    -0.0000226135
    2      C       1.2747098253     0.4914448953     0.0000194539
    3      C       1.2697717886     1.8319394962    -0.0000176290
    4      C       0.0000938732     2.5971445813     0.0000096456
    5      O      -0.0000547197     3.8163177923    -0.0000197283
    6      C      -1.2695456584     1.8318581305     0.0000867418
    7      C      -1.2748598485     0.4912917623     0.0000848135
    8      I      -3.0560627826    -0.6119585359    -0.0000329891
    9      C      -0.0000421787    -0.3074318991     0.0000797454
   10      O       0.0000995463    -1.5158506407     0.0001895846
   11      H       2.1764999337     2.4241323657    -0.0000828718
   12      H      -2.1765910076     2.4235909922     0.0000943347
 ----------------------------------------------------------------

    9  -14219.3854362942      6.69e-06  Convergence criterion met
 Total energy in the final basis set =   -14219.3854362942
    5  -14219.3987335112      4.13e-06  Convergence criterion met
 Total energy in the final basis set =   -14219.3987335112

                    Orbital Energies (a.u.)
 --------------------------------------------------------------

 Alpha MOs
 -- Occupied --
*****************-176.3166-176.3166-165.7204-165.7204-165.7183-165.7183
********-165.7181 -35.8131 -35.8131 -31.3063 -31.3063 -31.3004 -31.3004
-31.3000 -31.2999 -22.9568 -22.9567 -22.9555 -22.9555 -22.9552 -22.9551
-22.9510 -22.9510 -22.9510 -22.9510 -19.1638 -19.1547 -10.3163 -10.3012
-10.2641 -10.2641 -10.2254 -10.2254  -6.3625  -6.3625  -4.7749  -4.7749
 -4.7606  -4.7606  -4.7595  -4.7595  -2.0407  -2.0407  -2.0365  -2.0365
 -2.0356  -2.0355  -2.0233  -2.0232  -2.0230  -2.0230  -1.1006  -1.0852
 -0.8848  -0.8216  -0.7351  -0.6935  -0.6772  -0.6088  -0.6049  -0.5470
 -0.5239  -0.4847  -0.4711  -0.4594  -0.4537  -0.4382  -0.4127  -0.3924
 -0.3502  -0.3442  -0.3137  -0.2992  -0.2854  -0.2785  -0.2756  -0.2667

          Ground-State Mulliken Net Atomic Charges

     Atom                 Charge (a.u.)
  ----------------------------------------
      1 I                     0.078632
      2 C                     1.174033
      3 C                    -0.399417
      4 C                    -0.079712
      5 O                    -0.308063
      6 C                    -0.397867
      7 C                     1.173454
      8 I                     0.078598
      9 C                    -1.668369
     10 O                    -0.163707
     11 H                     0.256311
     12 H                     0.256106
  ----------------------------------------
  Sum of atomic charges =     0.000000

                    Cartesian Multipole Moments
 -----------------------------------------------------------------
    Charge (ESU x 10^10)
                 0.0000
    Dipole Moment (Debye)
         X      -0.0010      Y       0.4769      Z       0.0002
       Tot       0.4769
    Quadrupole Moments (Debye-Ang)
        XX     -91.0875     XY       0.0035     YY    -119.1366
        XZ       0.0017     YZ       0.0006     ZZ    -101.4365

 Total job time:  107.84s(wall), 122.60s(cpu)
        *  Thank you very much for using Q-Chem.  Have a nice day.  *
