 Gaussian 16, Revision A.03,
 Gaussian 16:  ES64L-G16RevA.03 25-Dec-2016

 ----------------------------------------------------------------
 #P UB3LYP/6-311++G(d,p) SCRF=(PCM,Solvent=n,n-DiMethylFormamide)
 ----------------------------------------------------------------

 ------------------
 Quinone PCM in DMF
 ------------------
 Symbolic Z-matrix:
 Charge =  0 Multiplicity = 1

                         Standard orientation:
 ---------------------------------------------------------------------
 Center     Atomic      Atomic             Coordinates (Angstroms)
 Number     Number       Type             X           Y           Z
 ---------------------------------------------------------------------
      1          7           0       -2.583320   -2.791692   -0.135250
      2          6           0       -2.493498   -1.428179   -0.049542
      3          6           0       -3.698430   -0.682506   -0.026613
      4          6           0       -3.698391    0.682602    0.026565
      5          6           0       -2.493437    1.428204    0.049628
      6          7           0       -2.583207    2.791767    0.135668
      7          6           0       -1.268074    0.717548    0.018873
      8          6           0        0.000018    1.453344    0.000010
      9          8           0        0.000016    2.710176    0.000067
     10          6           0        1.268095    0.717526   -0.018847
     11          6           0        2.493457    1.428168   -0.049615
     12          7           0        2.583267    2.791714   -0.135548
     13          6           0        3.698409    0.682539   -0.026682
     14          6           0        3.698410   -0.682564    0.026603
     15          6           0        2.493474   -1.428198    0.049658
     16          7           0        2.583299   -2.791705    0.135797
     17          6           0        1.268074   -0.717599    0.018760
     18          6           0       -0.000033   -1.453373   -0.000146
     19          8           0       -0.000084   -2.710221   -0.000464
     20          6           0       -1.268096   -0.717547   -0.018759
     21          1           0       -1.723331   -3.313126   -0.017058
     22          1           0       -3.469562   -3.225806    0.060947
     23          1           0       -4.641573   -1.219359   -0.053418
     24          1           0       -4.641507    1.219507    0.053236
     25          1           0       -3.469195    3.225862   -0.061809
     26          1           0       -1.723181    3.312980    0.016704
     27          1           0        3.469430    3.225819    0.061094
     28          1           0        1.723318    3.313070   -0.016679
     29          1           0        4.641523    1.219435   -0.053574
     30          1           0        4.641526   -1.219463    0.053332
     31          1           0        1.723408   -3.313121    0.016839
     32          1           0        3.469541   -3.225810   -0.060466
 ---------------------------------------------------------------------

 SCF Done:  E(UB3LYP) =  -910.494362392     A.U. after   14 cycles

 The electronic state is 1-A.
 Alpha  occ. eigenvalues --  -19.10658 -19.10658 -14.32290 -14.32289 -14.32289
 Alpha  occ. eigenvalues --  -14.32288 -10.26129 -10.26128 -10.23306 -10.23306
 Alpha  occ. eigenvalues --  -10.23304 -10.23304 -10.19082 -10.19080 -10.19040
 Alpha  occ. eigenvalues --  -10.19040 -10.19027 -10.19027 -10.18960 -10.18960
 Alpha  occ. eigenvalues --   -1.04073  -1.03842  -0.93952  -0.93448  -0.92891
 Alpha  occ. eigenvalues --   -0.92397  -0.85451  -0.83596  -0.79942  -0.76384
 Alpha  occ. eigenvalues --   -0.74246  -0.72766  -0.67744  -0.65772  -0.65621
 Alpha  occ. eigenvalues --   -0.60685  -0.58540  -0.58306  -0.56334  -0.54408
 Alpha  occ. eigenvalues --   -0.53314  -0.52396  -0.51027  -0.50431  -0.49880
 Alpha  occ. eigenvalues --   -0.48639  -0.46743  -0.46249  -0.45658  -0.44775
 Alpha  occ. eigenvalues --   -0.43504  -0.42980  -0.41702  -0.41322  -0.41082
 Alpha  occ. eigenvalues --   -0.40751  -0.39217  -0.38536  -0.37517  -0.37211
 Alpha  occ. eigenvalues --   -0.36389  -0.34873  -0.29385  -0.28020  -0.27440
 Alpha  occ. eigenvalues --   -0.27009  -0.26670  -0.26075  -0.20881  -0.18559
 Alpha virt. eigenvalues --   -0.09970  -0.04295  -0.03075  -0.00636  -0.00030
 Alpha virt. eigenvalues --    0.00223   0.01076   0.01264   0.01483   0.02913
 Alpha virt. eigenvalues --    0.03153   0.03685   0.03960   0.04013   0.05223

  Beta  occ. eigenvalues --  -19.10658 -19.10658 -14.32290 -14.32289 -14.32289
  Beta  occ. eigenvalues --  -14.32288 -10.26129 -10.26128 -10.23306 -10.23306
  Beta  occ. eigenvalues --  -10.23304 -10.23304 -10.19082 -10.19080 -10.19040
  Beta  occ. eigenvalues --  -10.19040 -10.19027 -10.19027 -10.18960 -10.18960
  Beta  occ. eigenvalues --   -1.04073  -1.03842  -0.93952  -0.93448  -0.92891
  Beta  occ. eigenvalues --   -0.92397  -0.85451  -0.83596  -0.79942  -0.76384
  Beta  occ. eigenvalues --   -0.74246  -0.72766  -0.67744  -0.65772  -0.65621
  Beta  occ. eigenvalues --   -0.60685  -0.58540  -0.58306  -0.56334  -0.54408
  Beta  occ. eigenvalues --   -0.53314  -0.52396  -0.51027  -0.50431  -0.49880
  Beta  occ. eigenvalues --   -0.48639  -0.46743  -0.46249  -0.45658  -0.44775
  Beta  occ. eigenvalues --   -0.43504  -0.42980  -0.41702  -0.41322  -0.41082
  Beta  occ. eigenvalues --   -0.40751  -0.39217  -0.38536  -0.37517  -0.37211
  Beta  occ. eigenvalues --   -0.36389  -0.34873  -0.29385  -0.28020  -0.27440
  Beta  occ. eigenvalues --   -0.27009  -0.26670  -0.26075  -0.20881  -0.18559
  Beta virt. eigenvalues --   -0.09970  -0.04295  -0.03075  -0.00636  -0.00030
  Beta virt. eigenvalues --    0.00223   0.01076   0.01264   0.01483   0.02913
  Beta virt. eigenvalues --    0.03153   0.03685   0.03960   0.04013   0.05223

 Mulliken charges and spin densities:
               1          2
     1  N   -0.414698   0.000000
     2  C   -0.054318   0.000000
     3  C   -0.334269  -0.000000
     4  C   -0.334325  -0.000000
     5  C   -0.054956   0.000000
     6  N   -0.414344  -0.000000
     7  C    0.514628  -0.000000
     8  C   -0.646908  -0.000000
     9  O   -0.391373   0.000000
    10  C    0.514554  -0.000000
    11  C   -0.054681   0.000000
    12  N   -0.414477   0.000000
    13  C   -0.334010  -0.000000
    14  C   -0.333966   0.000000
    15  C   -0.055020   0.000000
    16  N   -0.414427  -0.000000
    17  C    0.514544  -0.000000
    18  C   -0.646674   0.000000
    19  O   -0.391486   0.000000
    20  C    0.514191  -0.000000
    21  H    0.333376  -0.000000
    22  H    0.281952  -0.000000
    23  H    0.192804  -0.000000
    24  H    0.192816  -0.000000
    25  H    0.281810   0.000000
    26  H    0.333272   0.000000
    27  H    0.281896  -0.000000
    28  H    0.333291  -0.000000
    29  H    0.192807  -0.000000
    30  H    0.192793   0.000000
    31  H    0.333290   0.000000
    32  H    0.281907  -0.000000
 Sum of Mulliken charges =  -0.00000  -0.00000

 Dipole moment (field-independent basis, Debye):
    X=              0.0007    Y=             -0.0025    Z=             -0.0024  Tot=              0.0036
 Quadrupole moment (field-independent basis, Debye-Ang):
   XX=            -67.9516   YY=           -103.9986   ZZ=           -124.5842
   XY=              0.0064   XZ=              0.0130   YZ=             -0.0054

 Normal termination of Gaussian 16 at Sun Jan 14 01:08:47 2024.
