 Gaussian 16, Revision A.03,
 Gaussian 16:  ES64L-G16RevA.03 25-Dec-2016

 ----------------------------------------------------------------
 #P UB3LYP/6-311++G(d,p) SCRF=(PCM,Solvent=n,n-DiMethylFormamide)
 ----------------------------------------------------------------

 ------------------
 Quinone PCM in DMF
 ------------------
 Symbolic Z-matrix:
 Charge =  0 Multiplicity = 1

                         Standard orientation:
 ---------------------------------------------------------------------
 Center     Atomic      Atomic             Coordinates (Angstroms)
 Number     Number       Type             X           Y           Z
 ---------------------------------------------------------------------
      1          6           0       -3.961816   -2.289154    0.000353
      2          8           0       -2.582760   -1.939003   -0.000127
      3          6           0       -2.220835   -0.638781    0.000024
      4          6           0       -3.175079    0.399994    0.000517
      5          6           0       -2.796890    1.723999    0.000589
      6          6           0       -1.440995    2.079321    0.000175
      7          8           0       -1.146995    3.386612    0.000094
      8          6           0       -0.461774    1.060075   -0.000172
      9          6           0        0.952759    1.460810   -0.000455
     10          8           0        1.281008    2.658639   -0.000870
     11          6           0        1.993279    0.413393   -0.000127
     12          6           0        3.344809    0.781204    0.000278
     13          6           0        4.329142   -0.197334    0.000673
     14          6           0        3.970581   -1.549357    0.000647
     15          6           0        2.631178   -1.918630    0.000202
     16          6           0        1.631628   -0.940651   -0.000163
     17          6           0        0.197276   -1.378353   -0.000556
     18          8           0       -0.059617   -2.570808   -0.001032
     19          6           0       -0.848285   -0.315351   -0.000271
     20          1           0       -3.979648   -3.377242    0.000381
     21          1           0       -4.471210   -1.918952    0.896280
     22          1           0       -4.471814   -1.918965   -0.895228
     23          1           0       -4.229450    0.161789    0.000804
     24          1           0       -3.535563    2.516280    0.000907
     25          1           0       -0.159280    3.457440   -0.000445
     26          1           0        3.596060    1.834260    0.000282
     27          1           0        5.375249    0.086831    0.001029
     28          1           0        4.740403   -2.312862    0.001000
     29          1           0        2.332292   -2.959204    0.000169
 ---------------------------------------------------------------------

 SCF Done:  E(UB3LYP) =  -878.770189180     A.U. after   15 cycles

 The electronic state is 1-A.
 Alpha  occ. eigenvalues --  -19.17201 -19.16179 -19.14004 -19.12268 -10.28944
 Alpha  occ. eigenvalues --  -10.28056 -10.26632 -10.26519 -10.22920 -10.21331
 Alpha  occ. eigenvalues --  -10.21282 -10.20872 -10.20786 -10.20492 -10.20138
 Alpha  occ. eigenvalues --  -10.19917 -10.19883 -10.19797 -10.19632  -1.09331
 Alpha  occ. eigenvalues --   -1.09203  -1.06141  -1.05858  -0.89444  -0.88022
 Alpha  occ. eigenvalues --   -0.81709  -0.78453  -0.77812  -0.77344  -0.71771
 Alpha  occ. eigenvalues --   -0.69767  -0.66715  -0.65591  -0.61698  -0.60100
 Alpha  occ. eigenvalues --   -0.56864  -0.56394  -0.54846  -0.52680  -0.50511
 Alpha  occ. eigenvalues --   -0.49735  -0.48880  -0.48664  -0.46605  -0.46161
 Alpha  occ. eigenvalues --   -0.46150  -0.45251  -0.44737  -0.44167  -0.43149
 Alpha  occ. eigenvalues --   -0.42831  -0.41691  -0.41298  -0.39078  -0.38430
 Alpha  occ. eigenvalues --   -0.38276  -0.37366  -0.36938  -0.35462  -0.32490
 Alpha  occ. eigenvalues --   -0.29399  -0.29316  -0.27961  -0.27880  -0.26740
 Alpha  occ. eigenvalues --   -0.23307
 Alpha virt. eigenvalues --   -0.12052  -0.06919  -0.04085  -0.01566  -0.00712
 Alpha virt. eigenvalues --   -0.00049   0.00674   0.01436   0.01838   0.02958
 Alpha virt. eigenvalues --    0.03237   0.03285   0.03573   0.03700   0.04037

  Beta  occ. eigenvalues --  -19.17201 -19.16179 -19.14004 -19.12268 -10.28944
  Beta  occ. eigenvalues --  -10.28056 -10.26632 -10.26519 -10.22920 -10.21331
  Beta  occ. eigenvalues --  -10.21282 -10.20872 -10.20786 -10.20492 -10.20138
  Beta  occ. eigenvalues --  -10.19917 -10.19883 -10.19797 -10.19632  -1.09331
  Beta  occ. eigenvalues --   -1.09203  -1.06141  -1.05858  -0.89444  -0.88022
  Beta  occ. eigenvalues --   -0.81709  -0.78453  -0.77812  -0.77344  -0.71771
  Beta  occ. eigenvalues --   -0.69767  -0.66715  -0.65591  -0.61698  -0.60100
  Beta  occ. eigenvalues --   -0.56864  -0.56394  -0.54846  -0.52680  -0.50511
  Beta  occ. eigenvalues --   -0.49735  -0.48880  -0.48664  -0.46605  -0.46161
  Beta  occ. eigenvalues --   -0.46150  -0.45251  -0.44737  -0.44167  -0.43149
  Beta  occ. eigenvalues --   -0.42831  -0.41691  -0.41298  -0.39078  -0.38430
  Beta  occ. eigenvalues --   -0.38276  -0.37366  -0.36938  -0.35462  -0.32490
  Beta  occ. eigenvalues --   -0.29399  -0.29316  -0.27961  -0.27880  -0.26740
  Beta  occ. eigenvalues --   -0.23307
  Beta virt. eigenvalues --   -0.12052  -0.06919  -0.04085  -0.01566  -0.00712
  Beta virt. eigenvalues --   -0.00049   0.00674   0.01436   0.01838   0.02958
  Beta virt. eigenvalues --    0.03237   0.03285   0.03573   0.03700   0.04037

 Mulliken charges and spin densities:
               1          2
     1  C   -0.295856   0.000000
     2  O   -0.133048   0.000000
     3  C   -0.370705  -0.000000
     4  C   -0.189096   0.000000
     5  C   -0.085755  -0.000000
     6  C   -0.196504   0.000000
     7  O   -0.331949   0.000000
     8  C    0.842423   0.000000
     9  C   -0.277013   0.000000
    10  O   -0.314888   0.000000
    11  C    0.080813  -0.000000
    12  C    0.162969   0.000000
    13  C   -0.513584  -0.000000
    14  C   -0.462618  -0.000000
    15  C    0.178060  -0.000000
    16  C   -0.018165  -0.000000
    17  C   -0.278231   0.000000
    18  O   -0.292479   0.000000
    19  C    0.356289   0.000000
    20  H    0.203175   0.000000
    21  H    0.166629  -0.000000
    22  H    0.166694  -0.000000
    23  H    0.233985   0.000000
    24  H    0.229038  -0.000000
    25  H    0.355330  -0.000000
    26  H    0.190760  -0.000000
    27  H    0.204390   0.000000
    28  H    0.209105   0.000000
    29  H    0.180233  -0.000000
 Sum of Mulliken charges =  -0.00000  -0.00000

 Dipole moment (field-independent basis, Debye):
    X=             -1.6872    Y=             -1.0641    Z=              0.0040  Tot=              1.9947
 Quadrupole moment (field-independent basis, Debye-Ang):
   XX=            -67.8082   YY=           -124.4659   ZZ=           -111.2196
   XY=              0.2830   XZ=              0.0009   YZ=             -0.0057

 Normal termination of Gaussian 16 at Sun Jan 14 01:07:39 2024.
