 Gaussian 16, Revision A.03,
 Gaussian 16:  ES64L-G16RevA.03 25-Dec-2016

 --------------------------------------
 #P UB3LYP/6-311++G(d,p) nosym opt freq
 --------------------------------------

 -------
 Radical
 -------
 Symbolic Z-matrix:
 Charge = -1 Multiplicity = 2

 SCF Done:  E(UB3LYP) =  -1240.05940690     A.U. after   26 cycles
 Optimization completed.
    -- Stationary point found.
 Normal termination of Gaussian 16 at Wed Jan 10 05:00:32 2024.

 ----------------------------------------------------------------------
 #P Geom=AllCheck Guess=TCheck SCRF=Check GenChk UB3LYP/6-311++G(d,p) F
 req
 ----------------------------------------------------------------------

 Structure from the checkpoint file:  "070-rad.chk"
 -------
 Radical
 -------
 Charge = -1 Multiplicity = 2

                          Input orientation:
 ---------------------------------------------------------------------
 Center     Atomic      Atomic             Coordinates (Angstroms)
 Number     Number       Type             X           Y           Z
 ---------------------------------------------------------------------
      1          6           0        1.077295    1.714106   -0.601928
      2          6           0       -0.156985    1.230860    0.029363
      3          6           0       -0.452976   -0.107119    0.126538
      4          6           0        0.452802   -1.133706   -0.397788
      5          6           0        1.658573   -0.663658   -1.030369
      6          6           0        1.941297    0.677618   -1.132986
      7          8           0        1.362246    2.936498   -0.654545
      8          8           0        0.197799   -2.366759   -0.305074
      9         16           0        3.444135    1.144065   -1.998582
     10          6           0        4.476405    2.014263   -0.781863
     11          6           0        4.305363    3.381211   -0.574417
     12          6           0        5.454125    1.292682   -0.100473
     13          6           0        6.274379    1.953164    0.812812
     14          6           0        5.133697    4.031465    0.338663
     15          6           0        6.114885    3.321656    1.031708
     16          8           0        3.159543    2.090020   -3.087814
     17          8           0        4.174394   -0.100571   -2.318475
     18          1           0        3.520396    3.901334   -1.105184
     19          1           0        5.568805    0.234760   -0.301280
     20          1           0        5.008106    5.094978    0.511660
     21          1           0        2.339119   -1.403629   -1.432590
     22          1           0        7.039564    1.400323    1.347407
     23          6           0       -1.721966   -0.585867    0.784874
     24          6           0       -1.087093    2.284318    0.577829
     25          1           0        6.754080    3.834402    1.743290
     26          1           0       -1.781905   -0.258086    1.829733
     27          1           0       -1.756536   -1.675005    0.756283
     28          1           0       -2.610867   -0.190759    0.278580
     29          1           0       -0.673502    3.273546    0.382768
     30          1           0       -1.229570    2.171721    1.659571
     31          1           0       -2.080857    2.219859    0.119049
 ---------------------------------------------------------------------

 SCF Done:  E(UB3LYP) =  -1240.05940690     A.U. after    2 cycles

 Alpha  occ. eigenvalues --  -88.92816 -18.99164 -18.99093 -18.96094 -18.95899
 Alpha  occ. eigenvalues --  -10.11464 -10.10646 -10.10296 -10.09877 -10.09605
 Alpha  occ. eigenvalues --  -10.09499 -10.09359 -10.08942 -10.07693 -10.06119
 Alpha  occ. eigenvalues --  -10.06052 -10.05843 -10.05292 -10.05290  -7.99172
 Alpha  occ. eigenvalues --   -5.95443  -5.95361  -5.95272  -0.98399  -0.88905
 Alpha  occ. eigenvalues --   -0.88063  -0.87842  -0.77817  -0.72326  -0.68482
 Alpha  occ. eigenvalues --   -0.67139  -0.66700  -0.61899  -0.59236  -0.55934
 Alpha  occ. eigenvalues --   -0.54358  -0.52625  -0.50021  -0.45755  -0.45270
 Alpha  occ. eigenvalues --   -0.42828  -0.39022  -0.38154  -0.37380  -0.36658
 Alpha  occ. eigenvalues --   -0.35890  -0.34311  -0.33417  -0.33028  -0.32574
 Alpha  occ. eigenvalues --   -0.30255  -0.29382  -0.29174  -0.28948  -0.28647
 Alpha  occ. eigenvalues --   -0.28349  -0.27968  -0.27580  -0.26423  -0.25344
 Alpha  occ. eigenvalues --   -0.24811  -0.23840  -0.21567  -0.20140  -0.18823
 Alpha  occ. eigenvalues --   -0.18440  -0.17520  -0.17216  -0.16521  -0.13506
 Alpha  occ. eigenvalues --   -0.12843  -0.11777  -0.04801
 Alpha virt. eigenvalues --    0.05473   0.06380   0.07079   0.07979   0.08381
 Alpha virt. eigenvalues --    0.09481   0.09774   0.10422   0.11142   0.11869
 Alpha virt. eigenvalues --    0.12621   0.12789   0.13436   0.13930   0.14084

  Beta  occ. eigenvalues --  -88.92818 -18.99168 -18.99084 -18.95477 -18.95083
  Beta  occ. eigenvalues --  -10.11368 -10.10644 -10.10220 -10.09871 -10.09606
  Beta  occ. eigenvalues --  -10.09496 -10.09362 -10.08936 -10.07597 -10.06061
  Beta  occ. eigenvalues --  -10.05983 -10.05567 -10.05299 -10.05295  -7.99174
  Beta  occ. eigenvalues --   -5.95445  -5.95361  -5.95276  -0.98382  -0.88038
  Beta  occ. eigenvalues --   -0.87663  -0.86635  -0.77810  -0.71797  -0.68376
  Beta  occ. eigenvalues --   -0.66960  -0.66690  -0.61675  -0.58931  -0.55539
  Beta  occ. eigenvalues --   -0.53920  -0.52621  -0.49868  -0.45574  -0.44961
  Beta  occ. eigenvalues --   -0.42693  -0.38889  -0.38005  -0.37313  -0.36526
  Beta  occ. eigenvalues --   -0.35866  -0.34287  -0.33180  -0.32681  -0.32456
  Beta  occ. eigenvalues --   -0.29957  -0.29153  -0.29016  -0.28705  -0.28529
  Beta  occ. eigenvalues --   -0.28051  -0.27721  -0.26406  -0.26148  -0.24636
  Beta  occ. eigenvalues --   -0.23590  -0.22654  -0.21469  -0.20087  -0.18593
  Beta  occ. eigenvalues --   -0.18348  -0.17392  -0.17126  -0.13927  -0.12262
  Beta  occ. eigenvalues --   -0.12201  -0.11102
  Beta virt. eigenvalues --    0.02394   0.05744   0.06381   0.07112   0.07986
  Beta virt. eigenvalues --    0.08380   0.09755   0.10411   0.10806   0.11183
  Beta virt. eigenvalues --    0.11898   0.12680   0.12839   0.13453   0.13994

 Mulliken charges and spin densities:
               1          2
     1  C   -1.125406   0.036734
     2  C    0.209886   0.008270
     3  C    1.074125   0.087034
     4  C   -1.164349   0.056544
     5  C    0.489535   0.193530
     6  C   -0.022055   0.102004
     7  O   -0.311614   0.229915
     8  O   -0.371933   0.294780
     9  S    0.226567  -0.025912
    10  C    0.391767   0.003529
    11  C   -0.275763   0.018384
    12  C    0.024429   0.007570
    13  C   -0.432497  -0.001196
    14  C   -0.359857  -0.005965
    15  C   -0.315142   0.005206
    16  O   -0.098056   0.005515
    17  O   -0.175964  -0.002679
    18  H    0.297339  -0.001048
    19  H    0.237332   0.001105
    20  H    0.163486   0.000133
    21  H    0.260396  -0.016639
    22  H    0.155605   0.000054
    23  C   -0.435945   0.009932
    24  C   -0.473719  -0.009867
    25  H    0.133310  -0.000319
    26  H    0.124685   0.001603
    27  H    0.201287  -0.002754
    28  H    0.126182   0.001662
    29  H    0.201698  -0.001672
    30  H    0.121622   0.002308
    31  H    0.123049   0.002237
 Sum of Mulliken charges =  -1.00000   1.00000

 Dipole moment (field-independent basis, Debye):
    X=             -8.4161    Y=             -1.4007    Z=              7.4680  Tot=             11.3385
 Quadrupole moment (field-independent basis, Debye-Ang):
   XX=           -150.4635   YY=           -151.1027   ZZ=           -143.8608
   XY=            -10.1292   XZ=             26.9135   YZ=              9.5105

  Exact polarizability: 254.469  36.924 247.466  -5.832   9.096 160.238
 Approx polarizability: 328.316  25.817 454.059   2.840   4.181 253.937

                      1                      2                      3
                      A                      A                      A
 Frequencies --     28.1484                33.2521                59.0852
 Red. masses --      4.4301                 5.8520                 4.6418
 Frc consts  --      0.0021                 0.0038                 0.0095
 IR Inten    --      0.5971                 0.9324                 1.5216

                      4                      5                      6
                      A                      A                      A
 Frequencies --     69.0856                93.0417               115.4403
 Red. masses --      1.0769                 4.3481                 1.0926
 Frc consts  --      0.0030                 0.0222                 0.0086
 IR Inten    --      0.0899                 2.2777                 0.1320

                      7                      8                      9
                      A                      A                      A
 Frequencies --    132.9983               149.6257               155.7190
 Red. masses --      3.4346                 8.2358                 7.5103
 Frc consts  --      0.0358                 0.1086                 0.1073
 IR Inten    --      0.0941                 0.5186                10.4015

                     10                     11                     12
                      A                      A                      A
 Frequencies --    179.1002               216.8393               247.8931
 Red. masses --      6.5630                 5.3192                 6.3187
 Frc consts  --      0.1240                 0.1474                 0.2288
 IR Inten    --      1.0590                 2.1030                 0.4271

                     13                     14                     15
                      A                      A                      A
 Frequencies --    275.5464               283.6044               300.2202
 Red. masses --      6.5145                 5.8380                 7.8520
 Frc consts  --      0.2914                 0.2767                 0.4170
 IR Inten    --      0.4284                 1.2546                 2.1825

                     16                     17                     18
                      A                      A                      A
 Frequencies --    316.3184               338.0572               377.8858
 Red. masses --      2.7073                 3.9246                 7.4070
 Frc consts  --      0.1596                 0.2643                 0.6232
 IR Inten    --      1.0674                 2.6654                 2.5522

                     19                     20                     21
                      A                      A                      A
 Frequencies --    403.2029               413.8356               420.5744
 Red. masses --      8.0761                 2.9437                 8.3635
 Frc consts  --      0.7736                 0.2970                 0.8716
 IR Inten    --     15.2312                 1.1978                 2.6503

                     22                     23                     24
                      A                      A                      A
 Frequencies --    459.3774               479.3086               497.7704
 Red. masses --      5.2378                 7.1532                 4.5312
 Frc consts  --      0.6512                 0.9682                 0.6615
 IR Inten    --      6.6128                 1.1456                 6.3530

                     25                     26                     27
                      A                      A                      A
 Frequencies --    506.3570               549.2666               593.9340
 Red. masses --      5.9618                 7.4790                 7.7563
 Frc consts  --      0.9006                 1.3294                 1.6121
 IR Inten    --      4.0701                47.8230               203.1664

                     28                     29                     30
                      A                      A                      A
 Frequencies --    628.4419               660.0608               682.4923
 Red. masses --      6.4252                 4.3361                 4.4717
 Frc consts  --      1.4951                 1.1130                 1.2272
 IR Inten    --      0.7392                 8.8749                 4.0552

                     31                     32                     33
                      A                      A                      A
 Frequencies --    691.9965               700.9900               716.7876
 Red. masses --      5.4966                 1.7702                 7.0395
 Frc consts  --      1.5508                 0.5125                 2.1309
 IR Inten    --     20.1482                64.8407                59.9556

                     34                     35                     36
                      A                      A                      A
 Frequencies --    761.0955               766.6193               825.6208
 Red. masses --      2.2267                 3.8986                 7.6966
 Frc consts  --      0.7600                 1.3500                 3.0911
 IR Inten    --     15.4436                 8.3458                15.6205

                     37                     38                     39
                      A                      A                      A
 Frequencies --    847.4099               875.5926               891.9061
 Red. masses --      1.2493                 2.4375                 1.4680
 Frc consts  --      0.5286                 1.1010                 0.6880
 IR Inten    --      0.6719                12.8489                12.0771

                     40                     41                     42
                      A                      A                      A
 Frequencies --    932.6721               977.0469               983.1753
 Red. masses --      1.3937                 1.6483                 1.3856
 Frc consts  --      0.7143                 0.9271                 0.7891
 IR Inten    --      0.8945                 1.6702                 1.2408

                     43                     44                     45
                      A                      A                      A
 Frequencies --    989.4564              1014.0687              1026.1996
 Red. masses --      1.2923                 5.9134                 1.4184
 Frc consts  --      0.7454                 3.5828                 0.8800
 IR Inten    --      0.2781                 6.2480                 0.0309

                     46                     47                     48
                      A                      A                      A
 Frequencies --   1039.5471              1057.1650              1058.0204
 Red. masses --      4.2403                 3.3861                 1.5575
 Frc consts  --      2.6998                 2.2297                 1.0272
 IR Inten    --     36.6006                76.4134                 2.0354

                     49                     50                     51
                      A                      A                      A
 Frequencies --   1089.2723              1095.2496              1106.1360
 Red. masses --      3.3313                 1.6608                 4.0198
 Frc consts  --      2.3288                 1.1738                 2.8978
 IR Inten    --     85.6612                19.2416               109.3513

                     52                     53                     54
                      A                      A                      A
 Frequencies --   1114.4687              1158.1499              1176.3957
 Red. masses --      2.4816                 2.2260                 1.1146
 Frc consts  --      1.8160                 1.7591                 0.9088
 IR Inten    --     12.4659                11.6523                 0.0464

                     55                     56                     57
                      A                      A                      A
 Frequencies --   1196.6519              1208.7426              1237.7650
 Red. masses --      1.1556                 6.8741                16.9892
 Frc consts  --      0.9750                 5.9175                15.3356
 IR Inten    --      5.5425                11.1265               154.9574

                     58                     59                     60
                      A                      A                      A
 Frequencies --   1301.4712              1329.8911              1344.7109
 Red. masses --      2.2562                 2.8155                 1.8366
 Frc consts  --      2.2516                 2.9339                 1.9567
 IR Inten    --     15.3546                 0.0805                 2.8658

                     61                     62                     63
                      A                      A                      A
 Frequencies --   1375.0465              1391.0736              1411.2736
 Red. masses --      1.4371                 1.2545                 3.3827
 Frc consts  --      1.6009                 1.4303                 3.9695
 IR Inten    --     15.1579                10.2770                22.4331

                     64                     65                     66
                      A                      A                      A
 Frequencies --   1467.3715              1471.9727              1476.2171
 Red. masses --      5.7345                 2.4608                 1.0968
 Frc consts  --      7.2749                 3.1414                 1.4082
 IR Inten    --    108.5218                28.6634                 2.3009

                     67                     68                     69
                      A                      A                      A
 Frequencies --   1482.7629              1492.1118              1505.4606
 Red. masses --      1.1875                 1.0481                 2.0398
 Frc consts  --      1.5383                 1.3749                 2.7238
 IR Inten    --     58.7482                 0.1011                13.9460

                     70                     71                     72
                      A                      A                      A
 Frequencies --   1506.6949              1519.8291              1547.1258
 Red. masses --      1.0486                 6.5847                 8.0301
 Frc consts  --      1.4025                 8.9613                11.3246
 IR Inten    --     13.8250               249.2538               108.5504

                     73                     74                     75
                      A                      A                      A
 Frequencies --   1620.0662              1621.7468              1626.9031
 Red. masses --      5.9048                 5.5464                 8.0968
 Frc consts  --      9.1310                 8.5946                12.6266
 IR Inten    --      0.2133                 4.0433                 6.1217

                     76                     77                     78
                      A                      A                      A
 Frequencies --   2998.3707              2998.9341              3032.5155
 Red. masses --      1.0410                 1.0402                 1.0989
 Frc consts  --      5.5142                 5.5121                 5.9542
 IR Inten    --     60.3553                95.6120                72.5435

                     79                     80                     81
                      A                      A                      A
 Frequencies --   3037.0506              3115.1520              3117.5008
 Red. masses --      1.0989                 1.0954                 1.0949
 Frc consts  --      5.9717                 6.2628                 6.2697
 IR Inten    --      0.5303                 6.1646                 7.5183

                     82                     83                     84
                      A                      A                      A
 Frequencies --   3148.5811              3163.7081              3174.9174
 Red. masses --      1.0850                 1.0899                 1.0954
 Frc consts  --      6.3371                 6.4271                 6.5055
 IR Inten    --      1.5550                28.0851                40.3051

                     85                     86                     87
                      A                      A                      A
 Frequencies --   3198.3567              3198.9098              3224.7828
 Red. masses --      1.0907                 1.0914                 1.0927
 Frc consts  --      6.5736                 6.5803                 6.6953
 IR Inten    --     10.5403                 3.0760                 9.3437

 - Thermochemistry -
 -------------------
 Temperature   298.150 Kelvin.  Pressure   1.00000 Atm.
 Atom     1 has atomic number  6 and mass  12.00000

 Molecular mass:   276.04563 amu.
 Principal axes and moments of inertia in atomic units:
                           1         2         3
     Eigenvalues --  3007.714027747.744548638.02838
           X            0.89656  -0.35576   0.26386
           Y            0.43938   0.78960  -0.42833
           Z           -0.05596   0.49996   0.86424
 This molecule is an asymmetric top.
 Rotational symmetry number  1.
 Warning -- assumption of classical behavior for rotation
           may cause significant error
 Rotational temperatures (Kelvin)      0.02880     0.01118     0.01003
 Rotational constants (GHZ):           0.60004     0.23294     0.20893
 Zero-point vibrational energy     598762.0 (Joules/Mol)
                                  143.10756 (Kcal/Mol)
 Warning -- explicit consideration of  27 degrees of freedom as
           vibrations may cause significant error
 Vibrational temperatures:     40.50    47.84    85.01    99.40   133.87
          (Kelvin)            166.09   191.35   215.28   224.04   257.69
                              311.98   356.66   396.45   408.04   431.95
                              455.11   486.39   543.69   580.12   595.42
                              605.11   660.94   689.62   716.18   728.53
                              790.27   854.54   904.19   949.68   981.95
                              995.63  1008.57  1031.30  1095.05  1102.99
                             1187.88  1219.23  1259.78  1283.25  1341.91
                             1405.75  1414.57  1423.61  1459.02  1476.47
                             1495.68  1521.02  1522.26  1567.22  1575.82
                             1591.48  1603.47  1666.32  1692.57  1721.72
                             1739.11  1780.87  1872.53  1913.42  1934.74
                             1978.39  2001.44  2030.51  2111.22  2117.84
                             2123.95  2133.37  2146.82  2166.02  2167.80
                             2186.70  2225.97  2330.91  2333.33  2340.75
                             4313.99  4314.80  4363.11  4369.64  4482.01
                             4485.39  4530.11  4551.87  4568.00  4601.72
                             4602.52  4639.74

 Zero-point correction=                           0.228056 (Hartree/Particle)
 Thermal correction to Energy=                    0.245657
 Thermal correction to Enthalpy=                  0.246602
 Thermal correction to Gibbs Free Energy=         0.180863
 Sum of electronic and zero-point Energies=          -1239.831350
 Sum of electronic and thermal Energies=             -1239.813749
 Sum of electronic and thermal Enthalpies=           -1239.812805
 Sum of electronic and thermal Free Energies=        -1239.878544

                     E (Thermal)             CV                S
                      KCal/Mol        Cal/Mol-Kelvin    Cal/Mol-Kelvin
 Total                  154.152             66.349            138.359
 Electronic               0.000              0.000              1.377
 Translational            0.889              2.981             42.745
 Rotational               0.889              2.981             33.664
 Vibrational            152.375             60.388             60.572
 Vibration     1          0.593              1.984              5.956
 Vibration     2          0.594              1.983              5.625
 Vibration     3          0.596              1.974              4.488
 Vibration     4          0.598              1.969              4.179
 Vibration     5          0.602              1.954              3.595
 Vibration     6          0.608              1.937              3.175
 Vibration     7          0.613              1.920              2.902
 Vibration     8          0.618              1.903              2.677
 Vibration     9          0.620              1.896              2.601
 Vibration    10          0.629              1.868              2.338
 Vibration    11          0.646              1.815              1.985
 Vibration    12          0.662              1.766              1.746
 Vibration    13          0.677              1.719              1.561
 Vibration    14          0.682              1.704              1.512
 Vibration    15          0.693              1.673              1.416
 Vibration    16          0.703              1.642              1.329
 Vibration    17          0.718              1.599              1.221
 Vibration    18          0.748              1.517              1.048
 Vibration    19          0.769              1.463              0.951
 Vibration    20          0.777              1.440              0.913
 Vibration    21          0.783              1.426              0.890
 Vibration    22          0.817              1.340              0.768
 Vibration    23          0.836              1.296              0.712
 Vibration    24          0.853              1.255              0.664
 Vibration    25          0.862              1.236              0.642
 Vibration    26          0.905              1.141              0.546
 Vibration    27          0.952              1.045              0.460

 Optimization completed.
    -- Stationary point found.
 Normal termination of Gaussian 16 at Wed Jan 10 07:35:38 2024.
