 Q-Chem 5.4, Q-Chem, Inc., Pleasanton, CA (2021)
 Q-Chem 5.4.0 for Intel X86 EM64T Linux

User input:
--------------------------------------------------------------
$molecule
-1 2
C                  1.0772950000      1.7141060000     -0.6019280000
C                 -0.1569850000      1.2308600000      0.0293630000
C                 -0.4529760000     -0.1071190000      0.1265380000
C                  0.4528020000     -1.1337060000     -0.3977880000
C                  1.6585730000     -0.6636580000     -1.0303690000
C                  1.9412970000      0.6776180000     -1.1329860000
O                  1.3622460000      2.9364980000     -0.6545450000
O                  0.1977990000     -2.3667590000     -0.3050740000
S                  3.4441350000      1.1440650000     -1.9985820000
C                  4.4764050000      2.0142630000     -0.7818630000
C                  4.3053630000      3.3812110000     -0.5744170000
C                  5.4541250000      1.2926820000     -0.1004730000
C                  6.2743790000      1.9531640000      0.8128120000
C                  5.1336970000      4.0314650000      0.3386630000
C                  6.1148850000      3.3216560000      1.0317080000
O                  3.1595430000      2.0900200000     -3.0878140000
O                  4.1743940000     -0.1005710000     -2.3184750000
H                  3.5203960000      3.9013340000     -1.1051840000
H                  5.5688050000      0.2347600000     -0.3012800000
H                  5.0081060000      5.0949780000      0.5116600000
H                  2.3391190000     -1.4036290000     -1.4325900000
H                  7.0395640000      1.4003230000      1.3474070000
C                 -1.7219660000     -0.5858670000      0.7848740000
C                 -1.0870930000      2.2843180000      0.5778290000
H                  6.7540800000      3.8344020000      1.7432900000
H                 -1.7819050000     -0.2580860000      1.8297330000
H                 -1.7565360000     -1.6750050000      0.7562830000
H                 -2.6108670000     -0.1907590000      0.2785800000
H                 -0.6735020000      3.2735460000      0.3827680000
H                 -1.2295700000      2.1717210000      1.6595710000
H                 -2.0808570000      2.2198590000      0.1190490000
$end
$rem
MAX_SCF_CYCLES=200
BASIS  =  6-311++G(d,p)
GUI  =  2
JOB_TYPE  =  SP
METHOD  =  B3LYP
SOLVENT_METHOD = COSMO
$end
$solvent
dielectric 37.219
opticaldielectric 1.43
$end

--------------------------------------------------------------

             Standard Nuclear Orientation (Angstroms)
    I     Atom           X                Y                Z
 ----------------------------------------------------------------
    1      C      -0.9865226614    -0.8572408294     0.5728494190
    2      C      -2.3427858082    -1.2052458534     0.1313237445
    3      C      -3.1857070011    -0.2818798177    -0.4379920588
    4      C      -2.7755070283     1.1113130385    -0.6379471939
    5      C      -1.4505343693     1.4606087508    -0.1936190421
    6      C      -0.6178767665     0.5326176323     0.3851712632
    7      O      -0.2053607618    -1.7133133209     1.0577553879
    8      O      -3.5364557416     1.9669235209    -1.1698587229
    9      S       0.9870419807     1.1011881125     0.9564108951
   10      C       2.2205834548     0.1724105097    -0.0022228374
   11      C       2.6368340697    -1.0844673908     0.4311700700
   12      C       2.7570569142     0.7613446231    -1.1451404668
   13      C       3.7270871547     0.0741453612    -1.8731109985
   14      C       3.6098127678    -1.7605482421    -0.3029346242
   15      C       4.1537701113    -1.1855029168    -1.4519791674
   16      O       1.1952067149     0.7712485598     2.3741757393
   17      O       1.1342147318     2.5091141458     0.5311898029
   18      H       2.1799690448    -1.5176940783     1.3098074928
   19      H       2.4212244744     1.7474395329    -1.4409568172
   20      H       3.9397599110    -2.7414437065     0.0222421477
   21      H      -1.1285078972     2.4862320912    -0.3235320385
   22      H       4.1519316675     0.5248809069    -2.7637723692
   23      C      -4.5729319745    -0.6586889993    -0.8924843802
   24      C      -2.7648767046    -2.6401718757     0.3275791606
   25      H       4.9088581213    -1.7194003084    -2.0199785721
   26      H      -4.5468660142    -1.4491388073    -1.6522692604
   27      H      -5.0666254845     0.2169997370    -1.3139936548
   28      H      -5.1783014528    -1.0396562509    -0.0612319024
   29      H      -1.9588160619    -3.1953243205     0.8069019623
   30      H      -3.0030881214    -3.1239023551    -0.6276190799
   31      H      -3.6634623757    -2.7119494297     0.9517527849
 ----------------------------------------------------------------

    9   -1240.0594163471      8.88e-06  Convergence criterion met
 Total energy in the final basis set =    -1240.0594163471
    4   -1240.1463002215      9.35e-06  Convergence criterion met
 Total energy in the final basis set =    -1240.1463002215

                    Orbital Energies (a.u.)
 --------------------------------------------------------------

 Alpha MOs
 -- Occupied --
-89.0549 -19.1232 -19.1209 -19.0911 -19.0899 -10.2413 -10.2321 -10.2114
-10.2031 -10.1921 -10.1891 -10.1870 -10.1854 -10.1845 -10.1842 -10.1800
-10.1794 -10.1558 -10.1557  -8.1187  -6.0817  -6.0804  -6.0795  -1.1144
 -1.0183  -1.0131  -1.0101  -0.8754  -0.8459  -0.7998  -0.7752  -0.7615
 -0.7304  -0.7098  -0.6755  -0.6552  -0.6210  -0.6069  -0.5739  -0.5652
 -0.5375  -0.5080  -0.5011  -0.4848  -0.4758  -0.4596  -0.4549  -0.4512
 -0.4410  -0.4354  -0.4292  -0.4150  -0.4031  -0.3995  -0.3991  -0.3884
 -0.3861  -0.3789  -0.3763  -0.3637  -0.3580  -0.3546  -0.3460  -0.3333
 -0.3184  -0.3058  -0.2996  -0.2760  -0.2700  -0.2587  -0.2522  -0.2469
 -0.1768

 Beta MOs
 -- Occupied --
-89.0549 -19.1231 -19.1209 -19.0839 -19.0836 -10.2402 -10.2309 -10.2114
-10.2019 -10.1920 -10.1890 -10.1869 -10.1854 -10.1845 -10.1814 -10.1795
-10.1788 -10.1559 -10.1557  -8.1187  -6.0817  -6.0804  -6.0796  -1.1143
 -1.0113  -1.0067  -0.9998  -0.8753  -0.8402  -0.7979  -0.7744  -0.7615
 -0.7270  -0.7063  -0.6708  -0.6522  -0.6209  -0.6055  -0.5703  -0.5635
 -0.5364  -0.5061  -0.4988  -0.4843  -0.4755  -0.4572  -0.4545  -0.4498
 -0.4352  -0.4340  -0.4238  -0.4109  -0.3975  -0.3954  -0.3907  -0.3877
 -0.3827  -0.3766  -0.3629  -0.3578  -0.3552  -0.3529  -0.3448  -0.3327
 -0.3168  -0.3048  -0.2806  -0.2705  -0.2645  -0.2526  -0.2427  -0.2413

          Ground-State Mulliken Net Atomic Charges

     Atom                 Charge (a.u.)    Spin (a.u.)
  --------------------------------------------------------
      1 C                    -1.040369       0.052439
      2 C                     0.115758       0.003990
      3 C                     0.994875       0.069508
      4 C                    -0.921857       0.095485
      5 C                     0.448987       0.186138
      6 C                    -0.140127       0.115733
      7 O                    -0.402046       0.223578
      8 O                    -0.490823       0.263605
      9 S                     0.404873      -0.023954
     10 C                     0.348191       0.002832
     11 C                    -0.311757       0.016482
     12 C                     0.089882       0.007408
     13 C                    -0.466655      -0.001714
     14 C                    -0.406273      -0.005662
     15 C                    -0.375775       0.004035
     16 O                    -0.219772       0.005532
     17 O                    -0.268447      -0.002515
     18 H                     0.287189      -0.000729
     19 H                     0.261428       0.000902
     20 H                     0.233028       0.000092
     21 H                     0.267349      -0.016415
     22 H                     0.229839       0.000070
     23 C                    -0.437695       0.010011
     24 C                    -0.459837      -0.010088
     25 H                     0.209446      -0.000232
     26 H                     0.168604       0.001165
     27 H                     0.187417      -0.002070
     28 H                     0.169446       0.001217
     29 H                     0.191347      -0.001350
     30 H                     0.167052       0.002268
     31 H                     0.166723       0.002240
  --------------------------------------------------------
  Sum of atomic charges =    -1.000000

                    Cartesian Multipole Moments
 -----------------------------------------------------------------
    Charge (ESU x 10^10)
                -4.8032
    Dipole Moment (Debye)
         X       5.5891      Y      -7.1009      Z      -4.9543
       Tot      10.3056
    Quadrupole Moments (Debye-Ang)
        XX    -135.6707     XY       9.7241     YY    -142.5469
        XZ     -21.2342     YZ       3.1536     ZZ    -134.8267

 Total job time:  104.60s(wall), 791.56s(cpu)
        *  Thank you very much for using Q-Chem.  Have a nice day.  *
