 Q-Chem 5.4, Q-Chem, Inc., Pleasanton, CA (2021)
 Q-Chem 5.4.0 for Intel X86 EM64T Linux

User input:
--------------------------------------------------------------
$molecule
0 1
C                 -1.7950960000      2.7683770000     -0.6688170000
C                 -2.8910110000      1.9328980000     -0.4857120000
C                 -2.6811860000      0.5837730000     -0.2119870000
C                 -0.4948160000      2.2705030000     -0.5724520000
C                 -0.2708430000      0.9090750000     -0.2795430000
C                 -1.3863230000      0.0789740000     -0.1127960000
C                  0.6458080000      3.2085020000     -0.8083570000
C                  2.0770060000      2.6183500000     -0.7606070000
C                  2.1985640000      1.2255920000     -0.4127150000
C                  1.1257020000      0.4063720000     -0.1646730000
O                  0.4706260000      4.3841940000     -1.0342580000
O                  3.0279550000      3.3471060000     -0.9947410000
H                 -1.9200440000      3.8205960000     -0.8940840000
H                 -3.8979830000      2.3259090000     -0.5627420000
H                 -3.5249050000     -0.0836450000     -0.0788130000
H                 -1.2764700000     -0.9814390000      0.0800280000
H                  3.2109950000      0.8514720000     -0.3393370000
N                  1.2917190000     -0.9000220000      0.1767030000
C                  2.5868290000     -1.5367780000      0.3830690000
C                  2.4103280000     -3.0011090000      0.7676580000
H                  0.4891420000     -1.4113760000      0.5021050000
H                  3.1445880000     -1.0032880000      1.1632700000
H                  3.1716590000     -1.4581830000     -0.5394090000
H                  1.8476260000     -3.1024940000      1.7006730000
H                  3.3851930000     -3.4686670000      0.9179220000
H                  1.8884480000     -3.5566120000     -0.0162370000
$end

$rem
BASIS  =  6-311++G(d,p)
GUI  =  2
JOB_TYPE  =  SP
METHOD  =  B3LYP
SCF_CONVERGENCE  = 8
SOLVENT_METHOD = sm12
$end

$smx
solvent dimethylformamide
charges CM5
$end

--------------------------------------------------------------

             Standard Nuclear Orientation (Angstroms)
    I     Atom           X                Y                Z
 ----------------------------------------------------------------
    1      C      -1.7950960000     2.7683770000    -0.6688170000
    2      C      -2.8910110000     1.9328980000    -0.4857120000
    3      C      -2.6811860000     0.5837730000    -0.2119870000
    4      C      -0.4948160000     2.2705030000    -0.5724520000
    5      C      -0.2708430000     0.9090750000    -0.2795430000
    6      C      -1.3863230000     0.0789740000    -0.1127960000
    7      C       0.6458080000     3.2085020000    -0.8083570000
    8      C       2.0770060000     2.6183500000    -0.7606070000
    9      C       2.1985640000     1.2255920000    -0.4127150000
   10      C       1.1257020000     0.4063720000    -0.1646730000
   11      O       0.4706260000     4.3841940000    -1.0342580000
   12      O       3.0279550000     3.3471060000    -0.9947410000
   13      H      -1.9200440000     3.8205960000    -0.8940840000
   14      H      -3.8979830000     2.3259090000    -0.5627420000
   15      H      -3.5249050000    -0.0836450000    -0.0788130000
   16      H      -1.2764700000    -0.9814390000     0.0800280000
   17      H       3.2109950000     0.8514720000    -0.3393370000
   18      N       1.2917190000    -0.9000220000     0.1767030000
   19      C       2.5868290000    -1.5367780000     0.3830690000
   20      C       2.4103280000    -3.0011090000     0.7676580000
   21      H       0.4891420000    -1.4113760000     0.5021050000
   22      H       3.1445880000    -1.0032880000     1.1632700000
   23      H       3.1716590000    -1.4581830000    -0.5394090000
   24      H       1.8476260000    -3.1024940000     1.7006730000
   25      H       3.3851930000    -3.4686670000     0.9179220000
   26      H       1.8884480000    -3.5566120000    -0.0162370000
 ----------------------------------------------------------------

   15    -669.2684959901      7.76e-09  Convergence criterion met
 Total energy in the final basis set =     -669.3016267647

                    Orbital Energies (a.u.)
 --------------------------------------------------------------

 Alpha MOs
 -- Occupied --
-19.1325 -19.1031 -14.3586 -10.2733 -10.2551 -10.2548 -10.2194 -10.2110
-10.2051 -10.2010 -10.1979 -10.1964 -10.1938 -10.1711 -10.1640  -1.0698
 -1.0309  -0.9708  -0.8879  -0.8223  -0.7852  -0.7615  -0.7538  -0.6906
 -0.6531  -0.6350  -0.6230  -0.5934  -0.5565  -0.5263  -0.5170  -0.4878
 -0.4772  -0.4721  -0.4677  -0.4552  -0.4476  -0.4434  -0.4261  -0.4168
 -0.4010  -0.3909  -0.3885  -0.3790  -0.3714  -0.3683  -0.3655  -0.3394
 -0.2974  -0.2805  -0.2731  -0.2467  -0.2312

          Ground-State Mulliken Net Atomic Charges

     Atom                 Charge (a.u.)
  ----------------------------------------
      1 C                    -0.312922
      2 C                     0.218938
      3 C                     0.412205
      4 C                    -0.096063
      5 C                    -0.167363
      6 C                     0.678257
      7 C                    -1.467803
      8 C                    -2.361110
      9 C                     0.192490
     10 C                     0.700026
     11 O                    -0.308957
     12 O                    -0.440430
     13 H                     0.144845
     14 H                     0.280476
     15 H                     0.340310
     16 H                     0.358206
     17 H                     0.146298
     18 N                     0.328453
     19 C                     0.274302
     20 C                    -0.334364
     21 H                     0.544647
     22 H                     0.183241
     23 H                     0.173254
     24 H                     0.163104
     25 H                     0.174318
     26 H                     0.175641
  ----------------------------------------
  Sum of atomic charges =     0.000000

                    Cartesian Multipole Moments
 -----------------------------------------------------------------
    Charge (ESU x 10^10)
                 0.0000
    Dipole Moment (Debye)
         X      -4.8755      Y     -11.0251      Z       3.0707
       Tot      12.4399
    Quadrupole Moments (Debye-Ang)
        XX     -86.3724     XY     -27.6336     YY    -117.9777
        XZ       7.9885     YZ       7.0820     ZZ     -92.0588

 Total job time:  577.08s(wall), 3673.41s(cpu)
        *  Thank you very much for using Q-Chem.  Have a nice day.  *
