 Gaussian 16, Revision A.03,
 Gaussian 16:  ES64L-G16RevA.03 25-Dec-2016

 --------------------------------------
 #P UB3LYP/6-311++G(d,p) nosym opt freq
 --------------------------------------

 -------
 Radical
 -------
 Symbolic Z-matrix:
 Charge = -1 Multiplicity = 2

 SCF Done:  E(UB3LYP) =  -535.496451484     A.U. after   20 cycles
 SCF Done:  E(UB3LYP) =  -535.507310702     A.U. after   18 cycles
 SCF Done:  E(UB3LYP) =  -535.507289023     A.U. after   16 cycles
 SCF Done:  E(UB3LYP) =  -535.508351675     A.U. after   14 cycles
 SCF Done:  E(UB3LYP) =  -535.508438796     A.U. after   13 cycles
 SCF Done:  E(UB3LYP) =  -535.508441945     A.U. after   13 cycles
 Optimization completed.
    -- Stationary point found.
 Normal termination of Gaussian 16 at Wed Dec 20 01:41:24 2023.

 ----------------------------------------------------------------------
 #P Geom=AllCheck Guess=TCheck SCRF=Check GenChk UB3LYP/6-311++G(d,p) F
 req
 ----------------------------------------------------------------------

 Structure from the checkpoint file:  "083-rad.chk"
 -------
 Radical
 -------
 Charge = -1 Multiplicity = 2

                          Input orientation:
 ---------------------------------------------------------------------
 Center     Atomic      Atomic             Coordinates (Angstroms)
 Number     Number       Type             X           Y           Z
 ---------------------------------------------------------------------
      1          6           0        1.533444    1.320473   -0.649290
      2          6           0        0.296615    1.830211   -0.121275
      3          6           0       -0.714564    1.015272    0.307509
      4          6           0       -0.612574   -0.420644    0.260547
      5          6           0        0.635334   -0.994683   -0.273166
      6          6           0        1.644672   -0.150656   -0.700962
      7          8           0        2.461374    2.077396   -1.043678
      8          8           0       -1.562988   -1.155748    0.663204
      9          6           0        0.650737   -2.513630   -0.284325
     10          8           0        2.873459   -0.494232   -1.225854
     11          6           0        3.317272   -1.817437   -1.419221
     12          1           0        0.209293    2.912411   -0.081522
     13          1           0       -1.641689    1.419450    0.703406
     14          1           0       -0.308290   -2.837764    0.122511
     15          1           0        1.440334   -2.942363    0.339785
     16          1           0        0.748217   -2.937443   -1.288145
     17          1           0        4.319417   -1.722510   -1.845363
     18          1           0        2.691016   -2.374578   -2.123334
     19          1           0        3.389030   -2.380215   -0.483017
 ---------------------------------------------------------------------

 SCF Done:  E(UB3LYP) =  -535.508441945     A.U. after    1 cycles

 Alpha  occ. eigenvalues --  -19.01547 -18.92484 -18.92445 -10.10808 -10.08741
 Alpha  occ. eigenvalues --  -10.07345 -10.07154 -10.03189 -10.03154 -10.01867
 Alpha  occ. eigenvalues --  -10.01702  -0.92981  -0.84710  -0.84390  -0.68008
 Alpha  occ. eigenvalues --   -0.62571  -0.61211  -0.53535  -0.52292  -0.45245
 Alpha  occ. eigenvalues --   -0.42366  -0.37419  -0.35526  -0.35078  -0.31677
 Alpha  occ. eigenvalues --   -0.30246  -0.28859  -0.27498  -0.26258  -0.25990
 Alpha  occ. eigenvalues --   -0.25019  -0.23705  -0.22374  -0.21483  -0.19775
 Alpha  occ. eigenvalues --   -0.18862  -0.12962  -0.09337  -0.08903  -0.08690
 Alpha  occ. eigenvalues --   -0.00949
 Alpha virt. eigenvalues --    0.08158   0.10638   0.11066   0.11510   0.13079
 Alpha virt. eigenvalues --    0.13443   0.14017   0.14131   0.15184   0.16263
 Alpha virt. eigenvalues --    0.17327   0.18072   0.18355   0.19127   0.20019

  Beta  occ. eigenvalues --  -19.01497 -18.91814 -18.91678 -10.10811 -10.08610
  Beta  occ. eigenvalues --  -10.07222 -10.07033 -10.03192 -10.03128 -10.01746
  Beta  occ. eigenvalues --  -10.01539  -0.92845  -0.83548  -0.83076  -0.67465
  Beta  occ. eigenvalues --   -0.62297  -0.61069  -0.53379  -0.51326  -0.44968
  Beta  occ. eigenvalues --   -0.42017  -0.37215  -0.35309  -0.34936  -0.31398
  Beta  occ. eigenvalues --   -0.29991  -0.28631  -0.27265  -0.26173  -0.24638
  Beta  occ. eigenvalues --   -0.24351  -0.23315  -0.21279  -0.20214  -0.18710
  Beta  occ. eigenvalues --   -0.18016  -0.09872  -0.08693  -0.07990  -0.07988
  Beta virt. eigenvalues --    0.06319   0.08156   0.10636   0.11075   0.11665
  Beta virt. eigenvalues --    0.13090   0.13457   0.14031   0.14948   0.15573
  Beta virt. eigenvalues --    0.16267   0.18102   0.18375   0.18530   0.19887

 Mulliken charges and spin densities:
               1          2
     1  C   -0.737349   0.067645
     2  C    0.337904   0.084899
     3  C   -0.114891   0.120109
     4  C   -0.577390   0.075575
     5  C    1.796965   0.022132
     6  C   -0.969292   0.112748
     7  O   -0.415671   0.280492
     8  O   -0.424631   0.237018
     9  C   -0.620691   0.007281
    10  O   -0.166357   0.007504
    11  C   -0.197932  -0.002451
    12  H    0.140435  -0.009255
    13  H    0.137413  -0.010506
    14  H    0.208298  -0.003753
    15  H    0.101408   0.002467
    16  H    0.101307   0.002457
    17  H    0.152365  -0.000230
    18  H    0.124057   0.002936
    19  H    0.124053   0.002933
 Sum of Mulliken charges =  -1.00000   1.00000

 Dipole moment (field-independent basis, Debye):
    X=             -2.5229    Y=             -2.8427    Z=              1.0668  Tot=              3.9477
 Quadrupole moment (field-independent basis, Debye-Ang):
   XX=            -92.0280   YY=            -81.6117   ZZ=            -73.2393
   XY=            -20.0241   XZ=              9.7090   YZ=              8.5017

  Exact polarizability: 145.413  10.251 147.695 -31.624  -4.162  84.634
 Approx polarizability: 237.003  45.850 216.088 -55.100 -19.253 130.887

 ******    1 imaginary frequencies (negative Signs) ******

                      1                      2                      3
                      A                      A                      A
 Frequencies --   -125.4861                36.0522               108.5592
 Red. masses --      2.7180                 1.1204                 6.6723
 Frc consts  --      0.0252                 0.0009                 0.0463
 IR Inten    --      1.8709                 0.1210                 4.8713

                      4                      5                      6
                      A                      A                      A
 Frequencies --    118.3105               249.0019               259.7674
 Red. masses --      4.1911                 3.6584                 4.1607
 Frc consts  --      0.0346                 0.1336                 0.1654
 IR Inten    --      8.1124                 6.7906                 0.0037

                      7                      8                      9
                      A                      A                      A
 Frequencies --    295.8728               330.6826               332.9121
 Red. masses --      1.0542                 5.3224                 4.8333
 Frc consts  --      0.0544                 0.3429                 0.3156
 IR Inten    --      0.6667                 0.1904                 3.6175

                     10                     11                     12
                      A                      A                      A
 Frequencies --    359.9336               420.7767               472.2361
 Red. masses --      4.1412                 6.3523                10.4171
 Frc consts  --      0.3161                 0.6627                 1.3687
 IR Inten    --      0.7533                10.0741                 0.6420

                     13                     14                     15
                      A                      A                      A
 Frequencies --    490.9982               502.1139               609.5029
 Red. masses --      6.5216                 4.5130                 4.7868
 Frc consts  --      0.9263                 0.6704                 1.0477
 IR Inten    --      2.2436                 1.2346                 1.4762

                     16                     17                     18
                      A                      A                      A
 Frequencies --    633.0686               633.5700               758.8055
 Red. masses --      2.3578                 4.8171                 6.3431
 Frc consts  --      0.5568                 1.1393                 2.1519
 IR Inten    --      8.0803                 2.7504                 4.3353

                     19                     20                     21
                      A                      A                      A
 Frequencies --    766.3479               818.2564               888.8452
 Red. masses --      7.3808                 2.1814                 2.2504
 Frc consts  --      2.5539                 0.8605                 1.0475
 IR Inten    --     20.4500                33.9317                17.9433

                     22                     23                     24
                      A                      A                      A
 Frequencies --    919.5806               994.2367              1040.3828
 Red. masses --      1.2600                 5.2616                 1.4139
 Frc consts  --      0.6277                 3.0644                 0.9017
 IR Inten    --      0.0898                 7.1367                 0.0357

                     25                     26                     27
                      A                      A                      A
 Frequencies --   1056.4446              1090.9979              1145.5716
 Red. masses --      3.2511                 1.9039                 2.0505
 Frc consts  --      2.1378                 1.3352                 1.5855
 IR Inten    --     34.4799                26.8951                35.9637

                     28                     29                     30
                      A                      A                      A
 Frequencies --   1151.2362              1190.7693              1211.8558
 Red. masses --      1.2739                 2.4411                 2.2832
 Frc consts  --      0.9948                 2.0393                 1.9756
 IR Inten    --      0.4880               140.4056                76.4246

                     31                     32                     33
                      A                      A                      A
 Frequencies --   1233.3680              1325.4091              1384.1690
 Red. masses --      2.5685                 2.1630                 1.3369
 Frc consts  --      2.3021                 2.2388                 1.5091
 IR Inten    --    189.9105                38.6836                24.8075

                     34                     35                     36
                      A                      A                      A
 Frequencies --   1410.0374              1471.4345              1476.0748
 Red. masses --      3.7900                 1.3811                 1.1051
 Frc consts  --      4.4397                 1.7618                 1.4186
 IR Inten    --    123.0856                28.8479                24.2371

                     37                     38                     39
                      A                      A                      A
 Frequencies --   1485.2214              1487.5467              1512.4314
 Red. masses --      1.0517                 7.2886                 1.1332
 Frc consts  --      1.3669                 9.5025                 1.5273
 IR Inten    --      1.4843                 8.9247                23.7458

                     40                     41                     42
                      A                      A                      A
 Frequencies --   1523.8883              1525.1405              1537.1420
 Red. masses --      1.0524                 3.1409                 6.7332
 Frc consts  --      1.4400                 4.3045                 9.3734
 IR Inten    --     11.0073                97.4164               369.2557

                     43                     44                     45
                      A                      A                      A
 Frequencies --   1630.7482              2993.7296              3019.5021
 Red. masses --      7.5391                 1.0333                 1.0349
 Frc consts  --     11.8125                 5.4562                 5.5595
 IR Inten    --     34.5485                21.3730               217.2725

                     46                     47                     48
                      A                      A                      A
 Frequencies --   3042.5386              3072.8354              3075.0003
 Red. masses --      1.1029                 1.1024                 1.1009
 Frc consts  --      6.0152                 6.1328                 6.1330
 IR Inten    --      0.5417               101.1639                47.6178

                     49                     50                     51
                      A                      A                      A
 Frequencies --   3097.1255              3135.5551              3158.1875
 Red. masses --      1.0965                 1.0848                 1.0948
 Frc consts  --      6.1968                 6.2838                 6.4336
 IR Inten    --      1.7687                21.6236                41.5991

 - Thermochemistry -
 -------------------
 Temperature   298.150 Kelvin.  Pressure   1.00000 Atm.
 Atom     1 has atomic number  6 and mass  12.00000

 Molecular mass:   152.04734 amu.
 Principal axes and moments of inertia in atomic units:
                           1         2         3
     Eigenvalues --  1238.121381585.083212800.50522
           X            0.91801  -0.05888   0.39215
           Y            0.06509   0.99788  -0.00255
           Z           -0.39117   0.02786   0.91990
 This molecule is an asymmetric top.
 Rotational symmetry number  1.
 Warning -- assumption of classical behavior for rotation
           may cause significant error
 Rotational temperatures (Kelvin)      0.06996     0.05464     0.03093
 Rotational constants (GHZ):           1.45764     1.13858     0.64443
    1 imaginary frequencies ignored.
 Zero-point vibrational energy     373736.0 (Joules/Mol)
                                   89.32504 (Kcal/Mol)
 Warning -- explicit consideration of  14 degrees of freedom as
           vibrations may cause significant error
 Vibrational temperatures:     51.87   156.19   170.22   358.26   373.75
          (Kelvin)            425.69   475.78   478.99   517.86   605.40
                              679.44   706.44   722.43   876.94   910.84
                              911.57  1091.75  1102.60  1177.29  1278.85
                             1323.07  1430.48  1496.88  1519.99  1569.70
                             1648.22  1656.37  1713.25  1743.59  1774.54
                             1906.97  1991.51  2028.73  2117.07  2123.74
                             2136.90  2140.25  2176.05  2192.54  2194.34
                             2211.60  2346.28  4307.31  4344.39  4377.53
                             4421.12  4424.24  4456.07  4511.36  4543.93

 Zero-point correction=                           0.142349 (Hartree/Particle)
 Thermal correction to Energy=                    0.152033
 Thermal correction to Enthalpy=                  0.152977
 Thermal correction to Gibbs Free Energy=         0.106125
 Sum of electronic and zero-point Energies=           -535.366093
 Sum of electronic and thermal Energies=              -535.356409
 Sum of electronic and thermal Enthalpies=            -535.355464
 Sum of electronic and thermal Free Energies=         -535.402317

                     E (Thermal)             CV                S
                      KCal/Mol        Cal/Mol-Kelvin    Cal/Mol-Kelvin
 Total                   95.402             36.413             98.609
 Electronic               0.000              0.000              1.377
 Translational            0.889              2.981             40.967
 Rotational               0.889              2.981             30.087
 Vibrational             93.625             30.451             26.178
 Vibration     1          0.594              1.982              5.465
 Vibration     2          0.606              1.942              3.295
 Vibration     3          0.608              1.934              3.128
 Vibration     4          0.662              1.764              1.738
 Vibration     5          0.668              1.746              1.663
 Vibration     6          0.690              1.681              1.440
 Vibration     7          0.713              1.614              1.257
 Vibration     8          0.715              1.610              1.246
 Vibration     9          0.734              1.555              1.122
 Vibration    10          0.783              1.425              0.889
 Vibration    11          0.829              1.312              0.731
 Vibration    12          0.847              1.270              0.681
 Vibration    13          0.857              1.245              0.653
 Vibration    14          0.968              1.012              0.434

                           ! Non-Optimized Parameters !
 Normal termination of Gaussian 16 at Wed Dec 20 02:01:00 2023.
