 Q-Chem 5.4, Q-Chem, Inc., Pleasanton, CA (2021)
 Q-Chem 5.4.0 for Intel X86 EM64T Linux

User input:
--------------------------------------------------------------
$molecule
0 1
C                 -0.3334710000      3.8109950000     -0.2056620000
C                 -1.5447070000      3.2136660000     -0.5407160000
C                 -1.5730370000      1.8839630000     -0.9651690000
C                  0.8501670000      3.0746720000     -0.2966390000
C                  0.8248960000      1.7367040000     -0.7230820000
C                 -0.3934330000      1.1472810000     -1.0559330000
C                  2.1414920000      3.6928150000      0.0548910000
C                  3.3757370000      2.8644950000     -0.0650000000
C                  3.3757440000      1.5688610000     -0.4645200000
C                  2.0909650000      0.9330110000     -0.8244710000
O                  2.2658950000      4.8495400000      0.4417140000
O                  2.0489200000     -0.2313510000     -1.1968930000
H                 -0.2860120000      4.8408060000      0.1266280000
H                 -2.4653510000      3.7814560000     -0.4719450000
H                 -2.5177430000      1.4203970000     -1.2258680000
H                 -0.3975720000      0.1149630000     -1.3830460000
O                  4.5024830000      3.5154230000      0.2675260000
C                  4.6373250000      0.7615990000     -0.5871510000
C                  5.2427180000      0.8101810000     -2.0066570000
C                  6.5217370000     -0.0244340000     -2.1283600000
C                  7.1396830000      0.0127580000     -3.5306460000
C                  8.4196420000     -0.8211490000     -3.6582840000
H                  4.2273360000      4.4145530000      0.5297190000
H                  4.4095260000     -0.2771630000     -0.3353930000
H                  5.3719710000      1.1336310000      0.1315290000
H                  5.4574680000      1.8521200000     -2.2699140000
H                  4.4987990000      0.4474780000     -2.7238000000
H                  6.3009820000     -1.0645090000     -1.8567950000
H                  7.2588900000      0.3330220000     -1.3978040000
H                  7.3575650000      1.0537010000     -3.8025510000
H                  6.4013130000     -0.3439430000     -4.2601780000
H                  8.2015960000     -1.8617240000     -3.3851640000
H                  9.1580610000     -0.4643990000     -2.9285380000
C                  9.0378250000     -0.7862540000     -5.0605870000
H                  9.2563270000      0.2543940000     -5.3335750000
H                  8.2987510000     -1.1420910000     -5.7901570000
C                 10.3166990000     -1.6210640000     -5.1899450000
H                 10.0989440000     -2.6621110000     -4.9174160000
H                 11.0567710000     -1.2658590000     -4.4608130000
C                 10.9355900000     -1.5871550000     -6.5920130000
C                 12.2124170000     -2.4243680000     -6.7116000000
H                 11.1541670000     -0.5473280000     -6.8643680000
H                 10.1966900000     -1.9424510000     -7.3206840000
H                 12.9834870000     -2.0708730000     -6.0196050000
H                 12.6278400000     -2.3788660000     -7.7222540000
H                 12.0187440000     -3.4764840000     -6.4794490000
$end
$rem
MAX_SCF_CYCLES=200
BASIS  =  6-311++G(d,p)
GUI  =  2
JOB_TYPE  =  SP
SCF_CONVERGENCE = 6
METHOD  =  B3LYP
SOLVENT_METHOD = COSMO
$end
$solvent
dielectric 37.219
opticaldielectric 1.43
$end

--------------------------------------------------------------

             Standard Nuclear Orientation (Angstroms)
    I     Atom           X                Y                Z
 ----------------------------------------------------------------
    1      C       5.7742785627    -0.0910014520    -0.9412007435
    2      C       6.4127151851     1.1440175875    -0.9984931176
    3      C       5.7711374904     2.2843284754    -0.5115206882
    4      C       4.4915476337    -0.1826242357    -0.3956240585
    5      C       3.8435929129     0.9627047349     0.0953207995
    6      C       4.4916986420     2.1950683366     0.0338901023
    7      C       3.8016773918    -1.4836324631    -0.3274257709
    8      C       2.4313661667    -1.5253609188     0.2593914721
    9      C       1.7895306132    -0.4358478590     0.7485663970
   10      C       2.4639427256     0.8778253898     0.6856543813
   11      O       4.2850778154    -2.5383210971    -0.7237549034
   12      O       1.9160453441     1.8861297143     1.1091347750
   13      H       6.2516422290    -0.9897491268    -1.3120864991
   14      H       7.4077884813     1.2196438454    -1.4213525664
   15      H       6.2701991438     3.2456723863    -0.5571516268
   16      H       3.9799165889     3.0694637649     0.4162672252
   17      O       1.8809579242    -2.7504214676     0.2701044894
   18      C       0.4030858587    -0.5060145682     1.3240179537
   19      C      -0.6943489668    -0.2194247517     0.2764678308
   20      C      -2.1046784343    -0.2804422211     0.8718929584
   21      C      -3.2091297266    -0.0006744957    -0.1535649356
   22      C      -4.6225516577    -0.0599752578     0.4369511519
   23      H       2.5469414135    -3.3488917999    -0.1187207300
   24      H       0.3245066230     0.2294463091     2.1285200166
   25      H       0.2428205070    -1.4987041380     1.7523822051
   26      H      -0.6088346856    -0.9446772460    -0.5406948320
   27      H      -0.5223891486     0.7711143298    -0.1577270288
   28      H      -2.1809607076     0.4429790655     1.6935248600
   29      H      -2.2671373547    -1.2697686485     1.3187953254
   30      H      -3.1303095377    -0.7229729540    -0.9763890597
   31      H      -3.0449493378     0.9883201230    -0.6003056248
   32      H      -4.7005766972     0.6615975127     1.2604678507
   33      H      -4.7866620021    -1.0491292924     0.8838342432
   34      C      -5.7280367882     0.2212766463    -0.5870711032
   35      H      -5.6503045003    -0.5006575687    -1.4104680382
   36      H      -5.5629792810     1.2100701603    -1.0344704092
   37      C      -7.1416353849     0.1639917670     0.0025197600
   38      H      -7.2203275254     0.8860067132     0.8259091676
   39      H      -7.3079350922    -0.8247052141     0.4501058609
   40      C      -8.2479596690     0.4454373888    -1.0206153763
   41      C      -9.6565023799     0.3864650332    -0.4222479819
   42      H      -8.1703118589    -0.2762546300    -1.8430050579
   43      H      -8.0824603957     1.4333442932    -1.4676274820
   44      H      -9.8651039920    -0.6009529251     0.0018462094
   45      H     -10.4210243652     0.5914248088    -1.1769438365
   46      H      -9.7765782273     1.1215802170     0.3799607520
 ----------------------------------------------------------------

   11    -964.4443558746      5.08e-07  Convergence criterion met
 Total energy in the final basis set =     -964.4443558746
    6    -964.4587477356      9.38e-07  Convergence criterion met
 Total energy in the final basis set =     -964.4587477356

                    Orbital Energies (a.u.)
 --------------------------------------------------------------

 Alpha MOs
 -- Occupied --
-19.1782 -19.1501 -19.1303 -10.2941 -10.2816 -10.2671 -10.2103 -10.2091
-10.2035 -10.2002 -10.1981 -10.1965 -10.1963 -10.1750 -10.1660 -10.1598
-10.1587 -10.1579 -10.1570 -10.1566 -10.1564 -10.1521  -1.1084  -1.0677
 -1.0641  -0.8922  -0.8437  -0.8103  -0.7972  -0.7810  -0.7788  -0.7559
 -0.7246  -0.6974  -0.6747  -0.6543  -0.6378  -0.6116  -0.6038  -0.5842
 -0.5745  -0.5726  -0.5704  -0.5425  -0.5185  -0.4976  -0.4826  -0.4775
 -0.4719  -0.4688  -0.4657  -0.4518  -0.4510  -0.4364  -0.4345  -0.4320
 -0.4249  -0.4135  -0.4117  -0.4049  -0.4025  -0.3979  -0.3827  -0.3777
 -0.3735  -0.3704  -0.3689  -0.3540  -0.3459  -0.3450  -0.3300  -0.3280
 -0.3213  -0.3195  -0.3171  -0.3064  -0.3016  -0.2896  -0.2800  -0.2798
 -0.2562

          Ground-State Mulliken Net Atomic Charges

     Atom                 Charge (a.u.)
  ----------------------------------------
      1 C                     0.145936
      2 C                    -0.374160
      3 C                    -0.428303
      4 C                     0.602553
      5 C                    -0.155457
      6 C                     0.139542
      7 C                    -0.829671
      8 C                    -0.460221
      9 C                     1.891899
     10 C                    -0.762062
     11 O                    -0.331513
     12 O                    -0.296807
     13 H                     0.204697
     14 H                     0.232126
     15 H                     0.225684
     16 H                     0.205781
     17 O                    -0.238713
     18 C                    -0.402088
     19 C                    -0.805668
     20 C                    -0.223835
     21 C                     0.035686
     22 C                     0.019130
     23 H                     0.324724
     24 H                     0.225132
     25 H                     0.239206
     26 H                     0.182224
     27 H                     0.184703
     28 H                     0.127266
     29 H                     0.125328
     30 H                     0.132182
     31 H                     0.131862
     32 H                     0.136501
     33 H                     0.136475
     34 C                    -0.177714
     35 H                     0.132721
     36 H                     0.132487
     37 C                    -0.405155
     38 H                     0.129094
     39 H                     0.128917
     40 C                    -0.278152
     41 C                    -0.720236
     42 H                     0.136321
     43 H                     0.136361
     44 H                     0.145869
     45 H                     0.153408
     46 H                     0.145925
  ----------------------------------------
  Sum of atomic charges =    -0.000018

                    Cartesian Multipole Moments
 -----------------------------------------------------------------
    Charge (ESU x 10^10)
                -0.0001
    Dipole Moment (Debye)
         X       2.8036      Y       0.4378      Z      -1.4078
       Tot       3.1676
    Quadrupole Moments (Debye-Ang)
        XX    -108.6716     XY      12.3433     YY    -136.3262
        XZ      -5.2852     YZ      -4.5458     ZZ    -137.3445

 Total job time:  146.98s(wall), 1145.06s(cpu)
        *  Thank you very much for using Q-Chem.  Have a nice day.  *
