 Gaussian 16, Revision A.03,
 Gaussian 16:  ES64L-G16RevA.03 25-Dec-2016

 ----------------------------------------------------------------
 #P UB3LYP/6-311++G(d,p) SCRF=(PCM,Solvent=n,n-DiMethylFormamide)
 ----------------------------------------------------------------

 ------------------
 Quinone PCM in DMF
 ------------------
 Symbolic Z-matrix:
 Charge =  0 Multiplicity = 1

                         Standard orientation:
 ---------------------------------------------------------------------
 Center     Atomic      Atomic             Coordinates (Angstroms)
 Number     Number       Type             X           Y           Z
 ---------------------------------------------------------------------
      1          6           0       -1.478697   -0.462406   -0.000065
      2          6           0       -0.842008   -1.788971    0.000068
      3          6           0        0.492022   -1.881351    0.000196
      4          6           0        1.369782   -0.669553   -0.000021
      5          6           0        0.750634    0.671068   -0.000230
      6          6           0       -0.600919    0.748105   -0.000018
      7          8           0       -2.691784   -0.300067   -0.000157
      8          8           0        2.583820   -0.816240   -0.000083
      9          8           0       -1.270259    1.912467    0.000226
     10          6           0        1.650787    1.869444   -0.000099
     11          1           0       -1.502346   -2.648365    0.000081
     12          1           0        1.014764   -2.831190    0.000310
     13          1           0        2.298386    1.862023    0.881129
     14          1           0        1.072475    2.791974   -0.009149
     15          1           0        2.311584    1.852112   -0.871166
     16          1           0       -2.218691    1.686155   -0.000078
 ---------------------------------------------------------------------

 SCF Done:  E(UB3LYP) =  -496.160813196     A.U. after   15 cycles

 The electronic state is 1-A.
 Alpha  occ. eigenvalues --  -19.18211 -19.15925 -19.14005 -10.29982 -10.28641
 Alpha  occ. eigenvalues --  -10.27064 -10.21890 -10.21611 -10.20841 -10.17664
 Alpha  occ. eigenvalues --   -1.11295  -1.07447  -1.07075  -0.86783  -0.80861
 Alpha  occ. eigenvalues --   -0.72884  -0.69912  -0.63963  -0.61990  -0.56054
 Alpha  occ. eigenvalues --   -0.53467  -0.50816  -0.48267  -0.47703  -0.45099
 Alpha  occ. eigenvalues --   -0.44356  -0.43689  -0.43113  -0.41354  -0.39822
 Alpha  occ. eigenvalues --   -0.39790  -0.38862  -0.31784  -0.30889  -0.28666
 Alpha  occ. eigenvalues --   -0.26359
 Alpha virt. eigenvalues --   -0.13840  -0.02212  -0.00890  -0.00392   0.00673
 Alpha virt. eigenvalues --    0.01004   0.03069   0.03574   0.03745   0.05060
 Alpha virt. eigenvalues --    0.06685   0.06877   0.07328   0.08135   0.08841

  Beta  occ. eigenvalues --  -19.18211 -19.15925 -19.14005 -10.29982 -10.28641
  Beta  occ. eigenvalues --  -10.27064 -10.21890 -10.21611 -10.20841 -10.17664
  Beta  occ. eigenvalues --   -1.11295  -1.07447  -1.07075  -0.86783  -0.80861
  Beta  occ. eigenvalues --   -0.72884  -0.69912  -0.63963  -0.61990  -0.56054
  Beta  occ. eigenvalues --   -0.53467  -0.50816  -0.48267  -0.47703  -0.45099
  Beta  occ. eigenvalues --   -0.44356  -0.43689  -0.43113  -0.41354  -0.39822
  Beta  occ. eigenvalues --   -0.39790  -0.38862  -0.31784  -0.30889  -0.28666
  Beta  occ. eigenvalues --   -0.26359
  Beta virt. eigenvalues --   -0.13840  -0.02212  -0.00890  -0.00392   0.00673
  Beta virt. eigenvalues --    0.01004   0.03069   0.03574   0.03745   0.05060
  Beta virt. eigenvalues --    0.06685   0.06877   0.07328   0.08135   0.08841

 Mulliken charges and spin densities:
               1          2
     1  C   -0.057513  -0.000000
     2  C    0.084485  -0.000000
     3  C    0.296686   0.000000
     4  C   -1.036744  -0.000000
     5  C    2.175848  -0.000000
     6  C   -1.764164   0.000000
     7  O   -0.314508   0.000000
     8  O   -0.283671   0.000000
     9  O   -0.234486  -0.000000
    10  C   -0.216338  -0.000000
    11  H    0.247072   0.000000
    12  H    0.241951   0.000000
    13  H    0.183876  -0.000000
    14  H    0.188624  -0.000000
    15  H    0.182953  -0.000000
    16  H    0.305928   0.000000
 Sum of Mulliken charges =  -0.00000  -0.00000

 Dipole moment (field-independent basis, Debye):
    X=             -1.4555    Y=             -0.8428    Z=              0.0012  Tot=              1.6819
 Quadrupole moment (field-independent basis, Debye-Ang):
   XX=            -72.2840   YY=            -51.9735   ZZ=            -57.4029
   XY=              2.8599   XZ=              0.0027   YZ=              0.0001

 Normal termination of Gaussian 16 at Wed Jan 24 22:48:33 2024.
