 Q-Chem 5.4, Q-Chem, Inc., Pleasanton, CA (2021)
 Q-Chem 5.4.0 for Intel X86 EM64T Linux

User input:
--------------------------------------------------------------
$molecule
-2 1
C                  6.8763690000     -1.6273040000     -0.2414080000
C                  7.4606330000     -0.6711420000     -1.0496840000
C                  6.6284040000      0.3430880000     -1.6301670000
C                  5.2767710000      0.3371920000     -1.3438790000
C                  4.6596270000     -0.6301060000     -0.5143170000
C                  5.4933330000     -1.6537820000      0.0604220000
C                  4.9698270000     -2.6962060000      0.9263980000
C                  3.5388790000     -2.6244370000      1.1668310000
C                  2.7051020000     -1.6010350000      0.5917120000
C                  3.2286000000     -0.5586330000     -0.2742950000
C                  2.9219350000     -3.5911240000      1.9972260000
C                  1.5687070000     -3.6027200000      2.2757250000
C                  0.7396840000     -2.5770430000      1.7109770000
C                  1.3220790000     -1.6274250000      0.8936980000
O                  5.7095240000     -3.6043560000      1.4363280000
O                  2.4888700000      0.3494100000     -0.7843700000
C                  0.9789600000     -4.6476590000      3.1961860000
C                 -0.7505410000     -2.5650360000      1.9678990000
C                  8.9407680000     -0.7192850000     -1.3559800000
C                  7.2286540000      1.4252400000     -2.4994260000
H                  7.4785290000     -2.4170540000      0.1989480000
H                  4.6244420000      1.1019970000     -1.7558980000
H                  3.5772420000     -4.3453570000      2.4237650000
H                  0.7169470000     -0.8482330000      0.4388460000
H                  1.7423190000     -5.3709570000      3.4969630000
H                  0.1598440000     -5.2044530000      2.7276320000
H                  0.5587040000     -4.2085430000      4.1181090000
H                 -0.9912510000     -2.5362000000      3.0364140000
H                 -1.2546020000     -3.4623250000      1.5676490000
H                 -1.2151050000     -1.6926490000      1.4994540000
H                  9.4236000000     -1.5262750000     -0.7974280000
H                  9.4524140000      0.2149680000     -1.0992760000
H                  9.1441840000     -0.8918520000     -2.4275360000
H                  7.7787000000      1.0183750000     -3.3552240000
H                  7.9480040000      2.0571050000     -1.9492480000
H                  6.4471420000      2.0834020000     -2.8898170000
$end

$rem
BASIS  =  6-311++G(d,p)
GUI  =  2
JOB_TYPE  =  SP
METHOD  =  B3LYP
SCF_CONVERGENCE  = 8
SOLVENT_METHOD = sm12
$end

$smx
solvent dimethylformamide
charges CM5
$end

--------------------------------------------------------------

             Standard Nuclear Orientation (Angstroms)
    I     Atom           X                Y                Z
 ----------------------------------------------------------------
    1      C       6.8763690000    -1.6273040000    -0.2414080000
    2      C       7.4606330000    -0.6711420000    -1.0496840000
    3      C       6.6284040000     0.3430880000    -1.6301670000
    4      C       5.2767710000     0.3371920000    -1.3438790000
    5      C       4.6596270000    -0.6301060000    -0.5143170000
    6      C       5.4933330000    -1.6537820000     0.0604220000
    7      C       4.9698270000    -2.6962060000     0.9263980000
    8      C       3.5388790000    -2.6244370000     1.1668310000
    9      C       2.7051020000    -1.6010350000     0.5917120000
   10      C       3.2286000000    -0.5586330000    -0.2742950000
   11      C       2.9219350000    -3.5911240000     1.9972260000
   12      C       1.5687070000    -3.6027200000     2.2757250000
   13      C       0.7396840000    -2.5770430000     1.7109770000
   14      C       1.3220790000    -1.6274250000     0.8936980000
   15      O       5.7095240000    -3.6043560000     1.4363280000
   16      O       2.4888700000     0.3494100000    -0.7843700000
   17      C       0.9789600000    -4.6476590000     3.1961860000
   18      C      -0.7505410000    -2.5650360000     1.9678990000
   19      C       8.9407680000    -0.7192850000    -1.3559800000
   20      C       7.2286540000     1.4252400000    -2.4994260000
   21      H       7.4785290000    -2.4170540000     0.1989480000
   22      H       4.6244420000     1.1019970000    -1.7558980000
   23      H       3.5772420000    -4.3453570000     2.4237650000
   24      H       0.7169470000    -0.8482330000     0.4388460000
   25      H       1.7423190000    -5.3709570000     3.4969630000
   26      H       0.1598440000    -5.2044530000     2.7276320000
   27      H       0.5587040000    -4.2085430000     4.1181090000
   28      H      -0.9912510000    -2.5362000000     3.0364140000
   29      H      -1.2546020000    -3.4623250000     1.5676490000
   30      H      -1.2151050000    -1.6926490000     1.4994540000
   31      H       9.4236000000    -1.5262750000    -0.7974280000
   32      H       9.4524140000     0.2149680000    -1.0992760000
   33      H       9.1441840000    -0.8918520000    -2.4275360000
   34      H       7.7787000000     1.0183750000    -3.3552240000
   35      H       7.9480040000     2.0571050000    -1.9492480000
   36      H       6.4471420000     2.0834020000    -2.8898170000
 ----------------------------------------------------------------

   17    -846.2089707045      2.25e-09  Convergence criterion met
 Total energy in the final basis set =     -846.4987303590

                    Orbital Energies (a.u.)
 --------------------------------------------------------------

 Alpha MOs
 -- Occupied --
-19.0224 -19.0224 -10.1793 -10.1792 -10.1736 -10.1736 -10.1735 -10.1735
-10.1698 -10.1698 -10.1694 -10.1694 -10.1572 -10.1571 -10.1571 -10.1571
-10.1432 -10.1432 -10.1429 -10.1429  -0.9441  -0.9414  -0.8460  -0.8450
 -0.7849  -0.7586  -0.7584  -0.7577  -0.6990  -0.6961  -0.6942  -0.6595
 -0.6234  -0.6010  -0.5770  -0.5723  -0.5362  -0.4962  -0.4905  -0.4689
 -0.4471  -0.4350  -0.4339  -0.4331  -0.4323  -0.4168  -0.4069  -0.4009
 -0.4007  -0.3979  -0.3947  -0.3870  -0.3865  -0.3827  -0.3684  -0.3671
 -0.3595  -0.3531  -0.3356  -0.3285  -0.3280  -0.3227  -0.3075  -0.2959
 -0.2433  -0.2316  -0.2242  -0.2191  -0.2026  -0.1952  -0.1069

          Ground-State Mulliken Net Atomic Charges

     Atom                 Charge (a.u.)
  ----------------------------------------
      1 C                    -1.461235
      2 C                     1.274584
      3 C                     1.279295
      4 C                    -1.463088
      5 C                    -2.096102
      6 C                    -2.099201
      7 C                    -1.878918
      8 C                    -2.091879
      9 C                    -2.099779
     10 C                    -1.878391
     11 C                    -1.464114
     12 C                     1.279309
     13 C                     1.279179
     14 C                    -1.463780
     15 O                    -0.344759
     16 O                    -0.344892
     17 C                     2.012667
     18 C                     2.011922
     19 C                     2.012550
     20 C                     2.009586
     21 H                    -0.073868
     22 H                    -0.073667
     23 H                    -0.073462
     24 H                    -0.073591
     25 H                     0.379901
     26 H                     0.295022
     27 H                     0.280564
     28 H                     0.294887
     29 H                     0.280893
     30 H                     0.379720
     31 H                     0.379821
     32 H                     0.295187
     33 H                     0.280482
     34 H                     0.295035
     35 H                     0.280402
     36 H                     0.379720
  ----------------------------------------
  Sum of atomic charges =    -2.000000

                    Cartesian Multipole Moments
 -----------------------------------------------------------------
    Charge (ESU x 10^10)
                -9.6064
    Dipole Moment (Debye)
         X     -39.3869      Y      15.6275      Z      -3.1270
       Tot      42.4891
    Quadrupole Moments (Debye-Ang)
        XX    -327.7506     XY      76.2259     YY    -187.5691
        XZ     -14.8565     YZ      23.8676     ZZ    -147.2311

 Total job time:  1303.75s(wall), 10063.79s(cpu)
        *  Thank you very much for using Q-Chem.  Have a nice day.  *
