 Gaussian 16, Revision A.03,
 Gaussian 16:  ES64L-G16RevA.03 25-Dec-2016

 --------------------------------------
 #P UB3LYP/6-311++G(d,p) nosym opt freq
 --------------------------------------

 -------
 Radical
 -------
 Symbolic Z-matrix:
 Charge = -1 Multiplicity = 2

 SCF Done:  E(UB3LYP) =  -1302.30668245     A.U. after   27 cycles
 Optimization completed.
    -- Stationary point found.
 Normal termination of Gaussian 16 at Wed Dec 27 20:00:02 2023.

 ----------------------------------------------------------------------
 #P Geom=AllCheck Guess=TCheck SCRF=Check GenChk UB3LYP/6-311++G(d,p) F
 req
 ----------------------------------------------------------------------

 Structure from the checkpoint file:  "135-rad.chk"
 -------
 Radical
 -------
 Charge = -1 Multiplicity = 2

                          Input orientation:
 ---------------------------------------------------------------------
 Center     Atomic      Atomic             Coordinates (Angstroms)
 Number     Number       Type             X           Y           Z
 ---------------------------------------------------------------------
      1          6           0        5.574606   -4.606459   -1.010683
      2          6           0        6.473511   -4.093992   -1.977122
      3          6           0        6.171140   -2.819261   -2.577434
      4          6           0        4.404196   -3.935917   -0.607727
      5          6           0        4.139258   -2.652988   -1.239879
      6          6           0        5.012809   -2.142214   -2.187283
      7          6           0        3.453786   -4.455282    0.399778
      8          6           0        2.283535   -3.617957    0.695524
      9          6           0        2.039348   -2.366488    0.068641
     10          6           0        2.955500   -1.831370   -0.924176
     11          6           0        1.354570   -4.085054    1.654119
     12          6           0        0.233017   -3.352138    1.982059
     13          6           0       -0.006802   -2.107192    1.356179
     14          6           0        0.883813   -1.630171    0.418502
     15          6           0        7.666056   -4.757335   -2.400374
     16          6           0        8.495508   -4.205637   -3.342697
     17          6           0        8.193454   -2.947636   -3.932551
     18          6           0        7.059337   -2.280054   -3.553442
     19          8           0        3.603074   -5.546256    0.991322
     20          8           0        2.759899   -0.729028   -1.490201
     21         17           0        6.012464   -6.176658   -0.318023
     22          1           0        4.763235   -1.181907   -2.624070
     23          1           0        1.561218   -5.041535    2.119051
     24          1           0       -0.466647   -3.730787    2.721207
     25          1           0       -0.889821   -1.530387    1.614492
     26          1           0        0.729799   -0.680081   -0.079726
     27          1           0        7.911504   -5.714593   -1.962602
     28          1           0        9.393824   -4.736112   -3.641856
     29          1           0        8.859685   -2.524087   -4.676857
     30          1           0        6.809825   -1.318374   -3.991071
 ---------------------------------------------------------------------

 SCF Done:  E(UB3LYP) =  -1302.30668245     A.U. after    2 cycles

 Alpha  occ. eigenvalues -- -101.43206 -18.95621 -18.95294 -10.12930 -10.11018
 Alpha  occ. eigenvalues --  -10.10744 -10.08850 -10.08427 -10.08387 -10.08358
 Alpha  occ. eigenvalues --  -10.08335 -10.08016 -10.07840 -10.06814 -10.06568
 Alpha  occ. eigenvalues --  -10.06518 -10.06353 -10.05940 -10.05877 -10.05767
 Alpha  occ. eigenvalues --  -10.05729  -9.34706  -7.11156  -7.10234  -7.10110
 Alpha  occ. eigenvalues --   -0.88551  -0.88263  -0.78748  -0.74702  -0.74466
 Alpha  occ. eigenvalues --   -0.71784  -0.67151  -0.66232  -0.63829  -0.63503
 Alpha  occ. eigenvalues --   -0.61719  -0.55334  -0.54946  -0.51713  -0.50237
 Alpha  occ. eigenvalues --   -0.47811  -0.45163  -0.44372  -0.41988  -0.40047
 Alpha  occ. eigenvalues --   -0.39266  -0.36558  -0.35113  -0.34590  -0.34400
 Alpha  occ. eigenvalues --   -0.32571  -0.32004  -0.31541  -0.31165  -0.30314
 Alpha  occ. eigenvalues --   -0.29934  -0.28924  -0.28834  -0.27000  -0.26572
 Alpha  occ. eigenvalues --   -0.26479  -0.24819  -0.24134  -0.23666  -0.23267
 Alpha  occ. eigenvalues --   -0.22418  -0.20860  -0.19777  -0.17718  -0.15312
 Alpha  occ. eigenvalues --   -0.14305  -0.14097  -0.12438  -0.11943  -0.11072
 Alpha  occ. eigenvalues --   -0.02007
 Alpha virt. eigenvalues --    0.03171   0.06758   0.07671   0.07929   0.08276
 Alpha virt. eigenvalues --    0.08589   0.09842   0.09922   0.11240   0.11494
 Alpha virt. eigenvalues --    0.11665   0.13338   0.13384   0.13544   0.13672

  Beta  occ. eigenvalues -- -101.43205 -18.95068 -18.94681 -10.12911 -10.10904
  Beta  occ. eigenvalues --  -10.10608 -10.08802 -10.08434 -10.08369 -10.08310
  Beta  occ. eigenvalues --  -10.08298 -10.08014 -10.07751 -10.06731 -10.06521
  Beta  occ. eigenvalues --  -10.06464 -10.06368 -10.05945 -10.05806 -10.05755
  Beta  occ. eigenvalues --  -10.05644  -9.34705  -7.11157  -7.10226  -7.10109
  Beta  occ. eigenvalues --   -0.87561  -0.87258  -0.78633  -0.74628  -0.74273
  Beta  occ. eigenvalues --   -0.71638  -0.66846  -0.66142  -0.63638  -0.63322
  Beta  occ. eigenvalues --   -0.61543  -0.54808  -0.54728  -0.51458  -0.50173
  Beta  occ. eigenvalues --   -0.47755  -0.44940  -0.44180  -0.41917  -0.39950
  Beta  occ. eigenvalues --   -0.39103  -0.36367  -0.34992  -0.34510  -0.34328
  Beta  occ. eigenvalues --   -0.32473  -0.31959  -0.31133  -0.30856  -0.30150
  Beta  occ. eigenvalues --   -0.29765  -0.28374  -0.28061  -0.26835  -0.26426
  Beta  occ. eigenvalues --   -0.25248  -0.24037  -0.23949  -0.23599  -0.22312
  Beta  occ. eigenvalues --   -0.22263  -0.20056  -0.19700  -0.17504  -0.13884
  Beta  occ. eigenvalues --   -0.13725  -0.12900  -0.11922  -0.11300  -0.10538
  Beta virt. eigenvalues --    0.03595   0.03795   0.06754   0.07921   0.08584
  Beta virt. eigenvalues --    0.08614   0.08720   0.09839   0.09915   0.11245
  Beta virt. eigenvalues --    0.11662   0.11669   0.13334   0.13549   0.13680

 Mulliken charges and spin densities:
               1          2
     1  C    0.577596   0.016396
     2  C    0.461226   0.029016
     3  C    1.192304   0.045835
     4  C    0.160322   0.050349
     5  C    0.802063   0.041026
     6  C    0.123101  -0.002359
     7  C   -2.129733   0.053781
     8  C   -0.139755   0.075389
     9  C    0.570218   0.044117
    10  C   -0.917870   0.063407
    11  C    0.155840   0.019331
    12  C   -0.415330   0.048615
    13  C   -0.426883   0.036876
    14  C    0.144207   0.022131
    15  C   -1.225889   0.002336
    16  C   -0.678945   0.013140
    17  C   -0.238256   0.036567
    18  C   -0.247736  -0.019114
    19  O   -0.228239   0.228314
    20  O   -0.341484   0.207710
    21  Cl   0.559434  -0.000326
    22  H    0.127626  -0.001035
    23  H    0.163393  -0.001185
    24  H    0.128103  -0.003728
    25  H    0.128562  -0.003035
    26  H    0.154075  -0.001075
    27  H    0.141678   0.000150
    28  H    0.145684  -0.001272
    29  H    0.131614  -0.002979
    30  H    0.123074   0.001623
 Sum of Mulliken charges =  -1.00000   1.00000

 Dipole moment (field-independent basis, Debye):
    X=            -17.8189    Y=             16.7163    Z=              1.9496  Tot=             24.5101
 Quadrupole moment (field-independent basis, Debye-Ang):
   XX=           -214.0232   YY=           -215.0059   ZZ=           -143.9861
   XY=             70.0983   XZ=             10.4746   YZ=              0.7394

  Exact polarizability: 398.655 -64.617 257.623-158.397 -43.651 258.018
 Approx polarizability: 600.364-107.184 487.224-221.852-112.856 421.458

                      1                      2                      3
                      A                      A                      A
 Frequencies --     26.0412                35.7860                88.0832
 Red. masses --     10.7733                 7.3121                 4.7092
 Frc consts  --      0.0043                 0.0055                 0.0215
 IR Inten    --      2.2951                 2.0011                 1.2029

                      4                      5                      6
                      A                      A                      A
 Frequencies --    124.7884               131.8835               159.6433
 Red. masses --      4.8981                 6.0167                 6.4907
 Frc consts  --      0.0449                 0.0617                 0.0975
 IR Inten    --      0.2683                 0.9651                 5.1919

                      7                      8                      9
                      A                      A                      A
 Frequencies --    178.4058               239.3276               272.7008
 Red. masses --      6.3686                10.8432                 5.1938
 Frc consts  --      0.1194                 0.3659                 0.2276
 IR Inten    --      1.1579                 0.3437                 1.7515

                     10                     11                     12
                      A                      A                      A
 Frequencies --    274.9535               285.5686               304.1439
 Red. masses --      7.3120                 5.9591                 7.6203
 Frc consts  --      0.3257                 0.2863                 0.4153
 IR Inten    --      0.6803                 0.2953                 0.3650

                     13                     14                     15
                      A                      A                      A
 Frequencies --    333.8397               389.7137               405.9647
 Red. masses --     12.4988                11.4781                 8.3560
 Frc consts  --      0.8207                 1.0271                 0.8114
 IR Inten    --      0.4592                 4.1481                 2.6366

                     16                     17                     18
                      A                      A                      A
 Frequencies --    424.0442               429.1549               463.9253
 Red. masses --      3.5857                 5.8294                 3.2776
 Frc consts  --      0.3799                 0.6326                 0.4156
 IR Inten    --      0.3740                 0.0000                12.2958

                     19                     20                     21
                      A                      A                      A
 Frequencies --    483.1901               487.7891               520.8470
 Red. masses --     10.5415                 7.9087                 4.1966
 Frc consts  --      1.4501                 1.1087                 0.6708
 IR Inten    --      2.1851                 4.4557                 0.2056

                     22                     23                     24
                      A                      A                      A
 Frequencies --    545.9881               584.2809               590.4497
 Red. masses --      3.8754                 7.9183                 7.4036
 Frc consts  --      0.6807                 1.5927                 1.5207
 IR Inten    --      3.4959                 5.8354                 8.8462

                     25                     26                     27
                      A                      A                      A
 Frequencies --    608.4021               652.0276               676.5139
 Red. masses --      4.9118                 6.6798                 6.4238
 Frc consts  --      1.0712                 1.6732                 1.7322
 IR Inten    --      0.0274                 0.1272                15.4805

                     28                     29                     30
                      A                      A                      A
 Frequencies --    709.5337               712.3138               730.7146
 Red. masses --      3.8510                 2.5768                 7.2880
 Frc consts  --      1.1423                 0.7703                 2.2927
 IR Inten    --      7.8828                31.1183                13.1011

                     31                     32                     33
                      A                      A                      A
 Frequencies --    747.4251               748.5202               761.0570
 Red. masses --      1.4145                 7.2151                 3.1439
 Frc consts  --      0.4656                 2.3818                 1.0729
 IR Inten    --     74.4695                19.5532                 7.7682

                     34                     35                     36
                      A                      A                      A
 Frequencies --    785.4843               816.8714               841.5079
 Red. masses --      2.0765                 4.1010                 6.0952
 Frc consts  --      0.7549                 1.6123                 2.5430
 IR Inten    --     12.2088                 1.5107                22.7604

                     37                     38                     39
                      A                      A                      A
 Frequencies --    844.7634               863.1059               871.2646
 Red. masses --      1.5179                 7.0766                 1.5798
 Frc consts  --      0.6382                 3.1060                 0.7066
 IR Inten    --      0.7263                 1.6298                 0.1008

                     40                     41                     42
                      A                      A                      A
 Frequencies --    936.7787               959.2327               964.4223
 Red. masses --      1.3870                 6.0166                 1.3727
 Frc consts  --      0.7171                 3.2618                 0.7523
 IR Inten    --      8.5761                34.3430                 6.1973

                     43                     44                     45
                      A                      A                      A
 Frequencies --    973.8850               981.3607               984.6141
 Red. masses --      1.2852                 7.5762                 1.3234
 Frc consts  --      0.7182                 4.2989                 0.7559
 IR Inten    --      0.9600                 6.6948                 1.9948

                     46                     47                     48
                      A                      A                      A
 Frequencies --    989.8622              1032.9975              1040.8791
 Red. masses --      1.3057                 2.3092                 1.9727
 Frc consts  --      0.7538                 1.4518                 1.2593
 IR Inten    --      1.2334                75.7901                11.7802

                     49                     50                     51
                      A                      A                      A
 Frequencies --   1085.3467              1113.2693              1139.5733
 Red. masses --      5.4554                 1.9669                 1.6088
 Frc consts  --      3.7863                 1.4362                 1.2309
 IR Inten    --    125.3116                83.0969                67.2044

                     52                     53                     54
                      A                      A                      A
 Frequencies --   1161.7997              1175.3953              1180.6635
 Red. masses --      1.3623                 1.5445                 1.5208
 Frc consts  --      1.0834                 1.2572                 1.2491
 IR Inten    --     34.3908                 7.6862                20.5621

                     55                     56                     57
                      A                      A                      A
 Frequencies --   1211.1672              1222.5897              1247.5287
 Red. masses --      2.1766                 1.8257                 3.5816
 Frc consts  --      1.8812                 1.6079                 3.2842
 IR Inten    --     39.0361                60.8111                43.1132

                     58                     59                     60
                      A                      A                      A
 Frequencies --   1267.3075              1291.3806              1333.9793
 Red. masses --      2.3372                 3.4767                 2.9534
 Frc consts  --      2.2116                 3.4161                 3.0965
 IR Inten    --     21.9343               174.4470               235.6481

                     61                     62                     63
                      A                      A                      A
 Frequencies --   1343.1965              1369.9373              1384.7303
 Red. masses --      3.0734                 9.8344                 3.4930
 Frc consts  --      3.2670                10.8742                 3.9462
 IR Inten    --     53.9390                20.5920                42.2217

                     64                     65                     66
                      A                      A                      A
 Frequencies --   1402.4909              1434.2331              1474.1202
 Red. masses --      4.5943                 3.1709                 3.2943
 Frc consts  --      5.3244                 3.8431                 4.2178
 IR Inten    --    563.7065               176.5459                31.0468

                     67                     68                     69
                      A                      A                      A
 Frequencies --   1481.0418              1487.4364              1505.9880
 Red. masses --      2.5792                 2.8960                 3.3160
 Frc consts  --      3.3332                 3.7751                 4.4311
 IR Inten    --     41.7135               248.5710                46.9590

                     70                     71                     72
                      A                      A                      A
 Frequencies --   1547.0712              1561.1426              1598.7982
 Red. masses --      7.4868                 6.7536                 7.0124
 Frc consts  --     10.5576                 9.6977                10.5609
 IR Inten    --      6.7101               131.9687                82.6609

                     73                     74                     75
                      A                      A                      A
 Frequencies --   1614.9722              1631.0150              1634.7289
 Red. masses --      8.3106                 6.5871                 5.4343
 Frc consts  --     12.7707                10.3243                 8.5563
 IR Inten    --     19.5065                30.8598                 6.5082

                     76                     77                     78
                      A                      A                      A
 Frequencies --   3136.8310              3144.5675              3155.7321
 Red. masses --      1.0848                 1.0842                 1.0913
 Frc consts  --      6.2892                 6.3167                 6.4032
 IR Inten    --     21.9985                 5.0743                56.8501

                     79                     80                     81
                      A                      A                      A
 Frequencies --   3155.9868              3171.7304              3179.8746
 Red. masses --      1.0895                 1.0960                 1.0895
 Frc consts  --      6.3936                 6.4963                 6.4906
 IR Inten    --     26.1519                53.5317                 9.4827

                     82                     83                     84
                      A                      A                      A
 Frequencies --   3185.4347              3190.0382              3211.1260
 Red. masses --      1.0920                 1.0922                 1.0912
 Frc consts  --      6.5282                 6.5486                 6.6292
 IR Inten    --     15.5126                27.2327                10.9737

 - Thermochemistry -
 -------------------
 Temperature   298.150 Kelvin.  Pressure   1.00000 Atm.
 Atom     1 has atomic number  6 and mass  12.00000

 Molecular mass:   292.02911 amu.
 Principal axes and moments of inertia in atomic units:
                           1         2         3
     Eigenvalues --  3000.883569011.39285**********
           X            0.85040  -0.11415   0.51360
           Y           -0.16216   0.87180   0.46225
           Z           -0.50052  -0.47638   0.72287
 This molecule is an asymmetric top.
 Rotational symmetry number  1.
 Warning -- assumption of classical behavior for rotation
           may cause significant error
 Rotational temperatures (Kelvin)      0.02886     0.00961     0.00721
 Rotational constants (GHZ):           0.60140     0.20027     0.15024
 Zero-point vibrational energy     558932.9 (Joules/Mol)
                                  133.58816 (Kcal/Mol)
 Warning -- explicit consideration of  25 degrees of freedom as
           vibrations may cause significant error
 Vibrational temperatures:     37.47    51.49   126.73   179.54   189.75
          (Kelvin)            229.69   256.69   344.34   392.36   395.60
                              410.87   437.60   480.32   560.71   584.09
                              610.11   617.46   667.49   695.20   701.82
                              749.38   785.56   840.65   849.53   875.35
                              938.12   973.35  1020.86  1024.86  1051.34
                             1075.38  1076.95  1094.99  1130.14  1175.30
                             1210.74  1215.43  1241.82  1253.56  1347.82
                             1380.12  1387.59  1401.20  1411.96  1416.64
                             1424.19  1486.25  1497.59  1561.57  1601.75
                             1639.59  1671.57  1691.13  1698.71  1742.60
                             1759.03  1794.92  1823.37  1858.01  1919.30
                             1932.56  1971.03  1992.32  2017.87  2063.54
                             2120.93  2130.89  2140.09  2166.78  2225.89
                             2246.14  2300.31  2323.58  2346.67  2352.01
                             4513.20  4524.33  4540.39  4540.76  4563.41
                             4575.13  4583.13  4589.75  4620.09

 Zero-point correction=                           0.212886 (Hartree/Particle)
 Thermal correction to Energy=                    0.228168
 Thermal correction to Enthalpy=                  0.229112
 Thermal correction to Gibbs Free Energy=         0.168761
 Sum of electronic and zero-point Energies=          -1302.093796
 Sum of electronic and thermal Energies=             -1302.078515
 Sum of electronic and thermal Enthalpies=           -1302.077571
 Sum of electronic and thermal Free Energies=        -1302.137921

                     E (Thermal)             CV                S
                      KCal/Mol        Cal/Mol-Kelvin    Cal/Mol-Kelvin
 Total                  143.177             62.029            127.018
 Electronic               0.000              0.000              1.377
 Translational            0.889              2.981             42.912
 Rotational               0.889              2.981             34.140
 Vibrational            141.400             56.067             48.588
 Vibration     1          0.593              1.985              6.110
 Vibration     2          0.594              1.982              5.480
 Vibration     3          0.601              1.958              3.702
 Vibration     4          0.610              1.928              3.025
 Vibration     5          0.612              1.921              2.918
 Vibration     6          0.622              1.892              2.554
 Vibration     7          0.629              1.869              2.345
 Vibration     8          0.657              1.780              1.808
 Vibration     9          0.676              1.724              1.579
 Vibration    10          0.677              1.720              1.565
 Vibration    11          0.683              1.700              1.500
 Vibration    12          0.695              1.666              1.394
 Vibration    13          0.715              1.608              1.241
 Vibration    14          0.758              1.492              1.001
 Vibration    15          0.771              1.457              0.941
 Vibration    16          0.786              1.418              0.878
 Vibration    17          0.791              1.407              0.861
 Vibration    18          0.821              1.330              0.755
 Vibration    19          0.839              1.287              0.702
 Vibration    20          0.844              1.277              0.689
 Vibration    21          0.876              1.204              0.608
 Vibration    22          0.901              1.148              0.553
 Vibration    23          0.941              1.065              0.477
 Vibration    24          0.948              1.052              0.466
 Vibration    25          0.967              1.014              0.435

 Optimization completed.
    -- Stationary point found.
 Normal termination of Gaussian 16 at Wed Dec 27 21:58:49 2023.
