 Q-Chem 5.4, Q-Chem, Inc., Pleasanton, CA (2021)
 Q-Chem 5.4.0 for Intel X86 EM64T Linux

User input:
--------------------------------------------------------------
$molecule
-1 2
C                  5.5746060000     -4.6064590000     -1.0106830000
C                  6.4735110000     -4.0939920000     -1.9771220000
C                  6.1711400000     -2.8192610000     -2.5774340000
C                  4.4041960000     -3.9359170000     -0.6077270000
C                  4.1392580000     -2.6529880000     -1.2398790000
C                  5.0128090000     -2.1422140000     -2.1872830000
C                  3.4537860000     -4.4552820000      0.3997780000
C                  2.2835350000     -3.6179570000      0.6955240000
C                  2.0393480000     -2.3664880000      0.0686410000
C                  2.9555000000     -1.8313700000     -0.9241760000
C                  1.3545700000     -4.0850540000      1.6541190000
C                  0.2330170000     -3.3521380000      1.9820590000
C                 -0.0068020000     -2.1071920000      1.3561790000
C                  0.8838130000     -1.6301710000      0.4185020000
C                  7.6660560000     -4.7573350000     -2.4003740000
C                  8.4955080000     -4.2056370000     -3.3426970000
C                  8.1934540000     -2.9476360000     -3.9325510000
C                  7.0593370000     -2.2800540000     -3.5534420000
O                  3.6030740000     -5.5462560000      0.9913220000
O                  2.7598990000     -0.7290280000     -1.4902010000
Cl                 6.0124640000     -6.1766580000     -0.3180230000
H                  4.7632350000     -1.1819070000     -2.6240700000
H                  1.5612180000     -5.0415350000      2.1190510000
H                 -0.4666470000     -3.7307870000      2.7212070000
H                 -0.8898210000     -1.5303870000      1.6144920000
H                  0.7297990000     -0.6800810000     -0.0797260000
H                  7.9115040000     -5.7145930000     -1.9626020000
H                  9.3938240000     -4.7361120000     -3.6418560000
H                  8.8596850000     -2.5240870000     -4.6768570000
H                  6.8098250000     -1.3183740000     -3.9910710000
$end
$rem
MAX_SCF_CYCLES=200
BASIS  =  6-311++G(d,p)
GUI  =  2
JOB_TYPE  =  SP
METHOD  =  B3LYP
SOLVENT_METHOD = COSMO
$end
$solvent
dielectric 37.219
opticaldielectric 1.43
$end

--------------------------------------------------------------

             Standard Nuclear Orientation (Angstroms)
    I     Atom           X                Y                Z
 ----------------------------------------------------------------
    1      C       1.3146242438    -1.0066114906     0.0000914172
    2      C       2.4884053156    -0.2148445049     0.0000511057
    3      C       2.3406957556     1.2186560104     0.0000479612
    4      C       0.0147157645    -0.4661509350     0.0002056530
    5      C      -0.0863589679     0.9848828387     0.0002016158
    6      C       1.0565263207     1.7693374121     0.0001166111
    7      C      -1.2225127022    -1.2769229194     0.0002895334
    8      C      -2.4935236771    -0.5403108684     0.0000818748
    9      C      -2.5748419330     0.8781994697     0.0000020879
   10      C      -1.3765339093     1.7000444602     0.0002224628
   11      C      -3.6957862245    -1.2850421694    -0.0000147122
   12      C      -4.9257936927    -0.6608040484    -0.0002017613
   13      C      -5.0029147748     0.7509968557    -0.0003283362
   14      C      -3.8453081177     1.4992809492    -0.0002201355
   15      C       3.8162737041    -0.7421919263    -0.0000381247
   16      C       4.9128993122     0.0810614945    -0.0001825916
   17      C       4.7627235576     1.4949844481    -0.0001965806
   18      C       3.5061427472     2.0396085159    -0.0000486254
   19      O      -1.2283965101    -2.5268832627     0.0002719475
   20      O      -1.4246145016     2.9536353779     0.0001552407
   21      Cl      1.5757687301    -2.7584179599    -0.0001429601
   22      H       0.9189381105     2.8446648427     0.0000952838
   23      H      -3.6094634477    -2.3649817206     0.0000733581
   24      H      -5.8358801908    -1.2532456950    -0.0002748797
   25      H      -5.9713470074     1.2422108120    -0.0004966605
   26      H      -3.8691260495     2.5828192090    -0.0002980468
   27      H       3.9493950769    -1.8148105085    -0.0000145056
   28      H       5.9079054417    -0.3523370101    -0.0002679897
   29      H       5.6401779742     2.1332027995    -0.0002683779
   30      H       3.3688234401     3.1165241155    -0.0000120975
 ----------------------------------------------------------------

   10   -1302.3065484867      8.76e-06  Convergence criterion met
 Total energy in the final basis set =    -1302.3065484867
    4   -1302.3856685891      9.95e-06  Convergence criterion met
 Total energy in the final basis set =    -1302.3856685891

                    Orbital Energies (a.u.)
 --------------------------------------------------------------

 Alpha MOs
 -- Occupied --
******** -19.0818 -19.0789 -10.2428 -10.2338 -10.2303 -10.1972 -10.1943
-10.1912 -10.1831 -10.1803 -10.1801 -10.1788 -10.1786 -10.1759 -10.1754
-10.1739 -10.1736 -10.1731 -10.1712 -10.1701  -9.4630  -7.2273  -7.2184
 -7.2171  -1.0123  -1.0095  -0.8981  -0.8594  -0.8546  -0.8289  -0.7812
 -0.7666  -0.7523  -0.7446  -0.7278  -0.6666  -0.6573  -0.6266  -0.6069
 -0.5864  -0.5601  -0.5568  -0.5292  -0.5060  -0.4983  -0.4773  -0.4618
 -0.4497  -0.4470  -0.4339  -0.4333  -0.4286  -0.4239  -0.4190  -0.4171
 -0.4087  -0.4013  -0.3896  -0.3786  -0.3682  -0.3593  -0.3504  -0.3493
 -0.3422  -0.3378  -0.3213  -0.3148  -0.2848  -0.2687  -0.2588  -0.2522
 -0.2512  -0.2361  -0.2298  -0.1407

 Beta MOs
 -- Occupied --
******** -19.0767 -19.0733 -10.2424 -10.2322 -10.2284 -10.1969 -10.1937
-10.1908 -10.1826 -10.1804 -10.1800 -10.1788 -10.1782 -10.1758 -10.1744
-10.1731 -10.1731 -10.1726 -10.1711 -10.1702  -9.4630  -7.2273  -7.2183
 -7.2171  -1.0030  -1.0003  -0.8969  -0.8572  -0.8541  -0.8274  -0.7781
 -0.7657  -0.7501  -0.7430  -0.7259  -0.6604  -0.6556  -0.6243  -0.6062
 -0.5858  -0.5577  -0.5546  -0.5283  -0.5051  -0.4967  -0.4746  -0.4609
 -0.4492  -0.4462  -0.4325  -0.4282  -0.4239  -0.4233  -0.4153  -0.4143
 -0.4068  -0.3945  -0.3775  -0.3707  -0.3674  -0.3545  -0.3493  -0.3418
 -0.3418  -0.3368  -0.3141  -0.3130  -0.2819  -0.2531  -0.2517  -0.2471
 -0.2466  -0.2314  -0.2235

          Ground-State Mulliken Net Atomic Charges

     Atom                 Charge (a.u.)    Spin (a.u.)
  --------------------------------------------------------
      1 C                     0.528505       0.032781
      2 C                     0.414547       0.018043
      3 C                     1.126470       0.033034
      4 C                     0.202025       0.024579
      5 C                     0.693147       0.015266
      6 C                     0.091083       0.019693
      7 C                    -1.933275       0.095746
      8 C                    -0.278402       0.064441
      9 C                     0.480123       0.034942
     10 C                    -0.626112       0.102957
     11 C                     0.168801       0.028842
     12 C                    -0.487272       0.048522
     13 C                    -0.538604       0.034946
     14 C                     0.131925       0.034356
     15 C                    -1.141332       0.006614
     16 C                    -0.717622       0.010381
     17 C                    -0.308259       0.028156
     18 C                    -0.232856      -0.007721
     19 O                    -0.358987       0.201981
     20 O                    -0.470265       0.184123
     21 Cl                    0.539059       0.001761
     22 H                     0.147185      -0.002141
     23 H                     0.179016      -0.001194
     24 H                     0.204906      -0.003663
     25 H                     0.203720      -0.002793
     26 H                     0.175027      -0.001406
     27 H                     0.187772       0.000080
     28 H                     0.220273      -0.001167
     29 H                     0.209324      -0.002146
     30 H                     0.190075       0.000985
  --------------------------------------------------------
  Sum of atomic charges =    -1.000002

                    Cartesian Multipole Moments
 -----------------------------------------------------------------
    Charge (ESU x 10^10)
                -4.8032
    Dipole Moment (Debye)
         X       5.7248      Y       1.0863      Z      -0.0008
       Tot       5.8269
    Quadrupole Moments (Debye-Ang)
        XX    -123.9130     XY       7.4787     YY    -163.6807
        XZ      -0.0007     YZ      -0.0000     ZZ    -135.9887

 Total job time:  124.43s(wall), 948.51s(cpu)
        *  Thank you very much for using Q-Chem.  Have a nice day.  *
