 Q-Chem 5.4, Q-Chem, Inc., Pleasanton, CA (2021)
 Q-Chem 5.4.0 for Intel X86 EM64T Linux

User input:
--------------------------------------------------------------
$molecule
-1 2
Cl                -2.4895900000      2.8580090000      1.6259720000
C                 -2.3934580000      1.2061530000      0.9916410000
C                 -3.6124420000      0.5730040000      0.8370820000
C                 -3.6696280000     -0.7187800000      0.2841400000
C                 -2.5101640000     -1.3335970000     -0.1302590000
C                 -1.2605110000     -0.6940680000      0.0062880000
C                 -0.0820340000     -1.4000170000     -0.4910250000
O                 -0.1618680000     -2.5638510000     -0.9607200000
C                  1.1849100000     -0.6730100000     -0.4621060000
C                  2.3059900000     -1.2920860000     -1.0530360000
C                  3.5262240000     -0.6569240000     -1.0940510000
C                  3.6561700000      0.6351490000     -0.5543150000
C                  2.5702990000      1.2484620000      0.0419230000
Cl                 2.8668700000      2.9033180000      0.6017350000
C                  1.2986660000      0.6231630000      0.1366550000
C                  0.1529750000      1.2190170000      0.8536910000
O                  0.2982380000      2.1572140000      1.6546230000
C                 -1.1665340000      0.6022110000      0.6083960000
H                 -4.5166610000      1.0884590000      1.1357910000
H                 -4.6300840000     -1.2122250000      0.1743960000
H                 -2.5121140000     -2.3194000000     -0.5786160000
H                  2.1583520000     -2.2789670000     -1.4738870000
H                  4.3861940000     -1.1345550000     -1.5526870000
H                  4.5982010000      1.1663210000     -0.6088310000
$end
$rem
MAX_SCF_CYCLES=200
BASIS  =  6-311++G(d,p)
GUI  =  2
JOB_TYPE  =  SP
METHOD  =  B3LYP
SOLVENT_METHOD = COSMO
$end
$solvent
dielectric 37.219
opticaldielectric 1.43
$end

--------------------------------------------------------------

             Standard Nuclear Orientation (Angstroms)
    I     Atom           X                Y                Z
 ----------------------------------------------------------------
    1      Cl      2.7267680907    -2.4118991529    -0.1386354514
    2      C       2.5269858640    -0.6543152616    -0.0326573846
    3      C       3.7004597313     0.0692867567    -0.1328937787
    4      C       3.6635324070     1.4750911460    -0.1244446119
    5      C       2.4520449651     2.1235896809    -0.0480831664
    6      C       1.2450105289     1.3991609661     0.0387842752
    7      C       0.0000291932     2.1625687466     0.0802846918
    8      O      -0.0000807408     3.4198267015     0.1085488535
    9      C      -1.2449533467     1.3991638027     0.0384044710
   10      C      -2.4518900713     2.1236763368    -0.0491115602
   11      C      -3.6633715520     1.4751612021    -0.1254316312
   12      C      -3.7003894070     0.0693787070    -0.1331000746
   13      C      -2.5269866106    -0.6543188454    -0.0323223626
   14      Cl     -2.7269257905    -2.4118276976    -0.1375800114
   15      C      -1.2550095891    -0.0325277870     0.0793638692
   16      C      -0.0000016824    -0.7837506554     0.2853003604
   17      O       0.0000069842    -1.9690233103     0.6566973881
   18      C       1.2550082545    -0.0326101099     0.0792391590
   19      H       4.6403489171    -0.4598042235    -0.2288311369
   20      H       4.5903470985     2.0355175851    -0.1947594424
   21      H       2.3779582416     3.2039817546    -0.0580571967
   22      H      -2.3777115936     3.2040635089    -0.0594924634
   23      H      -4.5901820257     2.0355456104    -0.1962723979
   24      H      -4.6403017971    -0.4597030180    -0.2288879652
 ----------------------------------------------------------------

   10   -1608.2485340923      8.97e-06  Convergence criterion met
 Total energy in the final basis set =    -1608.2485340923
    5   -1608.3265648478      3.89e-06  Convergence criterion met
 Total energy in the final basis set =    -1608.3265648478

                    Orbital Energies (a.u.)
 --------------------------------------------------------------

 Alpha MOs
 -- Occupied --
********-101.5489 -19.0845 -19.0825 -10.2426 -10.2404 -10.2403 -10.2307
-10.1936 -10.1936 -10.1836 -10.1835 -10.1824 -10.1824 -10.1796 -10.1796
-10.1743 -10.1743  -9.4638  -9.4638  -7.2281  -7.2281  -7.2190  -7.2190
 -7.2180  -7.2180  -1.0211  -1.0101  -0.8907  -0.8888  -0.8433  -0.8337
 -0.7935  -0.7519  -0.7441  -0.7378  -0.6751  -0.6455  -0.6315  -0.5843
 -0.5604  -0.5424  -0.5320  -0.4835  -0.4768  -0.4715  -0.4693  -0.4371
 -0.4356  -0.4346  -0.4276  -0.4235  -0.4152  -0.3956  -0.3939  -0.3867
 -0.3691  -0.3653  -0.3592  -0.3508  -0.3358  -0.3289  -0.3233  -0.3101
 -0.2771  -0.2597  -0.2543  -0.2542  -0.2517  -0.2365  -0.1476

 Beta MOs
 -- Occupied --
********-101.5489 -19.0791 -19.0769 -10.2413 -10.2405 -10.2405 -10.2287
-10.1926 -10.1926 -10.1828 -10.1828 -10.1818 -10.1818 -10.1792 -10.1792
-10.1742 -10.1742  -9.4638  -9.4638  -7.2281  -7.2281  -7.2190  -7.2190
 -7.2180  -7.2180  -1.0118  -1.0002  -0.8891  -0.8881  -0.8415  -0.8330
 -0.7899  -0.7499  -0.7410  -0.7365  -0.6682  -0.6435  -0.6289  -0.5835
 -0.5581  -0.5395  -0.5307  -0.4810  -0.4753  -0.4699  -0.4685  -0.4350
 -0.4342  -0.4262  -0.4262  -0.4182  -0.4118  -0.3933  -0.3865  -0.3730
 -0.3648  -0.3592  -0.3578  -0.3476  -0.3340  -0.3226  -0.3215  -0.3093
 -0.2577  -0.2543  -0.2503  -0.2470  -0.2453  -0.2320

          Ground-State Mulliken Net Atomic Charges

     Atom                 Charge (a.u.)    Spin (a.u.)
  --------------------------------------------------------
      1 Cl                    0.389165      -0.000789
      2 C                     0.665136       0.005731
      3 C                    -0.320562       0.045541
      4 C                    -0.790991       0.031388
      5 C                     0.305650       0.038708
      6 C                     0.279208       0.017526
      7 C                    -0.809779       0.108373
      8 O                    -0.471737       0.206433
      9 C                     0.279306       0.017522
     10 C                     0.307166       0.038726
     11 C                    -0.791837       0.031356
     12 C                    -0.320256       0.045507
     13 C                     0.666123       0.005724
     14 Cl                    0.389166      -0.000789
     15 C                     0.433493       0.085692
     16 C                    -2.611741       0.060654
     17 O                    -0.283037       0.193858
     18 C                     0.434718       0.085827
     19 H                     0.223237      -0.003908
     20 H                     0.208862      -0.002596
     21 H                     0.193481      -0.001991
     22 H                     0.193256      -0.001993
     23 H                     0.208841      -0.002595
     24 H                     0.223134      -0.003906
  --------------------------------------------------------
  Sum of atomic charges =    -1.000000

                    Cartesian Multipole Moments
 -----------------------------------------------------------------
    Charge (ESU x 10^10)
                -4.8032
    Dipole Moment (Debye)
         X      -0.0003      Y       0.6086      Z      -1.6640
       Tot       1.7718
    Quadrupole Moments (Debye-Ang)
        XX    -111.3566     XY       0.0035     YY    -159.9554
        XZ       0.0052     YZ       1.7235     ZZ    -124.3426

 Total job time:  99.77s(wall), 657.20s(cpu)
        *  Thank you very much for using Q-Chem.  Have a nice day.  *
