 Q-Chem 5.4, Q-Chem, Inc., Pleasanton, CA (2021)
 Q-Chem 5.4.0 for Intel X86 EM64T Linux

User input:
--------------------------------------------------------------
$molecule
0 1
O                 -2.7783760000      2.4948630000     -0.4519320000
C                 -2.6658970000      1.1804040000     -0.2208320000
C                 -3.8482670000      0.4371270000     -0.0967890000
C                 -3.7912220000     -0.9254700000      0.1424400000
C                 -2.5638530000     -1.5848870000      0.2646340000
C                 -1.3824910000     -0.8673360000      0.1451330000
C                 -0.0846400000     -1.6059540000      0.2816660000
O                 -0.0922330000     -2.8066350000      0.4914530000
C                  1.1738530000     -0.8208410000      0.1502410000
C                  2.4283650000     -1.4362350000      0.2644690000
O                  2.5279630000     -2.7676310000      0.4984620000
C                  3.5975260000     -0.6604010000      0.1342830000
C                  3.5437530000      0.6917930000     -0.1030830000
C                  2.3033400000      1.3405970000     -0.2230780000
O                  2.3293390000      2.6601960000     -0.4543010000
C                  1.1154950000      0.5864790000     -0.0968460000
C                 -0.1719330000      1.2734930000     -0.2238920000
O                 -0.2057840000      2.5156000000     -0.4421640000
C                 -1.4123750000      0.5245100000     -0.0991210000
H                 -1.8669070000      2.8627030000     -0.5115180000
H                 -4.7923270000      0.9591460000     -0.1933420000
H                 -4.7134870000     -1.4879050000      0.2361540000
H                 -2.5095290000     -2.6490470000      0.4515160000
H                  3.4592760000     -3.0115790000      0.5459250000
H                  4.5631530000     -1.1501400000      0.2249860000
H                  4.4452770000      1.2834760000     -0.2023140000
H                  1.3919810000      2.9636750000     -0.5121520000
$end
$rem
MAX_SCF_CYCLES=200
BASIS  =  6-311++G(d,p)
GUI  =  2
JOB_TYPE  =  SP
METHOD  =  B3LYP
SOLVENT_METHOD = COSMO
$end
$solvent
dielectric 37.219
opticaldielectric 1.43
$end

--------------------------------------------------------------

             Standard Nuclear Orientation (Angstroms)
    I     Atom           X                Y                Z
 ----------------------------------------------------------------
    1      O       3.1370519807    -2.0629730395    -0.0000826926
    2      C       2.8330158445    -0.7585868909    -0.0000461819
    3      C       3.8941892977     0.1577957058    -0.0001883443
    4      C       3.6379569532     1.5184941354    -0.0001751972
    5      C       2.3265925974     2.0048276673     0.0000194072
    6      C       1.2626438219     1.1144406318     0.0001974279
    7      C      -0.1300883618     1.6702391699     0.0004765448
    8      O      -0.2985903625     2.8774299998    -0.0002153427
    9      C      -1.2604507233     0.7008267549     0.0001836371
   10      C      -2.5922113966     1.1389724419    -0.0000038250
   11      O      -2.8859826386     2.4622208128     0.0000229677
   12      C      -3.6355281456     0.1917162212    -0.0002219852
   13      C      -3.3840598586    -1.1589970969    -0.0002135277
   14      C      -2.0613545427    -1.6327274489    -0.0000083977
   15      O      -1.8936127374    -2.9621424446     0.0000133720
   16      C      -0.9963616236    -0.7046141621     0.0001612352
   17      C       0.3784779176    -1.2100011461     0.0002609017
   18      O       0.5940991640    -2.4530320163    -0.0000381849
   19      C       1.4962854625    -0.2795464337     0.0001473594
   20      H       2.2889328417    -2.5632993230     0.0000930969
   21      H       4.9050271097    -0.2311548126    -0.0003058172
   22      H       4.4682280701     2.2158735393    -0.0002884073
   23      H       2.1168085127     3.0661019590     0.0000280623
   24      H      -3.8434279749     2.5736015747    -0.0001220487
   25      H      -4.6629681982     0.5450909961    -0.0004019482
   26      H      -4.1895078400    -1.8828303712    -0.0003770094
   27      H      -0.9214592272    -3.1324473584     0.0002387896
 ----------------------------------------------------------------

    9    -914.7074516892      6.58e-06  Convergence criterion met
 Total energy in the final basis set =     -914.7074516892
    5    -914.7311639352      3.62e-06  Convergence criterion met
 Total energy in the final basis set =     -914.7311639352

                    Orbital Energies (a.u.)
 --------------------------------------------------------------

 Alpha MOs
 -- Occupied --
-19.1726 -19.1658 -19.1646 -19.1471 -19.1242 -10.2945 -10.2824 -10.2684
-10.2676 -10.2675 -10.2144 -10.2125 -10.2099 -10.2094 -10.2057 -10.2011
-10.2004 -10.1927 -10.1903  -1.0996  -1.0896  -1.0868  -1.0612  -1.0593
 -0.8937  -0.8779  -0.8188  -0.7801  -0.7750  -0.7651  -0.6995  -0.6771
 -0.6708  -0.6248  -0.6194  -0.5908  -0.5687  -0.5588  -0.5414  -0.5229
 -0.5054  -0.5002  -0.4810  -0.4731  -0.4692  -0.4637  -0.4561  -0.4464
 -0.4440  -0.4331  -0.4195  -0.4161  -0.4128  -0.4044  -0.3951  -0.3908
 -0.3832  -0.3761  -0.3574  -0.3368  -0.3000  -0.2963  -0.2810  -0.2718
 -0.2531  -0.2353

          Ground-State Mulliken Net Atomic Charges

     Atom                 Charge (a.u.)
  ----------------------------------------
      1 O                    -0.340784
      2 C                     0.053115
      3 C                    -0.252288
      4 C                    -0.406628
      5 C                    -0.041110
      6 C                    -0.010848
      7 C                    -0.278000
      8 O                    -0.307805
      9 C                     0.062863
     10 C                    -0.266781
     11 O                    -0.228690
     12 C                    -0.151187
     13 C                    -0.114584
     14 C                    -0.086525
     15 O                    -0.353673
     16 C                     0.805780
     17 C                    -0.381873
     18 O                    -0.402921
     19 C                     0.455314
     20 H                     0.392500
     21 H                     0.232586
     22 H                     0.238100
     23 H                     0.185884
     24 H                     0.325674
     25 H                     0.228108
     26 H                     0.248274
     27 H                     0.395499
  ----------------------------------------
  Sum of atomic charges =     0.000000

                    Cartesian Multipole Moments
 -----------------------------------------------------------------
    Charge (ESU x 10^10)
                 0.0000
    Dipole Moment (Debye)
         X      -3.1888      Y       0.3094      Z       0.0016
       Tot       3.2038
    Quadrupole Moments (Debye-Ang)
        XX     -72.5549     XY       2.3620     YY    -125.6282
        XZ       0.0019     YZ      -0.0015     ZZ    -110.4241

 Total job time:  64.61s(wall), 488.35s(cpu)
        *  Thank you very much for using Q-Chem.  Have a nice day.  *
