 Gaussian 16, Revision A.03,
 Gaussian 16:  ES64L-G16RevA.03 25-Dec-2016

 ----------------------------------------------------------------
 #P UB3LYP/6-311++G(d,p) SCRF=(PCM,Solvent=n,n-DiMethylFormamide)
 ----------------------------------------------------------------

 -------
 Reduced
 -------
 Symbolic Z-matrix:
 Charge = -2 Multiplicity = 1

                         Standard orientation:
 ---------------------------------------------------------------------
 Center     Atomic      Atomic             Coordinates (Angstroms)
 Number     Number       Type             X           Y           Z
 ---------------------------------------------------------------------
      1          6           0       -6.492999   -3.181838    0.778768
      2          6           0       -5.981970   -4.456308    0.922965
      3          6           0       -4.629691   -4.716517    0.595408
      4          6           0       -5.687378   -2.113972    0.310364
      5          6           0       -4.313465   -2.374508   -0.020681
      6          6           0       -3.826791   -3.687175    0.130465
      7          6           0       -6.225811   -0.796667    0.145943
      8          6           0       -5.307200    0.198104   -0.308066
      9          6           0       -3.947462    0.007544   -0.584040
     10          6           0       -3.408369   -1.328246   -0.521047
     11          8           0       -7.450725   -0.437954    0.364462
     12          8           0       -2.221403   -1.641221   -0.885873
     13          8           0       -5.895665    1.426220   -0.468033
     14          1           0       -7.527372   -2.957530    1.017877
     15          1           0       -6.617570   -5.260837    1.286135
     16          1           0       -4.224362   -5.718884    0.707450
     17          1           0       -2.788722   -3.857335   -0.134189
     18          1           0       -6.821335    1.213722   -0.190782
     19          6           0       -3.147324    2.424429   -0.141835
     20          6           0       -3.297624    2.290393    1.239539
     21          6           0       -2.922151    3.704712   -0.660196
     22          6           0       -2.842982    4.818665    0.172871
     23          6           0       -2.990596    4.670968    1.553204
     24          6           0       -3.219932    3.400587    2.080294
     25          1           0       -3.493234    1.305687    1.648317
     26          1           0       -2.800867    3.818050   -1.733035
     27          1           0       -2.670093    5.802958   -0.253504
     28          1           0       -3.345995    3.272354    3.151310
     29          1           0       -2.934959    5.536107    2.207377
     30          6           0       -3.171843    1.229390   -1.101643
     31          1           0       -3.732318    1.587651   -1.976701
     32          7           0       -1.790531    0.983761   -1.605487
     33          6           0       -0.735138    0.932526   -0.584434
     34          6           0        0.592303    0.537838   -1.234690
     35          6           0        1.771620    0.534228   -0.255130
     36          6           0        3.111922    0.171443   -0.907244
     37          6           0        4.302719    0.193263    0.059373
     38          6           0        5.645988   -0.140289   -0.601954
     39          6           0        6.841077   -0.097649    0.358545
     40          6           0        8.186322   -0.409617   -0.309062
     41          6           0        9.382585   -0.353398    0.649409
     42          6           0       10.728686   -0.653036   -0.021836
     43          6           0       11.924554   -0.589302    0.936955
     44          6           0       13.268219   -0.884634    0.264067
     45          1           0       -1.823169    0.032627   -1.974332
     46          1           0       -0.966923    0.208378    0.210143
     47          1           0       -0.631137    1.921148   -0.125143
     48          1           0        0.798689    1.230363   -2.061240
     49          1           0        0.480160   -0.460296   -1.674704
     50          1           0        1.563327   -0.170585    0.559759
     51          1           0        1.858585    1.524757    0.212704
     52          1           0        3.309004    0.867078   -1.734375
     53          1           0        3.033038   -0.824539   -1.362289
     54          1           0        4.116595   -0.513937    0.878358
     55          1           0        4.368877    1.185258    0.526326
     56          1           0        5.823968    0.561489   -1.427864
     57          1           0        5.585838   -1.136314   -1.060201
     58          1           0        6.671243   -0.807520    1.178859
     59          1           0        6.892817    0.895436    0.824577
     60          1           0        8.352139    0.297060   -1.133107
     61          1           0        8.139353   -1.404973   -0.770285
     62          1           0        9.221828   -1.064687    1.470373
     63          1           0        9.425353    0.640512    1.114450
     64          1           0       10.889911    0.056163   -0.844310
     65          1           0       10.691094   -1.647994   -0.484398
     66          1           0       11.765832   -1.299073    1.758842
     67          1           0       11.961649    0.404768    1.400663
     68          1           0       13.283252   -1.887928   -0.176812
     69          1           0       14.097775   -0.829625    0.977342
     70          1           0       13.480173   -0.167812   -0.537500
 ---------------------------------------------------------------------

 SCF Done:  E(UB3LYP) =  -1408.43837570     A.U. after   17 cycles

 The electronic state is 1-A.
 Alpha  occ. eigenvalues --  -19.10763 -19.02285 -19.01297 -14.27004 -10.18545
 Alpha  occ. eigenvalues --  -10.17475 -10.17295 -10.16922 -10.16894 -10.16805
 Alpha  occ. eigenvalues --  -10.16748 -10.16356 -10.16353 -10.16094 -10.16047
 Alpha  occ. eigenvalues --  -10.15791 -10.15784 -10.15769 -10.15744 -10.15711
 Alpha  occ. eigenvalues --  -10.15672 -10.15611 -10.15532 -10.15437 -10.15408
 Alpha  occ. eigenvalues --  -10.14846 -10.14700 -10.14229 -10.14226 -10.14158
 Alpha  occ. eigenvalues --  -10.13339 -10.12952 -10.12603  -1.02439  -0.93916
 Alpha  occ. eigenvalues --   -0.93035  -0.88250  -0.84661  -0.82259  -0.80973
 Alpha  occ. eigenvalues --   -0.79708  -0.77950  -0.76800  -0.75106  -0.74359
 Alpha  occ. eigenvalues --   -0.73921  -0.71932  -0.71742  -0.70503  -0.67939
 Alpha  occ. eigenvalues --   -0.65283  -0.63223  -0.62324  -0.60146  -0.59872
 Alpha  occ. eigenvalues --   -0.58766  -0.57747  -0.57452  -0.57093  -0.56824
 Alpha  occ. eigenvalues --   -0.56545  -0.55299  -0.53247  -0.50483  -0.49962
 Alpha  occ. eigenvalues --   -0.48359  -0.47923  -0.47131  -0.45843  -0.45517
 Alpha  occ. eigenvalues --   -0.44995  -0.44241  -0.44022  -0.43299  -0.42873
 Alpha  occ. eigenvalues --   -0.42749  -0.42157  -0.41869  -0.41453  -0.41216
 Alpha  occ. eigenvalues --   -0.41016  -0.40114  -0.39809  -0.39526  -0.38871
 Alpha  occ. eigenvalues --   -0.38204  -0.37765  -0.37295  -0.36741  -0.36432
 Alpha  occ. eigenvalues --   -0.36204  -0.35732  -0.35370  -0.35262  -0.34656
 Alpha  occ. eigenvalues --   -0.34252  -0.34014  -0.33761  -0.33306  -0.33080
 Alpha  occ. eigenvalues --   -0.32614  -0.32246  -0.32034  -0.32001  -0.31795
 Alpha  occ. eigenvalues --   -0.31700  -0.31648  -0.31578  -0.31217  -0.31057
 Alpha  occ. eigenvalues --   -0.30001  -0.29562  -0.29120  -0.25028  -0.24080
 Alpha  occ. eigenvalues --   -0.22796  -0.22288  -0.21891  -0.21106  -0.19073
 Alpha  occ. eigenvalues --   -0.18334  -0.10457
 Alpha virt. eigenvalues --   -0.01085  -0.00706  -0.00411  -0.00257  -0.00105
 Alpha virt. eigenvalues --    0.00400   0.00492   0.00752   0.01202   0.01322
 Alpha virt. eigenvalues --    0.01431   0.01727   0.02005   0.02114   0.02281

  Beta  occ. eigenvalues --  -19.10763 -19.02285 -19.01297 -14.27004 -10.18545
  Beta  occ. eigenvalues --  -10.17475 -10.17295 -10.16922 -10.16894 -10.16805
  Beta  occ. eigenvalues --  -10.16748 -10.16356 -10.16353 -10.16094 -10.16047
  Beta  occ. eigenvalues --  -10.15791 -10.15784 -10.15769 -10.15744 -10.15711
  Beta  occ. eigenvalues --  -10.15672 -10.15611 -10.15532 -10.15437 -10.15408
  Beta  occ. eigenvalues --  -10.14846 -10.14700 -10.14229 -10.14226 -10.14158
  Beta  occ. eigenvalues --  -10.13339 -10.12952 -10.12603  -1.02439  -0.93916
  Beta  occ. eigenvalues --   -0.93035  -0.88250  -0.84661  -0.82259  -0.80973
  Beta  occ. eigenvalues --   -0.79708  -0.77950  -0.76800  -0.75106  -0.74359
  Beta  occ. eigenvalues --   -0.73921  -0.71932  -0.71742  -0.70503  -0.67939
  Beta  occ. eigenvalues --   -0.65283  -0.63223  -0.62324  -0.60146  -0.59872
  Beta  occ. eigenvalues --   -0.58766  -0.57747  -0.57452  -0.57093  -0.56824
  Beta  occ. eigenvalues --   -0.56545  -0.55299  -0.53247  -0.50483  -0.49962
  Beta  occ. eigenvalues --   -0.48359  -0.47923  -0.47131  -0.45843  -0.45517
  Beta  occ. eigenvalues --   -0.44995  -0.44241  -0.44022  -0.43299  -0.42873
  Beta  occ. eigenvalues --   -0.42749  -0.42157  -0.41869  -0.41453  -0.41216
  Beta  occ. eigenvalues --   -0.41016  -0.40114  -0.39809  -0.39526  -0.38871
  Beta  occ. eigenvalues --   -0.38204  -0.37765  -0.37295  -0.36741  -0.36432
  Beta  occ. eigenvalues --   -0.36204  -0.35732  -0.35370  -0.35262  -0.34656
  Beta  occ. eigenvalues --   -0.34252  -0.34014  -0.33761  -0.33306  -0.33080
  Beta  occ. eigenvalues --   -0.32614  -0.32246  -0.32034  -0.32001  -0.31795
  Beta  occ. eigenvalues --   -0.31700  -0.31648  -0.31578  -0.31217  -0.31057
  Beta  occ. eigenvalues --   -0.30001  -0.29562  -0.29120  -0.25028  -0.24080
  Beta  occ. eigenvalues --   -0.22796  -0.22288  -0.21891  -0.21106  -0.19073
  Beta  occ. eigenvalues --   -0.18334  -0.10457
  Beta virt. eigenvalues --   -0.01085  -0.00706  -0.00411  -0.00257  -0.00105
  Beta virt. eigenvalues --    0.00400   0.00492   0.00752   0.01202   0.01322
  Beta virt. eigenvalues --    0.01431   0.01727   0.02005   0.02114   0.02281

 Mulliken charges and spin densities:
               1          2
     1  C   -0.141950  -0.000000
     2  C   -0.466278   0.000000
     3  C   -0.610630   0.000000
     4  C    0.082975   0.000000
     5  C    0.505767   0.000000
     6  C   -0.059997  -0.000000
     7  C   -0.841382   0.000000
     8  C   -0.450126   0.000000
     9  C    0.928901  -0.000000
    10  C   -0.612764  -0.000000
    11  O   -0.721933  -0.000000
    12  O   -0.595953   0.000000
    13  O   -0.299009  -0.000000
    14  H    0.155892   0.000000
    15  H    0.150401   0.000000
    16  H    0.151250  -0.000000
    17  H    0.154479   0.000000
    18  H    0.288358   0.000000
    19  C    0.095884  -0.000000
    20  C   -0.199528   0.000000
    21  C    0.151024  -0.000000
    22  C   -0.308249   0.000000
    23  C   -0.437091  -0.000000
    24  C   -0.294517   0.000000
    25  H    0.157194   0.000000
    26  H    0.167093  -0.000000
    27  H    0.199231   0.000000
    28  H    0.200557   0.000000
    29  H    0.168680  -0.000000
    30  C    0.293776  -0.000000
    31  H    0.208402  -0.000000
    32  N    0.060005   0.000000
    33  C   -0.699589  -0.000000
    34  C   -0.250575   0.000000
    35  C   -0.054022  -0.000000
    36  C   -0.224011   0.000000
    37  C   -0.435666  -0.000000
    38  C   -0.350334   0.000000
    39  C   -0.218309   0.000000
    40  C   -0.062132   0.000000
    41  C   -0.117709  -0.000000
    42  C   -0.280504   0.000000
    43  C   -0.224291  -0.000000
    44  C   -0.690260   0.000000
    45  H    0.266831   0.000000
    46  H    0.196007   0.000000
    47  H    0.075692  -0.000000
    48  H    0.140868   0.000000
    49  H    0.143624  -0.000000
    50  H    0.116554  -0.000000
    51  H    0.125356  -0.000000
    52  H    0.112700  -0.000000
    53  H    0.127453  -0.000000
    54  H    0.133402   0.000000
    55  H    0.129454   0.000000
    56  H    0.129896  -0.000000
    57  H    0.132640  -0.000000
    58  H    0.129532  -0.000000
    59  H    0.127322  -0.000000
    60  H    0.127015  -0.000000
    61  H    0.128394  -0.000000
    62  H    0.126125   0.000000
    63  H    0.124995   0.000000
    64  H    0.121996  -0.000000
    65  H    0.123519  -0.000000
    66  H    0.131312  -0.000000
    67  H    0.131005   0.000000
    68  H    0.140162   0.000000
    69  H    0.144832  -0.000000
    70  H    0.140251   0.000000
 Sum of Mulliken charges =  -2.00000   0.00000

 Dipole moment (field-independent basis, Debye):
    X=             45.1810    Y=              8.3732    Z=              2.6359  Tot=             46.0259
 Quadrupole moment (field-independent basis, Debye-Ang):
   XX=           -484.2749   YY=           -247.9361   ZZ=           -220.9043
   XY=            -38.3423   XZ=              2.3820   YZ=              1.4682

 Normal termination of Gaussian 16 at Thu Jan 25 06:19:30 2024.
