 Q-Chem 5.4, Q-Chem, Inc., Pleasanton, CA (2021)
 Q-Chem 5.4.0 for Intel X86 EM64T Linux

User input:
--------------------------------------------------------------
$molecule
-1 2
N                 -2.7945330000     -2.0527700000      0.3760680000
C                 -2.4885180000     -0.7166680000      0.1921740000
C                 -3.5248220000      0.2144520000      0.0708670000
C                 -3.2595260000      1.5650480000     -0.1829210000
C                 -1.9591610000      2.0069720000     -0.3228740000
C                 -0.8857540000      1.1025680000     -0.1947710000
C                  0.4700400000      1.6281980000     -0.3368470000
O                  0.6851930000      2.8435980000     -0.5729780000
C                  1.5723630000      0.6770550000     -0.1957050000
C                  2.8795270000      1.1813640000     -0.3516140000
C                  3.9774930000      0.3600140000     -0.2387110000
C                  3.7931840000     -1.0076940000      0.0310270000
C                  2.5193660000     -1.5197840000      0.1898510000
Cl                 2.4771600000     -3.2680470000      0.4984370000
C                  1.3504980000     -0.7123510000      0.0923790000
C                 -0.0168710000     -1.2197320000      0.2750600000
O                 -0.2257910000     -2.4203190000      0.6067450000
C                 -1.1223100000     -0.2785110000      0.0762440000
H                 -3.6941090000     -2.2529440000      0.7836910000
H                 -1.9919940000     -2.6188140000      0.6543180000
H                 -4.5504600000     -0.1343740000      0.1598950000
H                 -4.0872640000      2.2627380000     -0.2744730000
H                 -1.7216460000      3.0430650000     -0.5261660000
H                  2.9736350000      2.2393060000     -0.5632950000
H                  4.9821990000      0.7525130000     -0.3596710000
H                  4.6421020000     -1.6748850000      0.1132680000
$end
$rem
MAX_SCF_CYCLES=200
BASIS  =  6-311++G(d,p)
GUI  =  2
JOB_TYPE  =  SP
METHOD  =  B3LYP
SOLVENT_METHOD = COSMO
$end
$solvent
dielectric 37.219
opticaldielectric 1.43
$end

--------------------------------------------------------------

             Standard Nuclear Orientation (Angstroms)
    I     Atom           X                Y                Z
 ----------------------------------------------------------------
    1      N      -2.3659658736    -2.6721495810    -0.1153546763
    2      C      -2.5242431293    -1.3008363072    -0.0312181600
    3      C      -3.8131103758    -0.7585376608    -0.0122650077
    4      C      -4.0165600190     0.6261016825     0.0045279454
    5      C      -2.9399401440     1.4902165645    -0.0007553220
    6      C      -1.6247143977     0.9835543093    -0.0065996989
    7      C      -0.5235429983     1.9437417888     0.0039554126
    8      O      -0.7290953984     3.1834796709     0.0105899480
    9      C       0.8347813826     1.4009119382     0.0031207709
   10      C       1.8967384560     2.3279941965    -0.0057430463
   11      C       3.2072422630     1.9091205231    -0.0098497297
   12      C       3.4931969737     0.5323193132    -0.0112285754
   13      C       2.4653511945    -0.3915175867     0.0002590096
   14      Cl      3.0122787282    -2.0807168525    -0.0298457495
   15      C       1.0929991467    -0.0118391154     0.0142360273
   16      C      -0.0239817479    -0.9667293120     0.0465501508
   17      O       0.1852436476    -2.2089723066     0.1367096011
   18      C      -1.3835891421    -0.4230815809    -0.0111995977
   19      H      -3.1369021213    -3.2317342889     0.2132566089
   20      H      -1.4139075481    -2.9839930048     0.0801864775
   21      H      -4.6627869071    -1.4362581927    -0.0291037389
   22      H      -5.0306595139     1.0156779574     0.0161830736
   23      H      -3.0641861945     2.5652793941     0.0049497982
   24      H       1.6297510122     3.3775704798    -0.0094534625
   25      H       4.0218334357     2.6264163151    -0.0168426703
   26      H       4.5169298058     0.1797034667    -0.0254530765
 ----------------------------------------------------------------

   10   -1204.0139166845      7.66e-06  Convergence criterion met
 Total energy in the final basis set =    -1204.0139166845
    4   -1204.0953467485      9.43e-06  Convergence criterion met
 Total energy in the final basis set =    -1204.0953467485

                    Orbital Energies (a.u.)
 --------------------------------------------------------------

 Alpha MOs
 -- Occupied --
******** -19.0817 -19.0788 -14.3041 -10.2389 -10.2376 -10.2261 -10.2180
-10.1910 -10.1804 -10.1800 -10.1778 -10.1761 -10.1732 -10.1719 -10.1714
-10.1627 -10.1578  -9.4618  -7.2262  -7.2171  -7.2159  -1.0140  -1.0065
 -0.9133  -0.8868  -0.8444  -0.8318  -0.7871  -0.7443  -0.7400  -0.7286
 -0.6691  -0.6391  -0.6279  -0.5821  -0.5614  -0.5462  -0.5272  -0.5003
 -0.4801  -0.4766  -0.4676  -0.4481  -0.4443  -0.4314  -0.4309  -0.4189
 -0.4151  -0.4004  -0.3903  -0.3894  -0.3790  -0.3638  -0.3590  -0.3502
 -0.3473  -0.3307  -0.3154  -0.3105  -0.2736  -0.2531  -0.2527  -0.2496
 -0.2371  -0.2127  -0.1432

 Beta MOs
 -- Occupied --
******** -19.0766 -19.0734 -14.3039 -10.2389 -10.2360 -10.2242 -10.2181
-10.1900 -10.1798 -10.1791 -10.1773 -10.1760 -10.1726 -10.1718 -10.1711
-10.1617 -10.1573  -9.4618  -7.2262  -7.2170  -7.2159  -1.0053  -0.9970
 -0.9126  -0.8855  -0.8422  -0.8308  -0.7834  -0.7425  -0.7372  -0.7268
 -0.6623  -0.6371  -0.6255  -0.5812  -0.5593  -0.5439  -0.5258  -0.4994
 -0.4774  -0.4750  -0.4664  -0.4470  -0.4429  -0.4305  -0.4206  -0.4163
 -0.4112  -0.3982  -0.3873  -0.3779  -0.3701  -0.3626  -0.3497  -0.3486
 -0.3442  -0.3265  -0.3145  -0.3042  -0.2554  -0.2478  -0.2455  -0.2447
 -0.2327  -0.2051

          Ground-State Mulliken Net Atomic Charges

     Atom                 Charge (a.u.)    Spin (a.u.)
  --------------------------------------------------------
      1 N                    -0.439906       0.007522
      2 C                     0.217219       0.025163
      3 C                    -0.275166       0.091644
      4 C                    -0.425941       0.018673
      5 C                    -0.033111       0.072568
      6 C                     0.209874       0.002482
      7 C                    -0.704238       0.108201
      8 O                    -0.483414       0.198133
      9 C                     0.116280       0.016646
     10 C                     0.296465       0.030073
     11 C                    -0.712465       0.038732
     12 C                    -0.170173       0.057456
     13 C                     1.089260       0.023893
     14 Cl                    0.300165       0.001060
     15 C                    -0.074633       0.069202
     16 C                    -1.488461       0.073641
     17 O                    -0.361656       0.180876
     18 C                     0.157885       0.008533
     19 H                     0.285577      -0.000511
     20 H                     0.327439      -0.002994
     21 H                     0.184359      -0.006157
     22 H                     0.204757      -0.001772
     23 H                     0.166906      -0.003997
     24 H                     0.183566      -0.001618
     25 H                     0.206476      -0.003461
     26 H                     0.222939      -0.003988
  --------------------------------------------------------
  Sum of atomic charges =    -1.000000

                    Cartesian Multipole Moments
 -----------------------------------------------------------------
    Charge (ESU x 10^10)
                -4.8032
    Dipole Moment (Debye)
         X       0.0543      Y      -2.5278      Z       0.6757
       Tot       2.6171
    Quadrupole Moments (Debye-Ang)
        XX    -109.5918     XY      18.6649     YY    -143.4971
        XZ      -2.6400     YZ      -2.5254     ZZ    -119.0417

 Total job time:  85.77s(wall), 662.17s(cpu)
        *  Thank you very much for using Q-Chem.  Have a nice day.  *
