 Q-Chem 5.4, Q-Chem, Inc., Pleasanton, CA (2021)
 Q-Chem 5.4.0 for Intel X86 EM64T Linux

User input:
--------------------------------------------------------------
$molecule
0 1
C                  1.8874550000      3.9282120000      5.5222090000
C                  2.8070090000      3.4602070000      4.4537720000
C                  2.4873110000      2.4500550000      3.6350300000
C                  1.1951290000      1.7366200000      3.7697320000
C                  0.2910980000      2.1630160000      4.8679470000
C                  0.6174600000      3.1543140000      5.7125720000
O                  2.1390800000      4.9227290000      6.1740530000
O                  0.8817270000      0.8320150000      3.0143330000
H                  3.7355180000      4.0135010000      4.3662880000
H                  3.1393230000      2.1128540000      2.8369290000
H                 -0.6390000000      1.6129280000      4.9562230000
C                 -0.2354470000      3.4897270000      6.9013540000
O                  0.1819060000      3.5255170000      8.0291340000
O                 -1.5148510000      3.6986690000      6.5478940000
C                 -2.4249470000      3.9907410000      7.6312910000
H                 -3.3915050000      4.1481120000      7.1593080000
H                 -2.1014210000      4.8866110000      8.1616210000
H                 -2.4648230000      3.1520210000      8.3271480000
$end
$rem
MAX_SCF_CYCLES=200
BASIS  =  6-311++G(d,p)
GUI  =  2
JOB_TYPE  =  SP
METHOD  =  B3LYP
SOLVENT_METHOD = COSMO
$end
$solvent
dielectric 37.219
opticaldielectric 1.43
$end

--------------------------------------------------------------

             Standard Nuclear Orientation (Angstroms)
    I     Atom           X                Y                Z
 ----------------------------------------------------------------
    1      C      -0.5983365773    -1.3814395789    -0.1419921756
    2      C      -2.0835882284    -1.3808450695    -0.1558861154
    3      C      -2.7932706366    -0.2485468940    -0.0710093932
    4      C      -2.1218303062     1.0665724407     0.0574330745
    5      C      -0.6383733292     1.0720792251     0.1244170799
    6      C       0.0795653119    -0.0611923982     0.0711741831
    7      O       0.0296417981    -2.4023405341    -0.3436954328
    8      O      -2.7563215580     2.1066715732     0.1100953444
    9      H      -2.5463535876    -2.3547824402    -0.2708247260
   10      H      -3.8770247303    -0.2316322403    -0.1023195747
   11      H      -0.1730231099     2.0448255689     0.2370468867
   12      C       1.5665586592    -0.0625644019     0.2761224139
   13      O       2.1227545654    -0.7409177789     1.0994297617
   14      O       2.1782223004     0.8123783716    -0.5398482102
   15      C       3.6117141473     0.9126371259    -0.3902515891
   16      H       3.9274402305     1.6400520340    -1.1338593777
   17      H       4.0765261281    -0.0563632292    -0.5732547933
   18      H       3.8634239783     1.2513645577     0.6153150105
 ----------------------------------------------------------------

    9    -609.4968818410      9.31e-06  Convergence criterion met
 Total energy in the final basis set =     -609.4968818410
    5    -609.5171094044      4.25e-06  Convergence criterion met
 Total energy in the final basis set =     -609.5171094044

                    Orbital Energies (a.u.)
 --------------------------------------------------------------

 Alpha MOs
 -- Occupied --
-19.1917 -19.1546 -19.1538 -19.1419 -10.3335 -10.3021 -10.2978 -10.2375
-10.2273 -10.2270 -10.2183 -10.2169  -1.1350  -1.0873  -1.0832  -1.0513
 -0.8789  -0.8162  -0.7489  -0.7207  -0.6644  -0.6291  -0.5827  -0.5501
 -0.5367  -0.5141  -0.5052  -0.4963  -0.4866  -0.4624  -0.4609  -0.4469
 -0.4394  -0.4319  -0.4223  -0.4091  -0.3798  -0.3315  -0.3300  -0.3202
 -0.3083  -0.3037  -0.2877

          Ground-State Mulliken Net Atomic Charges

     Atom                 Charge (a.u.)
  ----------------------------------------
      1 C                    -0.809394
      2 C                     0.072937
      3 C                     0.217099
      4 C                    -0.391811
      5 C                    -0.481946
      6 C                     1.225267
      7 O                    -0.266748
      8 O                    -0.295566
      9 H                     0.268182
     10 H                     0.271065
     11 H                     0.265457
     12 C                    -0.013372
     13 O                    -0.288882
     14 O                    -0.067764
     15 C                    -0.290259
     16 H                     0.188574
     17 H                     0.195307
     18 H                     0.201852
  ----------------------------------------
  Sum of atomic charges =     0.000000

                    Cartesian Multipole Moments
 -----------------------------------------------------------------
    Charge (ESU x 10^10)
                 0.0000
    Dipole Moment (Debye)
         X      -0.0600      Y       1.6162      Z      -1.2901
       Tot       2.0688
    Quadrupole Moments (Debye-Ang)
        XX     -57.4203     XY      20.0132     YY     -80.2961
        XZ      -3.7639     YZ       1.4137     ZZ     -70.6410

 Total job time:  32.40s(wall), 131.81s(cpu)
        *  Thank you very much for using Q-Chem.  Have a nice day.  *
