 Gaussian 16, Revision A.03,
 Gaussian 16:  ES64L-G16RevA.03 25-Dec-2016

 ----------------------------------------------------------------------
 #P UB3LYP/6-311++G(d,p) nosym opt freq SCRF=(PCM,Solvent=n,n-DiMethylF
 ormamide)
 ----------------------------------------------------------------------

 -------
 Reduced
 -------
 Symbolic Z-matrix:
 Charge = -2 Multiplicity = 1

 SCF Done:  E(UB3LYP) =  -844.036024251     A.U. after   18 cycles
 SCF Done:  E(UB3LYP) =  -844.038941791     A.U. after   15 cycles
 SCF Done:  E(UB3LYP) =  -844.041581140     A.U. after   16 cycles
 SCF Done:  E(UB3LYP) =  -844.042593043     A.U. after   16 cycles
 SCF Done:  E(UB3LYP) =  -844.043555144     A.U. after   14 cycles
 SCF Done:  E(UB3LYP) =  -844.043723369     A.U. after   14 cycles
 SCF Done:  E(UB3LYP) =  -844.043912169     A.U. after   14 cycles
 SCF Done:  E(UB3LYP) =  -844.043949827     A.U. after   13 cycles
 SCF Done:  E(UB3LYP) =  -844.043964417     A.U. after   13 cycles
 SCF Done:  E(UB3LYP) =  -844.043965764     A.U. after   12 cycles
 SCF Done:  E(UB3LYP) =  -844.043970161     A.U. after   12 cycles
 SCF Done:  E(UB3LYP) =  -844.043970698     A.U. after   11 cycles
 SCF Done:  E(UB3LYP) =  -844.043970974     A.U. after   11 cycles
 SCF Done:  E(UB3LYP) =  -844.043971001     A.U. after   10 cycles
 Optimization completed.
    -- Stationary point found.
 Normal termination of Gaussian 16 at Sat Feb 10 12:58:38 2024.

 ----------------------------------------------------------------------
 #P Geom=AllCheck Guess=TCheck SCRF=Check GenChk UB3LYP/6-311++G(d,p) F
 req
 ----------------------------------------------------------------------

 Structure from the checkpoint file:  "063-an.chk"
 -------
 Reduced
 -------
 Charge = -2 Multiplicity = 1

                          Input orientation:
 ---------------------------------------------------------------------
 Center     Atomic      Atomic             Coordinates (Angstroms)
 Number     Number       Type             X           Y           Z
 ---------------------------------------------------------------------
      1          6           0       -1.544661   -2.045154    1.431280
      2          6           0       -2.074540   -2.049267    0.109612
      3          6           0       -1.745025   -1.096254   -0.846338
      4          6           0       -0.839497   -0.024585   -0.602408
      5          6           0       -0.290330    0.005709    0.724485
      6          6           0       -0.634962   -0.968055    1.709643
      7          8           0       -1.905921   -2.942520    2.318775
      8          8           0       -0.519992    0.831198   -1.545917
      9          1           0       -2.180570   -1.161459   -1.842591
     10          6           0        0.595877   -1.895265    3.709603
     11          6           0       -0.372606    0.290993    3.886306
     12          6           0        1.064637   -1.797291    5.018561
     13          6           0        0.813718   -0.649329    5.774626
     14          6           0        0.088264    0.394504    5.199661
     15          1           0       -2.778960   -2.841466   -0.141247
     16          1           0        0.792602   -2.792987    3.135768
     17          1           0       -0.936954    1.110313    3.454846
     18          1           0        1.627114   -2.618626    5.451639
     19          1           0        1.175154   -0.572300    6.794490
     20          1           0       -0.123009    1.290644    5.774654
     21          6           0        0.736283    1.048806    1.016618
     22          6           0        0.432745    2.417959    0.933047
     23          6           0        2.053911    0.702909    1.357895
     24          6           0        1.391095    3.394825    1.197421
     25          6           0        3.020860    1.674939    1.619456
     26          6           0        2.694433    3.029262    1.543835
     27          1           0       -0.574674    2.713377    0.664028
     28          1           0        2.322386   -0.346147    1.420266
     29          1           0        1.121790    4.444548    1.134051
     30          1           0        4.030448    1.373208    1.880190
     31          1           0        3.442311    3.787867    1.748483
     32          6           0       -0.124770   -0.850805    3.106085
 ---------------------------------------------------------------------

 SCF Done:  E(UB3LYP) =  -844.043971001     A.U. after    1 cycles

 Alpha  occ. eigenvalues --  -19.00795 -19.00794 -10.16607 -10.16596 -10.16548
 Alpha  occ. eigenvalues --  -10.16513 -10.16398 -10.16361 -10.16355 -10.16309
 Alpha  occ. eigenvalues --  -10.16265 -10.16219 -10.15820 -10.15781 -10.15736
 Alpha  occ. eigenvalues --  -10.15676 -10.13267 -10.13223 -10.12136 -10.12079
 Alpha  occ. eigenvalues --   -0.91743  -0.91307  -0.84767  -0.84167  -0.78600
 Alpha  occ. eigenvalues --   -0.74578  -0.74058  -0.73381  -0.73324  -0.68314
 Alpha  occ. eigenvalues --   -0.64541  -0.60142  -0.59235  -0.59157  -0.58450
 Alpha  occ. eigenvalues --   -0.54660  -0.52859  -0.49564  -0.49200  -0.44868
 Alpha  occ. eigenvalues --   -0.44398  -0.44144  -0.44109  -0.42176  -0.41833
 Alpha  occ. eigenvalues --   -0.40875  -0.40816  -0.40725  -0.38700  -0.36070
 Alpha  occ. eigenvalues --   -0.35891  -0.35289  -0.34579  -0.34374  -0.33865
 Alpha  occ. eigenvalues --   -0.33061  -0.32952  -0.31507  -0.31015  -0.30120
 Alpha  occ. eigenvalues --   -0.24995  -0.24841  -0.24087  -0.24002  -0.21743
 Alpha  occ. eigenvalues --   -0.19784  -0.18854  -0.18671  -0.11611
 Alpha virt. eigenvalues --   -0.01567  -0.00709  -0.00403   0.00199   0.00390
 Alpha virt. eigenvalues --    0.00937   0.01075   0.01571   0.02516   0.02748
 Alpha virt. eigenvalues --    0.02926   0.03538   0.03846   0.04476   0.04600

  Beta  occ. eigenvalues --  -19.00795 -19.00794 -10.16607 -10.16596 -10.16548
  Beta  occ. eigenvalues --  -10.16513 -10.16398 -10.16361 -10.16355 -10.16309
  Beta  occ. eigenvalues --  -10.16265 -10.16219 -10.15820 -10.15781 -10.15736
  Beta  occ. eigenvalues --  -10.15676 -10.13267 -10.13223 -10.12136 -10.12079
  Beta  occ. eigenvalues --   -0.91743  -0.91307  -0.84767  -0.84167  -0.78600
  Beta  occ. eigenvalues --   -0.74578  -0.74058  -0.73381  -0.73324  -0.68314
  Beta  occ. eigenvalues --   -0.64541  -0.60142  -0.59235  -0.59157  -0.58450
  Beta  occ. eigenvalues --   -0.54660  -0.52859  -0.49564  -0.49200  -0.44868
  Beta  occ. eigenvalues --   -0.44398  -0.44144  -0.44109  -0.42176  -0.41833
  Beta  occ. eigenvalues --   -0.40875  -0.40816  -0.40725  -0.38700  -0.36070
  Beta  occ. eigenvalues --   -0.35891  -0.35289  -0.34579  -0.34374  -0.33865
  Beta  occ. eigenvalues --   -0.33061  -0.32952  -0.31507  -0.31015  -0.30120
  Beta  occ. eigenvalues --   -0.24995  -0.24841  -0.24087  -0.24002  -0.21743
  Beta  occ. eigenvalues --   -0.19784  -0.18854  -0.18671  -0.11611
  Beta virt. eigenvalues --   -0.01567  -0.00709  -0.00403   0.00199   0.00390
  Beta virt. eigenvalues --    0.00937   0.01075   0.01571   0.02516   0.02748
  Beta virt. eigenvalues --    0.02926   0.03538   0.03846   0.04476   0.04600

 Mulliken charges and spin densities:
               1          2
     1  C   -0.751138   0.000000
     2  C   -0.113854   0.000000
     3  C   -0.103793  -0.000000
     4  C   -0.765854  -0.000000
     5  C    0.079500   0.000000
     6  C    0.118898   0.000000
     7  O   -0.707667  -0.000000
     8  O   -0.713415  -0.000000
     9  H    0.136999  -0.000000
    10  C   -0.072817  -0.000000
    11  C   -0.451621  -0.000000
    12  C   -0.357242   0.000000
    13  C   -0.325474  -0.000000
    14  C   -0.500368   0.000000
    15  H    0.137018  -0.000000
    16  H    0.201179  -0.000000
    17  H    0.180222  -0.000000
    18  H    0.180713   0.000000
    19  H    0.170473  -0.000000
    20  H    0.183307   0.000000
    21  C    1.147760  -0.000000
    22  C   -0.080932  -0.000000
    23  C   -0.449974   0.000000
    24  C   -0.362337   0.000000
    25  C   -0.499250   0.000000
    26  C   -0.316724  -0.000000
    27  H    0.198946  -0.000000
    28  H    0.178338  -0.000000
    29  H    0.181589   0.000000
    30  H    0.183721  -0.000000
    31  H    0.171084  -0.000000
    32  C    1.122710   0.000000
 Sum of Mulliken charges =  -2.00000   0.00000

 Dipole moment (field-independent basis, Debye):
    X=              9.5976    Y=              8.5545    Z=             -6.0016  Tot=             14.1885
 Quadrupole moment (field-independent basis, Debye-Ang):
   XX=           -143.8832   YY=           -160.2705   ZZ=           -169.7863
   XY=            -27.1815   XZ=             15.9688   YZ=             33.1725

  Exact polarizability: 322.290  57.955 376.920  71.161  -5.598 386.379
 Approx polarizability: 355.490  44.510 425.973  73.793  -8.697 411.874

                      1                      2                      3
                      A                      A                      A
 Frequencies --     40.9793                48.6205                54.8951
 Red. masses --      6.3712                 4.3448                 4.4938
 Frc consts  --      0.0063                 0.0061                 0.0080
 IR Inten    --      3.7286                 0.6934                 3.0867

                      4                      5                      6
                      A                      A                      A
 Frequencies --     60.0472                89.1915               107.3181
 Red. masses --      4.2795                 4.7107                 5.5522
 Frc consts  --      0.0091                 0.0221                 0.0377
 IR Inten    --      0.1553                 2.3934                 5.4497

                      7                      8                      9
                      A                      A                      A
 Frequencies --    131.3726               218.9781               228.5015
 Red. masses --      8.7546                 5.0132                 6.4144
 Frc consts  --      0.0890                 0.1416                 0.1973
 IR Inten    --     18.6107                 0.9234                 5.6402

                     10                     11                     12
                      A                      A                      A
 Frequencies --    250.1847               286.9306               300.6478
 Red. masses --      5.3800                 7.0930                 5.9664
 Frc consts  --      0.1984                 0.3441                 0.3177
 IR Inten    --      0.6491                26.2867                11.5032

                     13                     14                     15
                      A                      A                      A
 Frequencies --    359.4501               403.1131               417.0811
 Red. masses --      5.9349                 5.0383                 2.9064
 Frc consts  --      0.4518                 0.4824                 0.2979
 IR Inten    --      2.2711                 4.6585                 0.7978

                     16                     17                     18
                      A                      A                      A
 Frequencies --    418.4510               434.0876               490.9972
 Red. masses --      2.9270                 8.2122                 9.4810
 Frc consts  --      0.3020                 0.9117                 1.3467
 IR Inten    --      0.3939                 0.6796                 3.1766

                     19                     20                     21
                      A                      A                      A
 Frequencies --    497.3097               526.1557               571.9363
 Red. masses --      3.9281                 3.8413                 4.1421
 Frc consts  --      0.5724                 0.6266                 0.7983
 IR Inten    --      5.5975                 8.0720                13.3039

                     22                     23                     24
                      A                      A                      A
 Frequencies --    594.5559               628.7538               632.0929
 Red. masses --      4.6756                 5.3659                 6.2807
 Frc consts  --      0.9738                 1.2498                 1.4785
 IR Inten    --      1.0731                 0.2164                 0.3717

                     25                     26                     27
                      A                      A                      A
 Frequencies --    645.2223               654.0864               685.2989
 Red. masses --      3.3041                 3.9056                 6.6610
 Frc consts  --      0.8104                 0.9845                 1.8431
 IR Inten    --     37.0380                 6.5053                15.6427

                     28                     29                     30
                      A                      A                      A
 Frequencies --    709.6548               710.0562               750.0370
 Red. masses --      1.6052                 1.5831                 7.0832
 Frc consts  --      0.4763                 0.4703                 2.3477
 IR Inten    --     39.3582               123.7487               129.5970

                     31                     32                     33
                      A                      A                      A
 Frequencies --    758.1718               769.7784               793.7801
 Red. masses --      2.9071                 2.3210                 3.8490
 Frc consts  --      0.9846                 0.8103                 1.4289
 IR Inten    --     23.7803                77.7753                23.8504

                     34                     35                     36
                      A                      A                      A
 Frequencies --    817.0588               852.7834               853.2115
 Red. masses --      2.0893                 1.2513                 1.2527
 Frc consts  --      0.8218                 0.5362                 0.5373
 IR Inten    --     83.8500                 4.7361                 2.3601

                     37                     38                     39
                      A                      A                      A
 Frequencies --    882.2113               910.6057               918.8078
 Red. masses --      3.5239                 1.3397                 2.3909
 Frc consts  --      1.6159                 0.6545                 1.1892
 IR Inten    --    167.3077                 4.4991                22.1643

                     40                     41                     42
                      A                      A                      A
 Frequencies --    925.5898               926.4131               983.8038
 Red. masses --      2.3854                 1.8337                 1.3689
 Frc consts  --      1.2041                 0.9272                 0.7806
 IR Inten    --      0.2535                33.9086                 1.6342

                     43                     44                     45
                      A                      A                      A
 Frequencies --    984.3727               994.4825               995.2992
 Red. masses --      1.3689                 1.2697                 1.2687
 Frc consts  --      0.7815                 0.7399                 0.7405
 IR Inten    --      0.4853                 0.2620                 0.2177

                     46                     47                     48
                      A                      A                      A
 Frequencies --   1010.9056              1011.4688              1040.0899
 Red. masses --      6.2469                 6.2628                 2.7405
 Frc consts  --      3.7613                 3.7750                 1.7467
 IR Inten    --      0.7018                 6.1676                 6.0270

                     49                     50                     51
                      A                      A                      A
 Frequencies --   1043.9832              1066.1023              1087.3154
 Red. masses --      2.2170                 2.3714                 1.6030
 Frc consts  --      1.4237                 1.5880                 1.1166
 IR Inten    --     26.2186                 8.5731                 1.4429

                     52                     53                     54
                      A                      A                      A
 Frequencies --   1093.7407              1102.5943              1167.7993
 Red. masses --      1.7285                 1.6946                 1.0997
 Frc consts  --      1.2183                 1.2138                 0.8836
 IR Inten    --     13.6244                 4.4054                 1.2230

                     55                     56                     57
                      A                      A                      A
 Frequencies --   1167.8718              1172.2894              1187.6816
 Red. masses --      1.1075                 2.8968                 1.1326
 Frc consts  --      0.8900                 2.3455                 0.9413
 IR Inten    --      6.6058               460.3451                 1.5322

                     58                     59                     60
                      A                      A                      A
 Frequencies --   1188.4732              1216.9846              1229.7079
 Red. masses --      1.1383                 3.8786                 2.6700
 Frc consts  --      0.9473                 3.3845                 2.3789
 IR Inten    --      0.6014                19.5174               391.3109

                     61                     62                     63
                      A                      A                      A
 Frequencies --   1303.1854              1305.1097              1314.5535
 Red. masses --      3.9163                 3.9639                 8.1083
 Frc consts  --      3.9186                 3.9781                 8.2553
 IR Inten    --     12.9603                 5.2888               255.9412

                     64                     65                     66
                      A                      A                      A
 Frequencies --   1316.2956              1341.2241              1342.4316
 Red. masses --      5.5945                 1.6725                 1.6944
 Frc consts  --      5.7111                 1.7726                 1.7991
 IR Inten    --    660.4393                 0.9817                 2.9648

                     67                     68                     69
                      A                      A                      A
 Frequencies --   1395.4211              1397.5024              1464.0151
 Red. masses --      3.3447                 4.6000                 2.1695
 Frc consts  --      3.8373                 5.2931                 2.7397
 IR Inten    --    702.4778               191.2644                18.7137

                     70                     71                     72
                      A                      A                      A
 Frequencies --   1465.1545              1500.4634              1515.6337
 Red. masses --      2.1863                 4.0735                 2.2950
 Frc consts  --      2.7652                 5.4035                 3.1061
 IR Inten    --     30.9631               137.5030               139.9540

                     73                     74                     75
                      A                      A                      A
 Frequencies --   1516.9775              1584.0460              1600.4315
 Red. masses --      2.4686                 6.4209                 5.3739
 Frc consts  --      3.3470                 9.4925                 8.1099
 IR Inten    --     86.7937               126.6857                 3.4055

                     76                     77                     78
                      A                      A                      A
 Frequencies --   1603.2242              1624.5271              1627.2087
 Red. masses --      5.6702                 5.6508                 5.7651
 Frc consts  --      8.5869                 8.7865                 8.9938
 IR Inten    --     17.6709                57.9793                68.2414

                     79                     80                     81
                      A                      A                      A
 Frequencies --   3095.7988              3119.5974              3147.4319
 Red. masses --      1.0837                 1.0927                 1.0846
 Frc consts  --      6.1196                 6.2656                 6.3306
 IR Inten    --     73.3355               163.4927                 7.0198

                     82                     83                     84
                      A                      A                      A
 Frequencies --   3147.5841              3154.0249              3154.1984
 Red. masses --      1.0846                 1.0880                 1.0883
 Frc consts  --      6.3308                 6.3766                 6.3792
 IR Inten    --      8.8297                 4.5626                32.1632

                     85                     86                     87
                      A                      A                      A
 Frequencies --   3168.4471              3169.6527              3174.9911
 Red. masses --      1.0913                 1.0917                 1.0937
 Frc consts  --      6.4550                 6.4619                 6.4960
 IR Inten    --     46.0803                49.8644                64.9175

                     88                     89                     90
                      A                      A                      A
 Frequencies --   3177.1300              3181.7700              3186.1904
 Red. masses --      1.0949                 1.0962                 1.0938
 Frc consts  --      6.5118                 6.5387                 6.5423
 IR Inten    --     52.9863                16.8538                17.6760

 - Thermochemistry -
 -------------------
 Temperature   298.150 Kelvin.  Pressure   1.00000 Atm.
 Atom     1 has atomic number  6 and mass  12.00000

 Molecular mass:   260.08373 amu.
 Principal axes and moments of inertia in atomic units:
                           1         2         3
     Eigenvalues --  4451.498464695.604448162.17136
           X           -0.25498   0.59578   0.76160
           Y           -0.68363   0.44596  -0.57773
           Z            0.68384   0.66796  -0.29358
 This molecule is an asymmetric top.
 Rotational symmetry number  1.
 Warning -- assumption of classical behavior for rotation
           may cause significant error
 Rotational temperatures (Kelvin)      0.01946     0.01845     0.01061
 Rotational constants (GHZ):           0.40542     0.38435     0.22111
 Zero-point vibrational energy     635178.8 (Joules/Mol)
                                  151.81138 (Kcal/Mol)
 Warning -- explicit consideration of  22 degrees of freedom as
           vibrations may cause significant error
 Vibrational temperatures:     58.96    69.95    78.98    86.39   128.33
          (Kelvin)            154.41   189.02   315.06   328.76   359.96
                              412.83   432.57   517.17   579.99   600.09
                              602.06   624.56   706.44   715.52   757.02
                              822.89   855.43   904.64   909.44   928.33
                              941.08   985.99  1021.03  1021.61  1079.14
                             1090.84  1107.54  1142.07  1175.57  1226.97
                             1227.58  1269.31  1310.16  1321.96  1331.72
                             1332.90  1415.47  1416.29  1430.84  1432.01
                             1454.47  1455.28  1496.46  1502.06  1533.88
                             1564.40  1573.65  1586.39  1680.20  1680.31
                             1686.66  1708.81  1709.95  1750.97  1769.28
                             1874.99  1877.76  1891.35  1893.86  1929.72
                             1931.46  2007.70  2010.69  2106.39  2108.03
                             2158.83  2180.66  2182.59  2279.09  2302.66
                             2306.68  2337.33  2341.19  4454.16  4488.40
                             4528.45  4528.67  4537.94  4538.19  4558.69
                             4560.42  4568.10  4571.18  4577.86  4584.22

 Zero-point correction=                           0.241927 (Hartree/Particle)
 Thermal correction to Energy=                    0.257494
 Thermal correction to Enthalpy=                  0.258438
 Thermal correction to Gibbs Free Energy=         0.197884
 Sum of electronic and zero-point Energies=           -843.802044
 Sum of electronic and thermal Energies=              -843.786477
 Sum of electronic and thermal Enthalpies=            -843.785533
 Sum of electronic and thermal Free Energies=         -843.846087

                     E (Thermal)             CV                S
                      KCal/Mol        Cal/Mol-Kelvin    Cal/Mol-Kelvin
 Total                  161.580             62.122            127.447
 Electronic               0.000              0.000              0.000
 Translational            0.889              2.981             42.567
 Rotational               0.889              2.981             33.500
 Vibrational            159.802             56.160             51.380
 Vibration     1          0.594              1.981              5.211
 Vibration     2          0.595              1.978              4.873
 Vibration     3          0.596              1.976              4.633
 Vibration     4          0.597              1.973              4.456
 Vibration     5          0.602              1.957              3.678
 Vibration     6          0.606              1.943              3.317
 Vibration     7          0.612              1.922              2.926
 Vibration     8          0.647              1.812              1.968
 Vibration     9          0.651              1.798              1.891
 Vibration    10          0.663              1.762              1.729
 Vibration    11          0.684              1.698              1.492
 Vibration    12          0.693              1.672              1.413
 Vibration    13          0.734              1.556              1.124
 Vibration    14          0.769              1.463              0.951
 Vibration    15          0.780              1.433              0.902
 Vibration    16          0.781              1.430              0.897
 Vibration    17          0.795              1.396              0.845
 Vibration    18          0.847              1.270              0.681
 Vibration    19          0.853              1.256              0.665
 Vibration    20          0.881              1.192              0.596
 Vibration    21          0.928              1.092              0.501
 Vibration    22          0.952              1.043              0.459

 Optimization completed.
    -- Stationary point found.
 Normal termination of Gaussian 16 at Sat Feb 10 13:59:29 2024.
