 Q-Chem 5.4, Q-Chem, Inc., Pleasanton, CA (2021)
 Q-Chem 5.4.0 for Intel X86 EM64T Linux

User input:
--------------------------------------------------------------
$molecule
-1 2
C                 -1.5612120000      1.9039960000     -4.7410860000
C                 -1.5101650000      0.5445320000     -4.9704560000
C                 -1.2289750000     -0.3395530000     -3.9059060000
C                 -1.3374190000      2.4304840000     -3.4486600000
C                 -1.0560940000      1.5434180000     -2.3768470000
C                 -1.0058450000      0.1571620000     -2.6371350000
C                 -1.3960460000      3.8627950000     -3.2328540000
C                 -0.8081110000      2.0202290000     -1.0115700000
C                 -1.1772220000      4.3564310000     -1.8884170000
C                 -0.8964990000      3.4694440000     -0.7929980000
C                 -1.2619740000      5.7674060000     -1.6577800000
C                 -1.0834820000      6.2802550000     -0.3804960000
C                 -0.8184170000      5.4144580000      0.6861890000
C                 -0.7257960000      4.0538380000      0.4851050000
O                 -1.6426650000      4.6593210000     -4.2055380000
O                 -0.5341920000      1.2039010000     -0.0986370000
H                 -1.7726130000      2.6053260000     -5.5393460000
H                 -1.6842890000      0.1536170000     -5.9683600000
H                 -1.1868170000     -1.4093200000     -4.0868860000
H                 -0.7840770000     -0.4982520000     -1.8034230000
H                 -0.6844600000      5.7989810000      1.6909150000
O                 -1.5214610000      6.6156370000     -2.6707150000
O                 -0.5589980000      3.2613790000      1.6302350000
C                  0.6483120000      2.6748770000      1.8558340000
C                  0.5062240000      1.5865210000      2.8862550000
O                  1.6755950000      3.0083620000      1.3251770000
H                 -1.1547390000      7.3512960000     -0.2324430000
H                 -1.6191010000      6.0221610000     -3.4862650000
H                  0.0503900000      0.7319540000      2.3809320000
H                 -0.1558380000      1.8994500000      3.6961310000
H                  1.4868480000      1.3127940000      3.2733840000
$end

$rem
BASIS  =  6-311++G(d,p)
GUI  =  2
JOB_TYPE  =  SP
METHOD  =  B3LYP
SCF_CONVERGENCE  = 8
SOLVENT_METHOD = sm12
$end

$smx
solvent dimethylformamide
charges CM5
$end

--------------------------------------------------------------

             Standard Nuclear Orientation (Angstroms)
    I     Atom           X                Y                Z
 ----------------------------------------------------------------
    1      C      -1.5612120000     1.9039960000    -4.7410860000
    2      C      -1.5101650000     0.5445320000    -4.9704560000
    3      C      -1.2289750000    -0.3395530000    -3.9059060000
    4      C      -1.3374190000     2.4304840000    -3.4486600000
    5      C      -1.0560940000     1.5434180000    -2.3768470000
    6      C      -1.0058450000     0.1571620000    -2.6371350000
    7      C      -1.3960460000     3.8627950000    -3.2328540000
    8      C      -0.8081110000     2.0202290000    -1.0115700000
    9      C      -1.1772220000     4.3564310000    -1.8884170000
   10      C      -0.8964990000     3.4694440000    -0.7929980000
   11      C      -1.2619740000     5.7674060000    -1.6577800000
   12      C      -1.0834820000     6.2802550000    -0.3804960000
   13      C      -0.8184170000     5.4144580000     0.6861890000
   14      C      -0.7257960000     4.0538380000     0.4851050000
   15      O      -1.6426650000     4.6593210000    -4.2055380000
   16      O      -0.5341920000     1.2039010000    -0.0986370000
   17      H      -1.7726130000     2.6053260000    -5.5393460000
   18      H      -1.6842890000     0.1536170000    -5.9683600000
   19      H      -1.1868170000    -1.4093200000    -4.0868860000
   20      H      -0.7840770000    -0.4982520000    -1.8034230000
   21      H      -0.6844600000     5.7989810000     1.6909150000
   22      O      -1.5214610000     6.6156370000    -2.6707150000
   23      O      -0.5589980000     3.2613790000     1.6302350000
   24      C       0.6483120000     2.6748770000     1.8558340000
   25      C       0.5062240000     1.5865210000     2.8862550000
   26      O       1.6755950000     3.0083620000     1.3251770000
   27      H      -1.1547390000     7.3512960000    -0.2324430000
   28      H      -1.6191010000     6.0221610000    -3.4862650000
   29      H       0.0503900000     0.7319540000     2.3809320000
   30      H      -0.1558380000     1.8994500000     3.6961310000
   31      H       1.4868480000     1.3127940000     3.2733840000
 ----------------------------------------------------------------

   19    -992.2254619296      5.51e-09  Convergence criterion met
 Total energy in the final basis set =     -992.3117843664

                    Orbital Energies (a.u.)
 --------------------------------------------------------------

 Alpha MOs
 -- Occupied --
-19.1683 -19.1316 -19.1113 -19.0948 -19.0816 -10.3047 -10.2418 -10.2386
-10.2364 -10.2363 -10.1917 -10.1875 -10.1844 -10.1839 -10.1838 -10.1833
-10.1830 -10.1810 -10.1799 -10.1761 -10.1709  -1.1104  -1.0580  -1.0283
 -1.0104  -1.0086  -0.8714  -0.8588  -0.7991  -0.7712  -0.7606  -0.7530
 -0.7308  -0.6834  -0.6520  -0.6395  -0.6267  -0.5844  -0.5643  -0.5497
 -0.5320  -0.5124  -0.4916  -0.4852  -0.4837  -0.4744  -0.4660  -0.4598
 -0.4399  -0.4363  -0.4330  -0.4279  -0.4200  -0.4126  -0.4079  -0.4036
 -0.4012  -0.3894  -0.3795  -0.3757  -0.3657  -0.3620  -0.3576  -0.3469
 -0.3322  -0.3175  -0.2828  -0.2784  -0.2660  -0.2614  -0.2608  -0.2431
 -0.2322  -0.1508

 Beta MOs
 -- Occupied --
-19.1683 -19.1313 -19.1113 -19.0897 -19.0759 -10.3047 -10.2416 -10.2363
-10.2361 -10.2351 -10.1907 -10.1875 -10.1838 -10.1834 -10.1834 -10.1828
-10.1821 -10.1808 -10.1800 -10.1751 -10.1709  -1.1102  -1.0564  -1.0280
 -1.0019  -0.9991  -0.8688  -0.8575  -0.7952  -0.7699  -0.7588  -0.7512
 -0.7293  -0.6767  -0.6505  -0.6369  -0.6258  -0.5830  -0.5630  -0.5472
 -0.5309  -0.5109  -0.4912  -0.4842  -0.4817  -0.4734  -0.4644  -0.4593
 -0.4364  -0.4328  -0.4296  -0.4252  -0.4181  -0.4093  -0.4061  -0.4002
 -0.3962  -0.3847  -0.3753  -0.3669  -0.3618  -0.3606  -0.3490  -0.3452
 -0.3246  -0.3161  -0.2824  -0.2602  -0.2581  -0.2570  -0.2553  -0.2379
 -0.2235

          Ground-State Mulliken Net Atomic Charges

     Atom                 Charge (a.u.)    Spin (a.u.)
  --------------------------------------------------------
      1 C                     0.148108       0.045310
      2 C                     1.002043       0.020044
      3 C                     0.949906       0.049666
      4 C                    -0.756619      -0.004676
      5 C                    -0.972968       0.041388
      6 C                     0.206818       0.020845
      7 C                    -1.476838       0.124087
      8 C                    -1.493059       0.045066
      9 C                    -0.530485      -0.011801
     10 C                    -0.611291       0.061785
     11 C                    -0.633179       0.031403
     12 C                     0.814161       0.071097
     13 C                     1.561402       0.051680
     14 C                    -0.541362       0.055219
     15 O                    -0.335689       0.188519
     16 O                    -0.232926       0.220660
     17 H                     0.187897      -0.001437
     18 H                     0.360160      -0.001870
     19 H                     0.352984      -0.003685
     20 H                     0.162701      -0.000618
     21 H                     0.310304      -0.004344
     22 O                    -0.327249       0.010537
     23 O                     0.058319      -0.000358
     24 C                    -0.267824      -0.001044
     25 C                     0.078948       0.003003
     26 O                    -0.284992      -0.000481
     27 H                     0.293397      -0.005646
     28 H                     0.346112      -0.003955
     29 H                     0.190892      -0.000609
     30 H                     0.228193       0.000420
     31 H                     0.212136      -0.000205
  --------------------------------------------------------
  Sum of atomic charges =    -1.000000

                    Cartesian Multipole Moments
 -----------------------------------------------------------------
    Charge (ESU x 10^10)
                -4.8032
    Dipole Moment (Debye)
         X       3.0848      Y     -17.6447      Z       8.9358
       Tot      20.0175
    Quadrupole Moments (Debye-Ang)
        XX    -140.2874     XY      14.9268     YY    -204.7976
        XZ     -14.2137     YZ      42.5028     ZZ    -151.4070

 Total job time:  1182.45s(wall), 9019.75s(cpu)
        *  Thank you very much for using Q-Chem.  Have a nice day.  *
