 Gaussian 16, Revision A.03,
 Gaussian 16:  ES64L-G16RevA.03 25-Dec-2016

 ----------------------------------------------------------------------
 #P UB3LYP/6-311++G(d,p) nosym opt freq SCRF=(PCM,Solvent=n,n-DiMethylF
 ormamide)
 ----------------------------------------------------------------------

 -------
 Reduced
 -------
 Symbolic Z-matrix:
 Charge = -3 Multiplicity = 1

 SCF Done:  E(UB3LYP) =  -1368.03728833     A.U. after   17 cycles
 SCF Done:  E(UB3LYP) =  -1368.04016006     A.U. after   14 cycles
 SCF Done:  E(UB3LYP) =  -1368.04014153     A.U. after   13 cycles
 SCF Done:  E(UB3LYP) =  -1368.04077595     A.U. after   13 cycles
 SCF Done:  E(UB3LYP) =  -1368.04071358     A.U. after   12 cycles
 SCF Done:  E(UB3LYP) =  -1368.04080749     A.U. after   12 cycles
 SCF Done:  E(UB3LYP) =  -1368.04081225     A.U. after   11 cycles
 SCF Done:  E(UB3LYP) =  -1368.04081432     A.U. after   11 cycles
 SCF Done:  E(UB3LYP) =  -1368.04081511     A.U. after   10 cycles
 SCF Done:  E(UB3LYP) =  -1368.04081547     A.U. after    9 cycles
 Optimization completed.
    -- Stationary point found.
 Normal termination of Gaussian 16 at Sat Feb 10 22:52:44 2024.

 ----------------------------------------------------------------------
 #P Geom=AllCheck Guess=TCheck SCRF=Check GenChk UB3LYP/6-311++G(d,p) F
 req
 ----------------------------------------------------------------------

 Structure from the checkpoint file:  "157-an.chk"
 -------
 Reduced
 -------
 Charge = -3 Multiplicity = 1

                          Input orientation:
 ---------------------------------------------------------------------
 Center     Atomic      Atomic             Coordinates (Angstroms)
 Number     Number       Type             X           Y           Z
 ---------------------------------------------------------------------
      1          6           0       -1.743547    1.904183   -5.143178
      2          6           0       -1.631573    0.588941   -5.536247
      3          6           0       -1.252139   -0.398124   -4.586192
      4          6           0       -1.488281    2.321533   -3.807359
      5          6           0       -1.104247    1.319443   -2.841838
      6          6           0       -1.000392   -0.030971   -3.283888
      7          6           0       -1.621466    3.714352   -3.462063
      8          6           0       -0.840032    1.653332   -1.468545
      9          6           0       -1.324480    4.062655   -2.098142
     10          6           0       -0.962262    3.040047   -1.128545
     11          6           0       -1.394098    5.446163   -1.645592
     12          6           0       -1.186092    5.748825   -0.291490
     13          6           0       -0.843101    4.724900    0.637508
     14          6           0       -0.729688    3.426109    0.228640
     15          8           0       -2.002672    4.578422   -4.374136
     16          8           0       -0.514702    0.745292   -0.588964
     17          7           0       -1.630305    6.427646   -2.579784
     18          1           0       -2.032550    2.670191   -5.853708
     19          1           0       -1.830159    0.304762   -6.565128
     20          1           0       -1.162808   -1.436935   -4.889801
     21          1           0       -0.712319   -0.772950   -2.547818
     22         16           0       -1.150405    7.439404    0.299938
     23          1           0       -0.683688    4.998618    1.673499
     24          1           0       -1.938314    6.038351   -3.480689
     25          1           0       -2.003654    7.299296   -2.225938
     26          1           0       -0.469323    2.643115    0.929959
     27          8           0       -2.241761    8.187977   -0.416687
     28          8           0       -1.386421    7.380258    1.775532
     29          8           0        0.197487    8.017424   -0.020588
 ---------------------------------------------------------------------

 SCF Done:  E(UB3LYP) =  -1368.04081547     A.U. after    1 cycles

 Alpha  occ. eigenvalues --  -89.02734 -19.07332 -19.07299 -19.07095 -19.02578
 Alpha  occ. eigenvalues --  -19.01364 -14.27711 -10.20082 -10.18018 -10.16874
 Alpha  occ. eigenvalues --  -10.15556 -10.14941 -10.14813 -10.14661 -10.14629
 Alpha  occ. eigenvalues --  -10.14560 -10.14296 -10.13772 -10.13696 -10.13376
 Alpha  occ. eigenvalues --  -10.13117  -8.08628  -6.04931  -6.04900  -6.04753
 Alpha  occ. eigenvalues --   -1.08692  -0.95234  -0.94752  -0.94138  -0.92416
 Alpha  occ. eigenvalues --   -0.88757  -0.82538  -0.80697  -0.75651  -0.72277
 Alpha  occ. eigenvalues --   -0.71526  -0.70155  -0.64501  -0.62069  -0.59803
 Alpha  occ. eigenvalues --   -0.57378  -0.55130  -0.52844  -0.51914  -0.49416
 Alpha  occ. eigenvalues --   -0.47285  -0.45996  -0.44894  -0.43974  -0.43499
 Alpha  occ. eigenvalues --   -0.43080  -0.41860  -0.40907  -0.39833  -0.38806
 Alpha  occ. eigenvalues --   -0.38448  -0.37265  -0.36154  -0.35346  -0.35236
 Alpha  occ. eigenvalues --   -0.33181  -0.32513  -0.32080  -0.31733  -0.31544
 Alpha  occ. eigenvalues --   -0.31071  -0.30082  -0.28251  -0.27815  -0.27358
 Alpha  occ. eigenvalues --   -0.27201  -0.23871  -0.22884  -0.22340  -0.21470
 Alpha  occ. eigenvalues --   -0.20508  -0.19306  -0.18490  -0.10806
 Alpha virt. eigenvalues --   -0.02162  -0.00034   0.00301   0.01157   0.01683
 Alpha virt. eigenvalues --    0.02609   0.02694   0.02890   0.04667   0.04791
 Alpha virt. eigenvalues --    0.04866   0.05078   0.05861   0.06544   0.06710

  Beta  occ. eigenvalues --  -89.02734 -19.07332 -19.07299 -19.07095 -19.02578
  Beta  occ. eigenvalues --  -19.01364 -14.27711 -10.20082 -10.18018 -10.16874
  Beta  occ. eigenvalues --  -10.15556 -10.14941 -10.14813 -10.14661 -10.14629
  Beta  occ. eigenvalues --  -10.14560 -10.14296 -10.13772 -10.13696 -10.13376
  Beta  occ. eigenvalues --  -10.13117  -8.08628  -6.04931  -6.04900  -6.04753
  Beta  occ. eigenvalues --   -1.08692  -0.95234  -0.94752  -0.94138  -0.92416
  Beta  occ. eigenvalues --   -0.88757  -0.82538  -0.80697  -0.75651  -0.72277
  Beta  occ. eigenvalues --   -0.71526  -0.70155  -0.64501  -0.62069  -0.59803
  Beta  occ. eigenvalues --   -0.57378  -0.55130  -0.52844  -0.51914  -0.49416
  Beta  occ. eigenvalues --   -0.47285  -0.45996  -0.44894  -0.43974  -0.43499
  Beta  occ. eigenvalues --   -0.43080  -0.41860  -0.40907  -0.39833  -0.38806
  Beta  occ. eigenvalues --   -0.38448  -0.37265  -0.36154  -0.35346  -0.35236
  Beta  occ. eigenvalues --   -0.33181  -0.32513  -0.32080  -0.31733  -0.31544
  Beta  occ. eigenvalues --   -0.31071  -0.30082  -0.28251  -0.27815  -0.27358
  Beta  occ. eigenvalues --   -0.27201  -0.23871  -0.22884  -0.22340  -0.21470
  Beta  occ. eigenvalues --   -0.20508  -0.19306  -0.18490  -0.10806
  Beta virt. eigenvalues --   -0.02162  -0.00034   0.00301   0.01157   0.01683
  Beta virt. eigenvalues --    0.02609   0.02694   0.02890   0.04667   0.04791
  Beta virt. eigenvalues --    0.04866   0.05078   0.05861   0.06544   0.06710

 Mulliken charges and spin densities:
               1          2
     1  C    0.024219   0.000000
     2  C   -0.561107   0.000000
     3  C   -0.461610   0.000000
     4  C    0.230301   0.000000
     5  C    0.136144   0.000000
     6  C   -0.054289   0.000000
     7  C   -0.439836  -0.000000
     8  C   -0.499168   0.000000
     9  C    0.181593   0.000000
    10  C    0.522191  -0.000000
    11  C    0.359670   0.000000
    12  C   -1.201155   0.000000
    13  C   -0.213510  -0.000000
    14  C   -0.191122  -0.000000
    15  O   -0.621710  -0.000000
    16  O   -0.677432  -0.000000
    17  N   -0.473059   0.000000
    18  H    0.148637   0.000000
    19  H    0.157411  -0.000000
    20  H    0.158311   0.000000
    21  H    0.143006  -0.000000
    22  S    0.686346   0.000000
    23  H    0.192801  -0.000000
    24  H    0.344004  -0.000000
    25  H    0.262598   0.000000
    26  H    0.137626  -0.000000
    27  O   -0.478377  -0.000000
    28  O   -0.407266   0.000000
    29  O   -0.405217   0.000000
 Sum of Mulliken charges =  -3.00000   0.00000

 Dipole moment (field-independent basis, Debye):
    X=             15.9350    Y=            -66.7712    Z=             17.6792  Tot=             70.8863
 Quadrupole moment (field-independent basis, Debye-Ang):
   XX=           -172.6971   YY=           -584.1668   ZZ=           -227.7494
   XY=             78.1818   XZ=            -27.5409   YZ=             46.0501

  Exact polarizability: 213.367 -19.349 546.111  53.529 117.565 509.503
 Approx polarizability: 241.419 -28.836 585.072  65.912  96.011 580.406

                      1                      2                      3
                      A                      A                      A
 Frequencies --     44.0539                51.2857                85.7381
 Red. masses --      8.0477                12.8792                 8.6383
 Frc consts  --      0.0092                 0.0200                 0.0374
 IR Inten    --      0.9182                 0.6707                19.7407

                      4                      5                      6
                      A                      A                      A
 Frequencies --     94.4754               136.6231               142.9077
 Red. masses --      6.0911                 6.1852                 6.1258
 Frc consts  --      0.0320                 0.0680                 0.0737
 IR Inten    --      3.0886                 0.1842                 0.1779

                      7                      8                      9
                      A                      A                      A
 Frequencies --    174.9769               193.5743               225.2291
 Red. masses --      9.7841                 6.2633                12.0323
 Frc consts  --      0.1765                 0.1383                 0.3596
 IR Inten    --      3.4660                 0.2026                 4.1737

                     10                     11                     12
                      A                      A                      A
 Frequencies --    248.0488               277.5046               306.8914
 Red. masses --      7.1778                 4.8577                10.0204
 Frc consts  --      0.2602                 0.2204                 0.5560
 IR Inten    --     19.4304                 3.1448                 4.6488

                     13                     14                     15
                      A                      A                      A
 Frequencies --    346.4872               357.8507               389.3235
 Red. masses --      6.2861                 8.0995                 7.1516
 Frc consts  --      0.4446                 0.6111                 0.6387
 IR Inten    --     22.5861                 1.7594                23.1259

                     16                     17                     18
                      A                      A                      A
 Frequencies --    405.0368               413.8937               432.6431
 Red. masses --      7.7732                 7.8256                 7.8921
 Frc consts  --      0.7513                 0.7899                 0.8704
 IR Inten    --     10.9046                 5.4141                24.6070

                     19                     20                     21
                      A                      A                      A
 Frequencies --    449.1128               478.2391               489.6537
 Red. masses --      3.2310                 7.7518                 6.8954
 Frc consts  --      0.3840                 1.0446                 0.9741
 IR Inten    --      2.6729                 2.0833                14.0169

                     22                     23                     24
                      A                      A                      A
 Frequencies --    504.4105               522.0579               538.1718
 Red. masses --      6.8708                 7.7465                 5.6705
 Frc consts  --      1.0300                 1.2439                 0.9676
 IR Inten    --     59.1518                30.9854                40.4999

                     25                     26                     27
                      A                      A                      A
 Frequencies --    555.7740               573.4332               583.3466
 Red. masses --      1.6151                 7.4483                 4.0112
 Frc consts  --      0.2939                 1.4430                 0.8042
 IR Inten    --    334.2098               280.1610                 8.0911

                     28                     29                     30
                      A                      A                      A
 Frequencies --    604.0094               653.0524               658.2795
 Red. masses --      5.2675                 6.3243                 5.3316
 Frc consts  --      1.1322                 1.5891                 1.3612
 IR Inten    --    287.9588                52.2514                39.0651

                     31                     32                     33
                      A                      A                      A
 Frequencies --    670.9379               698.4240               701.9377
 Red. masses --      5.4840                 4.3574                 2.8855
 Frc consts  --      1.4545                 1.2523                 0.8377
 IR Inten    --    190.6196                55.1384                78.1568

                     34                     35                     36
                      A                      A                      A
 Frequencies --    749.4940               767.9150               783.8487
 Red. masses --      4.9548                 1.5023                 1.8015
 Frc consts  --      1.6399                 0.5220                 0.6522
 IR Inten    --     20.2160                 5.3693               121.0949

                     37                     38                     39
                      A                      A                      A
 Frequencies --    796.6184               811.4642               820.2945
 Red. masses --      2.9478                 2.5915                 2.1445
 Frc consts  --      1.1022                 1.0054                 0.8502
 IR Inten    --      8.8159                12.5060                76.2613

                     40                     41                     42
                      A                      A                      A
 Frequencies --    858.2126               884.9679               935.2987
 Red. masses --      1.7267                 6.9932                10.0119
 Frc consts  --      0.7493                 3.2268                 5.1602
 IR Inten    --      0.8497                65.5036               277.3712

                     43                     44                     45
                      A                      A                      A
 Frequencies --    955.2181               964.1815               978.1082
 Red. masses --      1.2493                 6.9881                 1.3590
 Frc consts  --      0.6716                 3.8276                 0.7660
 IR Inten    --      3.9301               573.3686                 3.8784

                     46                     47                     48
                      A                      A                      A
 Frequencies --    984.1821              1016.6857              1029.3314
 Red. masses --      1.2518                 3.5874                 2.3783
 Frc consts  --      0.7144                 2.1848                 1.4847
 IR Inten    --      0.3979               254.8512               233.7208

                     49                     50                     51
                      A                      A                      A
 Frequencies --   1062.0802              1085.3233              1093.3749
 Red. masses --     15.8877                 4.8986                 6.4561
 Frc consts  --     10.5591                 3.3997                 4.5473
 IR Inten    --    525.2514               199.1754              1089.4124

                     52                     53                     54
                      A                      A                      A
 Frequencies --   1115.9347              1129.6369              1149.2851
 Red. masses --      2.3088                 1.5482                 1.5659
 Frc consts  --      1.6940                 1.1640                 1.2186
 IR Inten    --    306.0025               167.3675               156.6130

                     55                     56                     57
                      A                      A                      A
 Frequencies --   1172.4977              1194.2441              1216.3179
 Red. masses --      2.3262                 1.6804                 2.6603
 Frc consts  --      1.8842                 1.4121                 2.3189
 IR Inten    --     32.0504               214.9483               372.7347

                     58                     59                     60
                      A                      A                      A
 Frequencies --   1242.6244              1275.2831              1306.3121
 Red. masses --      2.6527                 2.9947                 5.1349
 Frc consts  --      2.4133                 2.8696                 5.1627
 IR Inten    --    439.2086                 5.5750                51.7318

                     61                     62                     63
                      A                      A                      A
 Frequencies --   1343.3536              1354.6940              1382.0882
 Red. masses --      2.9636                 6.4380                 2.5362
 Frc consts  --      3.1510                 6.9612                 2.8543
 IR Inten    --   1021.1317               536.0102               566.8549

                     64                     65                     66
                      A                      A                      A
 Frequencies --   1422.2661              1433.4599              1462.4648
 Red. masses --      4.2604                 4.8230                 2.7383
 Frc consts  --      5.0776                 5.8390                 3.4507
 IR Inten    --    732.3281                15.5739               369.3213

                     67                     68                     69
                      A                      A                      A
 Frequencies --   1471.7703              1498.0431              1524.6959
 Red. masses --      2.6506                 4.6308                 5.1938
 Frc consts  --      3.3828                 6.1229                 7.1139
 IR Inten    --     85.6390                25.0668               215.5322

                     70                     71                     72
                      A                      A                      A
 Frequencies --   1567.9859              1580.8539              1598.5791
 Red. masses --      3.2516                 1.6295                 5.5607
 Frc consts  --      4.7101                 2.3994                 8.3723
 IR Inten    --    213.6903               164.0311               138.7272

                     73                     74                     75
                      A                      A                      A
 Frequencies --   1609.7171              3139.4975              3155.4106
 Red. masses --      5.3454                 1.0848                 1.0897
 Frc consts  --      8.1607                 6.3000                 6.3923
 IR Inten    --      7.9329                25.6283                40.7000

                     76                     77                     78
                      A                      A                      A
 Frequencies --   3174.4961              3175.9794              3179.6412
 Red. masses --      1.0849                 1.0907                 1.0930
 Frc consts  --      6.4413                 6.4822                 6.5110
 IR Inten    --      8.3910                34.8503                87.1029

                     79                     80                     81
                      A                      A                      A
 Frequencies --   3192.1831              3221.8547              3557.2645
 Red. masses --      1.0933                 1.0696                 1.0853
 Frc consts  --      6.5642                 6.5414                 8.0917
 IR Inten    --     37.9205               441.9569               331.1830

 - Thermochemistry -
 -------------------
 Temperature   298.150 Kelvin.  Pressure   1.00000 Atm.
 Atom     1 has atomic number  6 and mass  12.00000

 Molecular mass:   302.01232 amu.
 Principal axes and moments of inertia in atomic units:
                           1         2         3
     Eigenvalues --  2431.08990********************
           X            0.01866   0.25767   0.96605
           Y            0.84054  -0.52727   0.12440
           Z            0.54143   0.80969  -0.22642
 This molecule is an asymmetric top.
 Rotational symmetry number  1.
 Warning -- assumption of classical behavior for rotation
           may cause significant error
 Rotational temperatures (Kelvin)      0.03563     0.00785     0.00661
 Rotational constants (GHZ):           0.74236     0.16363     0.13771
 Zero-point vibrational energy     510999.3 (Joules/Mol)
                                  122.13177 (Kcal/Mol)
 Warning -- explicit consideration of  28 degrees of freedom as
           vibrations may cause significant error
 Vibrational temperatures:     63.38    73.79   123.36   135.93   196.57
          (Kelvin)            205.61   251.75   278.51   324.05   356.89
                              399.27   441.55   498.52   514.87   560.15
                              582.76   595.50   622.48   646.17   688.08
                              704.50   725.73   751.12   774.31   799.63
                              825.04   839.31   869.03   939.60   947.12
                              965.33  1004.88  1009.93  1078.35  1104.86
                             1127.78  1146.16  1167.52  1180.22  1234.78
                             1273.27  1345.69  1374.35  1387.24  1407.28
                             1416.02  1462.78  1480.98  1528.10  1561.54
                             1573.12  1605.58  1625.30  1653.56  1686.96
                             1718.25  1750.01  1787.86  1834.85  1879.49
                             1932.79  1949.10  1988.52  2046.32  2062.43
                             2104.16  2117.55  2155.35  2193.70  2255.98
                             2274.50  2300.00  2316.02  4517.04  4539.93
                             4567.39  4569.53  4574.79  4592.84  4635.53
                             5118.11

 Zero-point correction=                           0.194629 (Hartree/Particle)
 Thermal correction to Energy=                    0.210802
 Thermal correction to Enthalpy=                  0.211746
 Thermal correction to Gibbs Free Energy=         0.150958
 Sum of electronic and zero-point Energies=          -1367.846186
 Sum of electronic and thermal Energies=             -1367.830014
 Sum of electronic and thermal Enthalpies=           -1367.829070
 Sum of electronic and thermal Free Energies=        -1367.889858

                     E (Thermal)             CV                S
                      KCal/Mol        Cal/Mol-Kelvin    Cal/Mol-Kelvin
 Total                  132.280             65.245            127.940
 Electronic               0.000              0.000              0.000
 Translational            0.889              2.981             43.013
 Rotational               0.889              2.981             34.218
 Vibrational            130.503             59.283             50.709
 Vibration     1          0.595              1.980              5.068
 Vibration     2          0.596              1.977              4.767
 Vibration     3          0.601              1.959              3.755
 Vibration     4          0.603              1.953              3.565
 Vibration     5          0.614              1.917              2.851
 Vibration     6          0.616              1.910              2.765
 Vibration     7          0.627              1.873              2.381
 Vibration     8          0.635              1.849              2.193
 Vibration     9          0.650              1.803              1.917
 Vibration    10          0.662              1.766              1.744
 Vibration    11          0.678              1.715              1.549
 Vibration    12          0.697              1.661              1.379
 Vibration    13          0.724              1.582              1.182
 Vibration    14          0.733              1.559              1.131
 Vibration    15          0.757              1.493              1.003
 Vibration    16          0.770              1.459              0.944
 Vibration    17          0.777              1.440              0.913
 Vibration    18          0.794              1.399              0.850
 Vibration    19          0.808              1.363              0.798
 Vibration    20          0.835              1.298              0.715
 Vibration    21          0.845              1.273              0.685
 Vibration    22          0.860              1.240              0.647
 Vibration    23          0.877              1.201              0.605
 Vibration    24          0.893              1.166              0.569
 Vibration    25          0.911              1.127              0.532
 Vibration    26          0.930              1.089              0.498
 Vibration    27          0.940              1.067              0.479
 Vibration    28          0.962              1.023              0.443

                           ! Non-Optimized Parameters !
 Normal termination of Gaussian 16 at Sun Feb 11 00:52:15 2024.
