 Q-Chem 5.4, Q-Chem, Inc., Pleasanton, CA (2021)
 Q-Chem 5.4.0 for Intel X86 EM64T Linux

User input:
--------------------------------------------------------------
$molecule
-1 2
C                  6.8973820000     -1.6411380000     -0.2542620000
C                  7.4565760000     -0.6827710000     -1.0754740000
C                  6.6420210000      0.3225810000     -1.6407480000
C                  5.2883920000      0.3442170000     -1.3704980000
C                  4.6933610000     -0.6251160000     -0.5336990000
C                  5.5153660000     -1.6396560000      0.0367640000
C                  4.9713140000     -2.6794310000      0.9144020000
C                  3.5317240000     -2.6110390000      1.1685930000
C                  2.7084270000     -1.5961630000      0.5981940000
C                  3.2518670000     -0.5587380000     -0.2776470000
C                  2.9443270000     -3.5862760000      2.0081190000
C                  1.5945310000     -3.5473360000      2.2649750000
C                  0.7600010000     -2.5522900000      1.7115540000
C                  1.3280010000     -1.5982890000      0.8916290000
O                  5.6941400000     -3.5736440000      1.4175140000
O                  2.5263380000      0.3345370000     -0.7794970000
H                  7.4984060000     -2.4243750000      0.1931900000
H                  4.6389450000      1.1037910000     -1.7903060000
H                  3.5965230000     -4.3428830000      2.4251170000
H                  0.7217540000     -0.8171690000      0.4468730000
I                  0.7174170000     -5.0197540000      3.5304570000
H                  8.5215160000     -0.7009850000     -1.2872490000
H                  7.0809370000      1.0770020000     -2.2868600000
H                 -0.3012680000     -2.5390850000      1.9263180000
$end
$rem
MAX_SCF_CYCLES=200
BASIS  =  6-311++G(d,p)
GUI  =  2
JOB_TYPE  =  SP
METHOD  =  B3LYP
SOLVENT_METHOD = COSMO
$end
$solvent
dielectric 37.219
opticaldielectric 1.43
$end

--------------------------------------------------------------

             Standard Nuclear Orientation (Angstroms)
    I     Atom           X                Y                Z
 ----------------------------------------------------------------
    1      C       3.9626056395    -1.8006184149     0.0000573049
    2      C       5.2870680243    -1.4115762881     0.0000491211
    3      C       5.6178978498    -0.0388713624     0.0000274665
    4      C       4.6156234739     0.9104761624    -0.0000087214
    5      C       3.2537831928     0.5372577670    -0.0000267618
    6      C       2.9199212448    -0.8480031702     0.0000142618
    7      C       1.5303267141    -1.3131914383    -0.0000471360
    8      C       0.5070796630    -0.2669240869    -0.0000317431
    9      C       0.8402616952     1.1194871068    -0.0000430971
   10      C       2.2272122725     1.5832146318    -0.0000263392
   11      C      -0.8545552893    -0.6501689212    -0.0000417103
   12      C      -1.8377064694     0.3104841506     0.0000089065
   13      C      -1.5317052468     1.6885969605     0.0000432614
   14      C      -0.2046701563     2.0680660361    -0.0000077786
   15      O       1.2348134998    -2.5329815597    -0.0000501828
   16      O       2.5197992055     2.8041072825    -0.0000212867
   17      H       3.6795222547    -2.8469296192     0.0000492747
   18      H       4.8398258142     1.9709977947     0.0000388146
   19      H      -1.0738601269    -1.7101719812    -0.0001309610
   20      H       0.0724538875     3.1162521082     0.0000312156
   21      I      -3.8861617977    -0.2748526724     0.0000101706
   22      H       6.0744840577    -2.1594088859     0.0000490403
   23      H       6.6595030757     0.2682402911     0.0000775624
   24      H      -2.3211109789     2.4298313519     0.0001155603
 ----------------------------------------------------------------

   11   -7607.9408588313      4.28e-06  Convergence criterion met
 Total energy in the final basis set =    -7607.9408588313
    4   -7608.0173386558      9.84e-06  Convergence criterion met
 Total energy in the final basis set =    -7608.0173386558

                    Orbital Energies (a.u.)
 --------------------------------------------------------------

 Alpha MOs
 -- Occupied --
********-176.2977-165.7013-165.6994-165.6993 -35.7941 -31.2869 -31.2815
-31.2814 -22.9375 -22.9362 -22.9362 -22.9324 -22.9324 -19.0842 -19.0838
-10.2314 -10.2313 -10.2236 -10.1850 -10.1834 -10.1824 -10.1799 -10.1794
-10.1775 -10.1770 -10.1750 -10.1745 -10.1722 -10.1722  -6.3434  -4.7547
 -4.7416  -4.7415  -2.0208  -2.0165  -2.0164  -2.0051  -2.0051  -1.0122
 -1.0098  -0.8722  -0.8577  -0.7945  -0.7644  -0.7534  -0.7478  -0.6794
 -0.6601  -0.6345  -0.6082  -0.5927  -0.5617  -0.5375  -0.5205  -0.4797
 -0.4696  -0.4620  -0.4449  -0.4335  -0.4297  -0.4255  -0.4220  -0.4146
 -0.4064  -0.3889  -0.3793  -0.3713  -0.3540  -0.3509  -0.3423  -0.3359
 -0.2965  -0.2716  -0.2701  -0.2613  -0.2599  -0.2552  -0.2450  -0.2431
 -0.1486

 Beta MOs
 -- Occupied --
********-176.2977-165.7013-165.6994-165.6993 -35.7941 -31.2869 -31.2815
-31.2814 -22.9375 -22.9362 -22.9362 -22.9324 -22.9324 -19.0787 -19.0784
-10.2296 -10.2296 -10.2231 -10.1844 -10.1833 -10.1814 -10.1798 -10.1787
-10.1768 -10.1763 -10.1745 -10.1740 -10.1722 -10.1721  -6.3434  -4.7548
 -4.7416  -4.7415  -2.0208  -2.0165  -2.0164  -2.0051  -2.0051  -1.0026
 -1.0000  -0.8698  -0.8563  -0.7905  -0.7623  -0.7515  -0.7460  -0.6740
 -0.6570  -0.6326  -0.6062  -0.5920  -0.5592  -0.5354  -0.5187  -0.4765
 -0.4686  -0.4607  -0.4438  -0.4328  -0.4250  -0.4167  -0.4164  -0.4129
 -0.4039  -0.3755  -0.3702  -0.3653  -0.3530  -0.3415  -0.3404  -0.3347
 -0.2891  -0.2700  -0.2607  -0.2524  -0.2505  -0.2501  -0.2400  -0.2383

          Ground-State Mulliken Net Atomic Charges

     Atom                 Charge (a.u.)    Spin (a.u.)
  --------------------------------------------------------
      1 C                     0.075124       0.030020
      2 C                    -0.486097       0.032533
      3 C                    -0.472239       0.035914
      4 C                     0.071833       0.027531
      5 C                     0.180277       0.027580
      6 C                     0.241272       0.025128
      7 C                    -0.325461       0.101079
      8 C                     0.200886       0.060496
      9 C                     0.120013       0.046287
     10 C                    -0.384744       0.097768
     11 C                     0.125121       0.022555
     12 C                    -0.035672       0.034969
     13 C                    -0.575150       0.050001
     14 C                    -0.049705       0.020296
     15 O                    -0.483389       0.202294
     16 O                    -0.483724       0.198775
     17 H                     0.177385      -0.001541
     18 H                     0.177541      -0.001316
     19 H                     0.160838      -0.000940
     20 H                     0.185762      -0.000625
     21 I                    -0.031895       0.000746
     22 H                     0.205349      -0.002684
     23 H                     0.205978      -0.002904
     24 H                     0.200696      -0.003963
  --------------------------------------------------------
  Sum of atomic charges =    -1.000000

                    Cartesian Multipole Moments
 -----------------------------------------------------------------
    Charge (ESU x 10^10)
                -4.8032
    Dipole Moment (Debye)
         X      -5.9727      Y      -0.1108      Z       0.0010
       Tot       5.9737
    Quadrupole Moments (Debye-Ang)
        XX    -138.8031     XY     -11.7138     YY    -152.7992
        XZ      -0.0016     YZ       0.0020     ZZ    -127.7881

 Total job time:  102.56s(wall), 629.71s(cpu)
        *  Thank you very much for using Q-Chem.  Have a nice day.  *
