 Q-Chem 5.4, Q-Chem, Inc., Pleasanton, CA (2021)
 Q-Chem 5.4.0 for Intel X86 EM64T Linux

User input:
--------------------------------------------------------------
$molecule
-2 1
O                  2.0380320000      2.8930720000     -1.1504750000
N                  2.7122360000      2.2859680000     -0.3074320000
O                  3.7216050000      2.8037290000      0.2542440000
C                  2.3888290000      0.9070010000     -0.0119320000
C                  3.4890500000      0.0704110000      0.0494500000
C                  3.3243900000     -1.3254080000      0.0316230000
C                  2.0424430000     -1.8527880000     -0.0877600000
C                  0.8993710000     -1.0461870000     -0.1106830000
C                 -0.3952540000     -1.7183890000     -0.1954520000
O                 -0.5125260000     -2.9797630000     -0.3366970000
C                 -1.5440790000     -0.8398170000     -0.0636490000
C                 -2.8484670000     -1.3826470000     -0.1454540000
C                 -3.9763050000     -0.5982230000     -0.0048240000
C                 -3.8292110000      0.7938890000      0.2331580000
C                 -2.5680240000      1.3467030000      0.3266720000
C                 -1.3911730000      0.5697990000      0.1818790000
C                 -0.0950690000      1.2419610000      0.2987650000
O                 -0.0176550000      2.4687500000      0.6355310000
C                  1.0341220000      0.4045130000      0.0236270000
H                  4.4745590000      0.5200960000      0.0360190000
H                  4.1954180000     -1.9754660000      0.0458950000
H                  1.8783920000     -2.9233140000     -0.1634860000
H                 -2.9206900000     -2.4514310000     -0.3217820000
H                 -4.9682080000     -1.0406840000     -0.0743640000
H                 -4.7112160000      1.4229020000      0.3420010000
H                 -2.4205710000      2.4053230000      0.5151250000
$end
$rem
MAX_SCF_CYCLES=200
BASIS  =  6-311++G(d,p)
GUI  =  2
JOB_TYPE  =  SP
METHOD  =  B3LYP
SOLVENT_METHOD = COSMO
$end
$solvent
dielectric 37.219
opticaldielectric 1.43
$end

--------------------------------------------------------------

             Standard Nuclear Orientation (Angstroms)
    I     Atom           X                Y                Z
 ----------------------------------------------------------------
    1      O       2.4924595566    -1.9485761998     1.1574802312
    2      N       2.9362448401    -1.2118055358     0.2663733850
    3      O       4.0389506883    -1.4370519698    -0.3130107850
    4      C       2.2132719148    -0.0044166606    -0.0697584017
    5      C       3.0159757115     1.1142270066    -0.2055515796
    6      C       2.4475479829     2.3994241310    -0.2355460321
    7      C       1.0705165603     2.5325017694    -0.0877458996
    8      C       0.2170712339     1.4280574930     0.0101221219
    9      C      -1.2156450016     1.6940116505     0.1182321465
   10      O      -1.6960597220     2.8707146711     0.2148703246
   11      C      -2.0572537170     0.5116921444     0.0646128743
   12      C      -3.4612215974     0.6511201959     0.1751503370
   13      C      -4.3107672558    -0.4355789372     0.1082658764
   14      C      -3.7657474824    -1.7330243809    -0.0810398683
   15      C      -2.4003958009    -1.8952280452    -0.2012296878
   16      C      -1.5017105443    -0.8011240728    -0.1317716321
   17      C      -0.0684009268    -1.0681571311    -0.2720091309
   18      O       0.3588266766    -2.2329798630    -0.5636940550
   19      C       0.7701838379     0.0760599036    -0.0729228282
   20      H       4.0902773399     0.9747494541    -0.2124074952
   21      H       3.0875136456     3.2749919937    -0.3083041140
   22      H       0.6000471296     3.5101005103    -0.0473442780
   23      H      -3.8409331892     1.6588625549     0.3125599766
   24      H      -5.3869600111    -0.3008677313     0.1984942206
   25      H      -4.4254997569    -2.5976668414    -0.1316098666
   26      H      -1.9521261251    -2.8717746978    -0.3540176385
 ----------------------------------------------------------------

   13    -893.5074200648      5.02e-06  Convergence criterion met
 Total energy in the final basis set =     -893.5074200648
    7    -893.7761444423      5.26e-06  Convergence criterion met
 Total energy in the final basis set =     -893.7761444423

                    Orbital Energies (a.u.)
 --------------------------------------------------------------

 Alpha MOs
 -- Occupied --
-19.1243 -19.1160 -19.0547 -19.0355 -14.4986 -10.2093 -10.2049 -10.1911
-10.1767 -10.1676 -10.1636 -10.1617 -10.1609 -10.1602 -10.1594 -10.1588
-10.1568 -10.1563 -10.1549  -1.1798  -1.0075  -0.9746  -0.9578  -0.8550
 -0.8397  -0.7837  -0.7669  -0.7370  -0.7249  -0.6806  -0.6501  -0.6161
 -0.6061  -0.5632  -0.5431  -0.5284  -0.5173  -0.4929  -0.4883  -0.4822
 -0.4564  -0.4488  -0.4416  -0.4331  -0.4108  -0.3997  -0.3947  -0.3932
 -0.3839  -0.3672  -0.3568  -0.3491  -0.3487  -0.3328  -0.3214  -0.3205
 -0.2915  -0.2886  -0.2763  -0.2470  -0.2448  -0.2378  -0.2320  -0.2275
 -0.2107  -0.1256

          Ground-State Mulliken Net Atomic Charges

     Atom                 Charge (a.u.)
  ----------------------------------------
      1 O                    -0.181626
      2 N                    -0.109763
      3 O                    -0.240661
      4 C                    -0.214394
      5 C                    -0.066283
      6 C                    -0.689017
      7 C                    -0.145810
      8 C                     0.855375
      9 C                    -0.154517
     10 O                    -0.577816
     11 C                     0.316264
     12 C                     0.038669
     13 C                    -0.570372
     14 C                    -0.529434
     15 C                     0.018001
     16 C                    -0.000817
     17 C                    -0.571447
     18 O                    -0.611388
     19 C                     0.102455
     20 H                     0.237293
     21 H                     0.199530
     22 H                     0.171629
     23 H                     0.170171
     24 H                     0.191700
     25 H                     0.192716
     26 H                     0.169542
  ----------------------------------------
  Sum of atomic charges =    -2.000000

                    Cartesian Multipole Moments
 -----------------------------------------------------------------
    Charge (ESU x 10^10)
                -9.6064
    Dipole Moment (Debye)
         X      -5.0670      Y       5.1919      Z      -0.0702
       Tot       7.2550
    Quadrupole Moments (Debye-Ang)
        XX    -160.8406     XY      38.3620     YY    -163.6600
        XZ      -0.1203     YZ      -2.1771     ZZ    -123.5141

 Total job time:  91.39s(wall), 679.22s(cpu)
        *  Thank you very much for using Q-Chem.  Have a nice day.  *
