 Q-Chem 5.4, Q-Chem, Inc., Pleasanton, CA (2021)
 Q-Chem 5.4.0 for Intel X86 EM64T Linux

User input:
--------------------------------------------------------------
$molecule
-1 2
C                  3.7294880000     -1.0402640000     -0.3238240000
C                  2.4381860000     -0.2932630000     -0.0802800000
C                  2.4544790000      1.1052460000      0.1314150000
C                  1.2800440000      1.7985620000      0.3550850000
C                  0.0367140000      1.1380230000      0.3792230000
C                 -1.2021750000      1.8985670000      0.6197130000
O                 -1.1925290000      3.1454950000      0.8091340000
C                 -2.4112490000      1.1215540000      0.6225970000
C                 -2.4608190000     -0.2437380000      0.4192570000
C                 -3.7669940000     -0.9931390000      0.4361350000
C                 -1.2603980000     -1.0156510000      0.1809130000
O                 -1.2942530000     -2.2646390000     -0.0063680000
C                  0.0055020000     -0.2647280000      0.1683570000
C                  1.2183940000     -0.9488310000     -0.0578180000
H                  4.2496490000     -0.6656750000     -1.2138120000
H                  4.4221030000     -0.9327780000      0.5198060000
H                  3.5448370000     -2.1074040000     -0.4698410000
H                  3.4031730000      1.6371670000      0.1172500000
H                  1.2793980000      2.8706610000      0.5186480000
H                 -3.3292210000      1.6774920000      0.7996290000
H                 -3.7615940000     -1.7737760000      1.2048110000
H                 -4.6059790000     -0.3170440000      0.6239550000
H                 -3.9346990000     -1.5109420000     -0.5146730000
H                  1.1579450000     -2.0208950000     -0.2153760000
$end
$rem
MAX_SCF_CYCLES=200
BASIS  =  6-311++G(d,p)
GUI  =  2
JOB_TYPE  =  SP
METHOD  =  B3LYP
SOLVENT_METHOD = PCM
$end
$pcm
theory = CPCM
$end
$solvent
dielectric 37.219
opticaldielectric 1.43
$end

--------------------------------------------------------------

             Standard Nuclear Orientation (Angstroms)
    I     Atom           X                Y                Z
 ----------------------------------------------------------------
    1      C       3.7294880000    -1.0402640000    -0.3238240000
    2      C       2.4381860000    -0.2932630000    -0.0802800000
    3      C       2.4544790000     1.1052460000     0.1314150000
    4      C       1.2800440000     1.7985620000     0.3550850000
    5      C       0.0367140000     1.1380230000     0.3792230000
    6      C      -1.2021750000     1.8985670000     0.6197130000
    7      O      -1.1925290000     3.1454950000     0.8091340000
    8      C      -2.4112490000     1.1215540000     0.6225970000
    9      C      -2.4608190000    -0.2437380000     0.4192570000
   10      C      -3.7669940000    -0.9931390000     0.4361350000
   11      C      -1.2603980000    -1.0156510000     0.1809130000
   12      O      -1.2942530000    -2.2646390000    -0.0063680000
   13      C       0.0055020000    -0.2647280000     0.1683570000
   14      C       1.2183940000    -0.9488310000    -0.0578180000
   15      H       4.2496490000    -0.6656750000    -1.2138120000
   16      H       4.4221030000    -0.9327780000     0.5198060000
   17      H       3.5448370000    -2.1074040000    -0.4698410000
   18      H       3.4031730000     1.6371670000     0.1172500000
   19      H       1.2793980000     2.8706610000     0.5186480000
   20      H      -3.3292210000     1.6774920000     0.7996290000
   21      H      -3.7615940000    -1.7737760000     1.2048110000
   22      H      -4.6059790000    -0.3170440000     0.6239550000
   23      H      -3.9346990000    -1.5109420000    -0.5146730000
   24      H       1.1579450000    -2.0208950000    -0.2153760000
 ----------------------------------------------------------------

    8    -614.0710621901      8.59e-06  Convergence criterion met
 Total energy in the final basis set =     -614.0710621901

                    Orbital Energies (a.u.)
 --------------------------------------------------------------

 Alpha MOs
 -- Occupied --
-19.0759 -19.0748 -10.2203 -10.2180 -10.1794 -10.1705 -10.1701 -10.1681
-10.1676 -10.1671 -10.1634 -10.1601 -10.1555 -10.1546  -0.9995  -0.9971
 -0.8577  -0.8113  -0.7680  -0.7475  -0.7096  -0.6770  -0.6565  -0.5994
 -0.5878  -0.5532  -0.5005  -0.4862  -0.4673  -0.4385  -0.4290  -0.4272
 -0.4188  -0.4137  -0.4114  -0.3921  -0.3848  -0.3789  -0.3776  -0.3707
 -0.3656  -0.3420  -0.3377  -0.3321  -0.2700  -0.2529  -0.2447  -0.2393
 -0.2364  -0.1511

 Beta MOs
 -- Occupied --
-19.0700 -19.0692 -10.2186 -10.2159 -10.1791 -10.1697 -10.1688 -10.1679
-10.1672 -10.1668 -10.1632 -10.1601 -10.1547 -10.1542  -0.9892  -0.9865
 -0.8559  -0.8063  -0.7665  -0.7459  -0.7059  -0.6756  -0.6492  -0.5981
 -0.5848  -0.5502  -0.4982  -0.4836  -0.4647  -0.4374  -0.4272  -0.4188
 -0.4174  -0.4111  -0.4059  -0.3833  -0.3827  -0.3777  -0.3766  -0.3641
 -0.3475  -0.3405  -0.3310  -0.3278  -0.2475  -0.2429  -0.2394  -0.2340
 -0.2312

          Ground-State Mulliken Net Atomic Charges

     Atom                 Charge (a.u.)    Spin (a.u.)
  --------------------------------------------------------
      1 C                    -0.471533      -0.000635
      2 C                     0.472122       0.019103
      3 C                    -0.410080       0.029171
      4 C                    -0.004291       0.019015
      5 C                     0.331329       0.029024
      6 C                    -0.585354       0.104469
      7 O                    -0.525751       0.206362
      8 C                    -0.501134       0.094773
      9 C                     0.922425       0.108410
     10 C                    -0.358362       0.005650
     11 C                    -0.555127       0.126606
     12 O                    -0.497948       0.226523
     13 C                    -0.120207       0.004006
     14 C                    -0.362473       0.030037
     15 H                     0.166918       0.001508
     16 H                     0.166980       0.001500
     17 H                     0.174999       0.000067
     18 H                     0.199185      -0.002203
     19 H                     0.159661      -0.002394
     20 H                     0.159691      -0.009372
     21 H                     0.170019       0.005811
     22 H                     0.162150      -0.000224
     23 H                     0.169982       0.005852
     24 H                     0.136799      -0.003060
  --------------------------------------------------------
  Sum of atomic charges =    -1.000000

                    Cartesian Multipole Moments
 -----------------------------------------------------------------
    Charge (ESU x 10^10)
                -4.8032
    Dipole Moment (Debye)
         X       6.1149      Y      -2.7863      Z      -2.0446
       Tot       7.0239
    Quadrupole Moments (Debye-Ang)
        XX     -84.1330     XY       2.5962     YY    -125.1283
        XZ       1.3004     YZ      -6.5139     ZZ     -89.4671

 Total job time:  49.58s(wall), 249.60s(cpu)
        *  Thank you very much for using Q-Chem.  Have a nice day.  *
