 Q-Chem 5.4, Q-Chem, Inc., Pleasanton, CA (2021)
 Q-Chem 5.4.0 for Intel X86 EM64T Linux

User input:
--------------------------------------------------------------
$molecule
-1 2
C                 -2.9597210000     -2.0551890000     -0.0357990000
C                 -2.3313840000     -0.6781440000     -0.0489020000
C                 -3.1883410000      0.4065900000     -0.0968780000
C                 -2.7116480000      1.7246430000     -0.1130340000
C                 -1.3587620000      2.0111430000     -0.0820110000
C                 -0.9609060000      3.4714150000     -0.1037800000
C                 -0.4269470000      0.9235390000     -0.0319180000
C                  1.0158090000      1.2032680000      0.0016040000
O                  1.4859810000      2.3708900000     -0.0113810000
C                  1.9237200000      0.0574540000      0.0518110000
C                  3.3183490000      0.2830350000      0.0846750000
C                  4.2097360000     -0.7696300000      0.1322690000
C                  3.7292100000     -2.0981790000      0.1487900000
C                  2.3703600000     -2.3379550000      0.1173070000
C                  1.4423840000     -1.2733520000      0.0684120000
C                  0.0112150000     -1.5742210000      0.0363440000
O                 -0.3743010000     -2.7724000000      0.0532850000
C                 -0.9191160000     -0.4372640000     -0.0150470000
H                 -2.6796230000     -2.6222940000      0.8535120000
H                 -2.6298450000     -2.6615100000     -0.8810570000
H                 -4.0504650000     -1.9533120000     -0.0693540000
H                 -4.2603580000      0.2306440000     -0.1227430000
H                 -3.4233690000      2.5449190000     -0.1510500000
H                 -0.3270920000      3.7081240000     -0.9600440000
H                 -0.3748090000      3.7470700000      0.7745170000
H                 -1.8647370000      4.0901200000     -0.1426000000
H                  3.6557740000      1.3127020000      0.0709280000
H                  5.2787820000     -0.5788030000      0.1570160000
H                  4.4290750000     -2.9280480000      0.1862150000
H                  1.9710290000     -3.3452560000      0.1289160000
$end
$rem
MAX_SCF_CYCLES=200
BASIS  =  6-311++G(d,p)
GUI  =  2
JOB_TYPE  =  SP
METHOD  =  B3LYP
SOLVENT_METHOD = PCM
$end
$pcm
theory = CPCM
$end
$solvent
dielectric 37.219
opticaldielectric 1.43
$end

--------------------------------------------------------------

             Standard Nuclear Orientation (Angstroms)
    I     Atom           X                Y                Z
 ----------------------------------------------------------------
    1      C      -2.9597210000    -2.0551890000    -0.0357990000
    2      C      -2.3313840000    -0.6781440000    -0.0489020000
    3      C      -3.1883410000     0.4065900000    -0.0968780000
    4      C      -2.7116480000     1.7246430000    -0.1130340000
    5      C      -1.3587620000     2.0111430000    -0.0820110000
    6      C      -0.9609060000     3.4714150000    -0.1037800000
    7      C      -0.4269470000     0.9235390000    -0.0319180000
    8      C       1.0158090000     1.2032680000     0.0016040000
    9      O       1.4859810000     2.3708900000    -0.0113810000
   10      C       1.9237200000     0.0574540000     0.0518110000
   11      C       3.3183490000     0.2830350000     0.0846750000
   12      C       4.2097360000    -0.7696300000     0.1322690000
   13      C       3.7292100000    -2.0981790000     0.1487900000
   14      C       2.3703600000    -2.3379550000     0.1173070000
   15      C       1.4423840000    -1.2733520000     0.0684120000
   16      C       0.0112150000    -1.5742210000     0.0363440000
   17      O      -0.3743010000    -2.7724000000     0.0532850000
   18      C      -0.9191160000    -0.4372640000    -0.0150470000
   19      H      -2.6796230000    -2.6222940000     0.8535120000
   20      H      -2.6298450000    -2.6615100000    -0.8810570000
   21      H      -4.0504650000    -1.9533120000    -0.0693540000
   22      H      -4.2603580000     0.2306440000    -0.1227430000
   23      H      -3.4233690000     2.5449190000    -0.1510500000
   24      H      -0.3270920000     3.7081240000    -0.9600440000
   25      H      -0.3748090000     3.7470700000     0.7745170000
   26      H      -1.8647370000     4.0901200000    -0.1426000000
   27      H       3.6557740000     1.3127020000     0.0709280000
   28      H       5.2787820000    -0.5788030000     0.1570160000
   29      H       4.4290750000    -2.9280480000     0.1862150000
   30      H       1.9710290000    -3.3452560000     0.1289160000
 ----------------------------------------------------------------

    8    -767.7360091194      4.88e-06  Convergence criterion met
 Total energy in the final basis set =     -767.7360091194

                    Orbital Energies (a.u.)
 --------------------------------------------------------------

 Alpha MOs
 -- Occupied --
-19.0695 -19.0695 -10.2218 -10.2218 -10.1778 -10.1778 -10.1739 -10.1735
-10.1700 -10.1695 -10.1683 -10.1678 -10.1670 -10.1669 -10.1615 -10.1610
-10.1500 -10.1500  -1.0002  -0.9977  -0.8581  -0.8496  -0.7815  -0.7799
 -0.7473  -0.7338  -0.7055  -0.6737  -0.6370  -0.6273  -0.6141  -0.5714
 -0.5382  -0.5292  -0.5055  -0.4700  -0.4608  -0.4551  -0.4504  -0.4285
 -0.4218  -0.4149  -0.4087  -0.4054  -0.4013  -0.3956  -0.3866  -0.3837
 -0.3697  -0.3641  -0.3577  -0.3496  -0.3400  -0.3391  -0.3322  -0.3297
 -0.2635  -0.2542  -0.2452  -0.2392  -0.2374  -0.2295  -0.1366

 Beta MOs
 -- Occupied --
-19.0642 -19.0642 -10.2200 -10.2200 -10.1776 -10.1776 -10.1733 -10.1729
-10.1696 -10.1691 -10.1676 -10.1672 -10.1669 -10.1667 -10.1609 -10.1604
-10.1500 -10.1500  -0.9908  -0.9881  -0.8555  -0.8484  -0.7786  -0.7775
 -0.7453  -0.7320  -0.7052  -0.6675  -0.6345  -0.6256  -0.6115  -0.5702
 -0.5363  -0.5266  -0.5037  -0.4687  -0.4589  -0.4533  -0.4496  -0.4214
 -0.4208  -0.4106  -0.4067  -0.4022  -0.3993  -0.3892  -0.3857  -0.3823
 -0.3631  -0.3570  -0.3487  -0.3445  -0.3386  -0.3386  -0.3283  -0.3222
 -0.2480  -0.2437  -0.2397  -0.2327  -0.2315  -0.2247

          Ground-State Mulliken Net Atomic Charges

     Atom                 Charge (a.u.)    Spin (a.u.)
  --------------------------------------------------------
      1 C                    -0.356860       0.003276
      2 C                     0.905016       0.015815
      3 C                    -0.494148       0.048509
      4 C                    -0.500250       0.048488
      5 C                     0.906058       0.015792
      6 C                    -0.357483       0.003296
      7 C                     0.244035       0.042648
      8 C                    -0.962233       0.096812
      9 O                    -0.439142       0.200076
     10 C                     0.093064       0.041557
     11 C                     0.054719       0.025401
     12 C                    -0.540925       0.033703
     13 C                    -0.545368       0.033785
     14 C                     0.054971       0.025256
     15 C                     0.096618       0.041392
     16 C                    -0.958415       0.096806
     17 O                    -0.438715       0.200059
     18 C                     0.241063       0.042974
     19 H                     0.163781       0.000412
     20 H                     0.163637       0.000406
     21 H                     0.150584      -0.000312
     22 H                     0.150623      -0.004197
     23 H                     0.149923      -0.004198
     24 H                     0.163490       0.000391
     25 H                     0.163698       0.000399
     26 H                     0.150547      -0.000315
     27 H                     0.175640      -0.001238
     28 H                     0.195434      -0.002874
     29 H                     0.195000      -0.002872
     30 H                     0.175638      -0.001245
  --------------------------------------------------------
  Sum of atomic charges =    -1.000000

                    Cartesian Multipole Moments
 -----------------------------------------------------------------
    Charge (ESU x 10^10)
                -4.8032
    Dipole Moment (Debye)
         X      -2.7699      Y       0.9966      Z      -0.1053
       Tot       2.9456
    Quadrupole Moments (Debye-Ang)
        XX    -109.8508     XY     -10.9760     YY    -136.2448
        XZ       0.3225     YZ       0.2303     ZZ    -112.7957

 Total job time:  95.56s(wall), 434.89s(cpu)
        *  Thank you very much for using Q-Chem.  Have a nice day.  *
