 Gaussian 16, Revision A.03,
 Gaussian 16:  ES64L-G16RevA.03 25-Dec-2016

 ----------------------------------------------
 #P UB3LYP/6-311++G(d,p) nosym opt freq SCF=YQC
 ----------------------------------------------

 -------
 Reduced
 -------
 Symbolic Z-matrix:
 Charge = -2 Multiplicity = 1

 SCF Done:  E(UB3LYP) =  -853.375221491     a.u. after   20 cycles
 SCF Done:  E(UB3LYP) =  -853.377456617     A.U. after   33 cycles
 SCF Done:  E(UB3LYP) =  -853.377456618     a.u. after    1 cycles
 SCF Done:  E(UB3LYP) =  -853.401800931     a.u. after   30 cycles
 SCF Done:  E(UB3LYP) =  -853.402389239     A.U. after   33 cycles
 SCF Done:  E(UB3LYP) =  -853.402389239     a.u. after    1 cycles
 SCF Done:  E(UB3LYP) =  -853.404050475     a.u. after   60 cycles
 SCF Done:  E(UB3LYP) =  -853.404872905     A.U. after   33 cycles
 SCF Done:  E(UB3LYP) =  -853.404872905     a.u. after    1 cycles
 SCF Done:  E(UB3LYP) =  -853.414122841     a.u. after   70 cycles
 SCF Done:  E(UB3LYP) =  -853.427466325     A.U. after   33 cycles
 SCF Done:  E(UB3LYP) =  -853.427466325     a.u. after    1 cycles
 SCF Done:  E(UB3LYP) =  -853.427462191     a.u. after    1 cycles
 SCF Done:  E(UB3LYP) =  -853.427467090     A.U. after   33 cycles
 SCF Done:  E(UB3LYP) =  -853.427467090     a.u. after    1 cycles
 SCF Done:  E(UB3LYP) =  -853.427466560     a.u. after    1 cycles
 SCF Done:  E(UB3LYP) =  -853.427467169     A.U. after   33 cycles
 SCF Done:  E(UB3LYP) =  -853.427467168     a.u. after    1 cycles
 Optimization completed.
    -- Stationary point found.
 Normal termination of Gaussian 16 at Wed Dec 20 00:40:45 2023.

 ----------------------------------------------------------------------
 #P Geom=AllCheck Guess=TCheck SCRF=Check GenChk UB3LYP/6-311++G(d,p) F
 req
 ----------------------------------------------------------------------

 Structure from the checkpoint file:  "054-an.chk"
 -------
 Reduced
 -------
 Charge = -2 Multiplicity = 1

                          Input orientation:
 ---------------------------------------------------------------------
 Center     Atomic      Atomic             Coordinates (Angstroms)
 Number     Number       Type             X           Y           Z
 ---------------------------------------------------------------------
      1          6           0       -0.568835    2.112888   -0.076384
      2          6           0       -1.773431    1.313578   -0.061350
      3          6           0       -1.716563   -0.094999   -0.006886
      4          6           0       -0.463841   -0.799892    0.028094
      5          6           0        0.734818   -0.005848    0.015918
      6          6           0        0.690099    1.403189   -0.037312
      7          8           0       -0.615680    3.417916   -0.130638
      8          8           0       -0.416414   -2.111599    0.071485
      9          6           0        1.909749    2.328606   -0.072507
     10          6           0        2.752797    2.350688    1.222194
     11          6           0        2.794031    2.204832   -1.332104
     12          6           0        2.063103   -0.766283    0.074307
     13          6           0        2.211930   -1.582677    1.377227
     14          6           0        2.275134   -1.671239   -1.159138
     15          6           0       -3.056282    2.147764   -0.123637
     16          6           0       -3.920955    2.114033    1.156588
     17          6           0       -3.907160    1.954392   -1.397331
     18          6           0       -2.987080   -0.949685    0.029447
     19          6           0       -3.112522   -1.866715   -1.206873
     20          6           0       -3.098502   -1.775736    1.330088
     21          1           0        1.441363    3.316448   -0.135337
     22          1           0        3.503875    3.157261    1.186352
     23          1           0        3.287473    1.413726    1.411000
     24          1           0        2.102264    2.537570    2.082009
     25          1           0        3.335397    1.255430   -1.396170
     26          1           0        3.540829    3.013217   -1.363084
     27          1           0        2.171786    2.289870   -2.228496
     28          1           0        2.876921   -0.040795    0.070509
     29          1           0        2.173106   -0.919778    2.249339
     30          1           0        3.173511   -2.119735    1.400307
     31          1           0        1.390618   -2.299807    1.442478
     32          1           0        1.461515   -2.398180   -1.209612
     33          1           0        3.240729   -2.199961   -1.100395
     34          1           0        2.271357   -1.073397   -2.077633
     35          1           0       -2.660032    3.166805   -0.183764
     36          1           0       -4.730696    2.860714    1.102475
     37          1           0       -3.301337    2.355231    2.025685
     38          1           0       -4.385921    1.140201    1.343419
     39          1           0       -4.707863    2.708190   -1.447051
     40          1           0       -4.379844    0.969202   -1.463767
     41          1           0       -3.276739    2.077173   -2.283623
     42          1           0       -3.850966   -0.284899    0.011965
     43          1           0       -4.039389   -2.462195   -1.165042
     44          1           0       -2.248918   -2.534476   -1.242274
     45          1           0       -3.134435   -1.269680   -2.125617
     46          1           0       -4.018385   -2.381747    1.336443
     47          1           0       -3.124087   -1.112430    2.202413
     48          1           0       -2.228188   -2.430883    1.410282
 ---------------------------------------------------------------------

 SCF Done:  E(UB3LYP) =  -853.427467168     a.u. after    1 cycles
 SCF Done:  E(UB3LYP) =  -853.427467168     A.U. after    5 cycles

 Alpha  occ. eigenvalues --  -18.76466 -18.75976  -9.93781  -9.93736  -9.93656
 Alpha  occ. eigenvalues --   -9.93590  -9.93040  -9.93014  -9.92419  -9.92385
 Alpha  occ. eigenvalues --   -9.92226  -9.92152  -9.92134  -9.92064  -9.92035
 Alpha  occ. eigenvalues --   -9.91885  -9.88792  -9.88783  -9.88742  -9.88733
 Alpha  occ. eigenvalues --   -0.67895  -0.67283  -0.57041  -0.56895  -0.54687
 Alpha  occ. eigenvalues --   -0.54331  -0.50612  -0.46127  -0.46074  -0.45061
 Alpha  occ. eigenvalues --   -0.44615  -0.44574  -0.40540  -0.38318  -0.35507
 Alpha  occ. eigenvalues --   -0.33085  -0.31480  -0.28363  -0.26153  -0.23683
 Alpha  occ. eigenvalues --   -0.22579  -0.21071  -0.20616  -0.20138  -0.19859
 Alpha  occ. eigenvalues --   -0.19653  -0.18688  -0.18447  -0.18252  -0.17782
 Alpha  occ. eigenvalues --   -0.17608  -0.16372  -0.16177  -0.16082  -0.15163
 Alpha  occ. eigenvalues --   -0.14654  -0.13758  -0.11978  -0.11673  -0.11447
 Alpha  occ. eigenvalues --   -0.10663  -0.10442  -0.10077  -0.09974  -0.09182
 Alpha  occ. eigenvalues --   -0.08743  -0.08307  -0.07866  -0.07153  -0.05130
 Alpha  occ. eigenvalues --   -0.04827  -0.04794   0.03256   0.04206   0.05495
 Alpha  occ. eigenvalues --    0.06455   0.13422
 Alpha virt. eigenvalues --    0.15155   0.15223   0.16266   0.16585   0.17111
 Alpha virt. eigenvalues --    0.17438   0.18552   0.18741   0.19030   0.19655
 Alpha virt. eigenvalues --    0.19743   0.20545   0.20658   0.20846   0.22360

  Beta  occ. eigenvalues --  -18.76466 -18.75976  -9.93781  -9.93736  -9.93656
  Beta  occ. eigenvalues --   -9.93590  -9.93040  -9.93014  -9.92419  -9.92385
  Beta  occ. eigenvalues --   -9.92226  -9.92152  -9.92134  -9.92064  -9.92035
  Beta  occ. eigenvalues --   -9.91885  -9.88792  -9.88783  -9.88742  -9.88733
  Beta  occ. eigenvalues --   -0.67895  -0.67283  -0.57041  -0.56895  -0.54687
  Beta  occ. eigenvalues --   -0.54331  -0.50612  -0.46127  -0.46074  -0.45061
  Beta  occ. eigenvalues --   -0.44615  -0.44574  -0.40540  -0.38318  -0.35507
  Beta  occ. eigenvalues --   -0.33085  -0.31480  -0.28363  -0.26153  -0.23683
  Beta  occ. eigenvalues --   -0.22579  -0.21071  -0.20616  -0.20138  -0.19859
  Beta  occ. eigenvalues --   -0.19653  -0.18688  -0.18447  -0.18252  -0.17782
  Beta  occ. eigenvalues --   -0.17608  -0.16372  -0.16177  -0.16082  -0.15163
  Beta  occ. eigenvalues --   -0.14654  -0.13758  -0.11978  -0.11673  -0.11447
  Beta  occ. eigenvalues --   -0.10663  -0.10442  -0.10077  -0.09974  -0.09182
  Beta  occ. eigenvalues --   -0.08743  -0.08307  -0.07866  -0.07153  -0.05130
  Beta  occ. eigenvalues --   -0.04827  -0.04794   0.03256   0.04206   0.05495
  Beta  occ. eigenvalues --    0.06455   0.13422
  Beta virt. eigenvalues --    0.15155   0.15223   0.16266   0.16585   0.17111
  Beta virt. eigenvalues --    0.17438   0.18552   0.18741   0.19030   0.19655
  Beta virt. eigenvalues --    0.19743   0.20545   0.20658   0.20846   0.22360

 Mulliken charges and spin densities:
               1          2
     1  C   -1.587268  -0.000000
     2  C    0.955677   0.000000
     3  C    0.450260   0.000000
     4  C   -0.466891   0.000000
     5  C    0.448214   0.000000
     6  C    0.919648   0.000000
     7  O   -0.474576   0.000000
     8  O   -0.504431   0.000000
     9  C   -0.180512  -0.000000
    10  C   -0.486018   0.000000
    11  C   -0.778113   0.000000
    12  C    0.766286   0.000000
    13  C   -0.768023   0.000000
    14  C   -0.784597   0.000000
    15  C   -0.257822  -0.000000
    16  C   -0.428452   0.000000
    17  C   -0.769703   0.000000
    18  C    0.745649  -0.000000
    19  C   -0.777743   0.000000
    20  C   -0.759720   0.000000
    21  H    0.217620   0.000000
    22  H   -0.089263  -0.000000
    23  H    0.066225  -0.000000
    24  H    0.126962  -0.000000
    25  H    0.131761  -0.000000
    26  H    0.067645  -0.000000
    27  H    0.136338  -0.000000
    28  H    0.070792   0.000000
    29  H    0.091781  -0.000000
    30  H    0.070706  -0.000000
    31  H    0.181065   0.000000
    32  H    0.190195   0.000000
    33  H    0.046840  -0.000000
    34  H    0.093186  -0.000000
    35  H    0.218217   0.000000
    36  H   -0.129005  -0.000000
    37  H    0.126712  -0.000000
    38  H    0.055039  -0.000000
    39  H    0.059270  -0.000000
    40  H    0.128714  -0.000000
    41  H    0.135515  -0.000000
    42  H    0.075313   0.000000
    43  H    0.041810  -0.000000
    44  H    0.189632   0.000000
    45  H    0.094388   0.000000
    46  H    0.068753  -0.000000
    47  H    0.092444   0.000000
    48  H    0.179480  -0.000000
 Sum of Mulliken charges =  -2.00000   0.00000

 Dipole moment (field-independent basis, Debye):
    X=              5.2344    Y=             -5.9949    Z=             -0.7005  Tot=              7.9893
 Quadrupole moment (field-independent basis, Debye-Ang):
   XX=           -202.8936   YY=           -209.5410   ZZ=           -152.0215
   XY=              4.1433   XZ=              0.2951   YZ=             -1.0602

  Exact polarizability:******** 988.477 981.498 680.675 271.634 472.024
 Approx polarizability:1780.404 -24.121 765.475 -22.181 144.617 490.071

                      1                      2                      3
                      A                      A                      A
 Frequencies --     32.6116                46.5861                64.0449
 Red. masses --      3.0453                 3.4167                 4.2125
 Frc consts  --      0.0019                 0.0044                 0.0102
 IR Inten    --   1131.4063                14.5044               121.0341

                      4                      5                      6
                      A                      A                      A
 Frequencies --     70.8710                85.2618               102.4009
 Red. masses --      2.5839                 3.1806                 3.1377
 Frc consts  --      0.0076                 0.0136                 0.0194
 IR Inten    --   2067.5430                 0.7774                 3.1414

                      7                      8                      9
                      A                      A                      A
 Frequencies --    112.8523               157.3137               177.2974
 Red. masses --      2.7458                 2.6922                 2.2964
 Frc consts  --      0.0206                 0.0393                 0.0425
 IR Inten    --    658.8133                 1.8317               277.0182

                     10                     11                     12
                      A                      A                      A
 Frequencies --    178.9732               179.2755               187.1951
 Red. masses --      2.3284                 2.5239                 2.3922
 Frc consts  --      0.0439                 0.0478                 0.0494
 IR Inten    --   1068.6424               171.3220                 4.8148

                     13                     14                     15
                      A                      A                      A
 Frequencies --    206.4548               206.5849               213.3202
 Red. masses --      1.2626                 1.3579                 1.1487
 Frc consts  --      0.0317                 0.0341                 0.0308
 IR Inten    --    801.3089                46.0641               526.0235

                     16                     17                     18
                      A                      A                      A
 Frequencies --    216.2910               227.9491               230.1271
 Red. masses --      1.2712                 1.1096                 1.8910
 Frc consts  --      0.0350                 0.0340                 0.0590
 IR Inten    --     60.5466              3519.4753               203.0660

                     19                     20                     21
                      A                      A                      A
 Frequencies --    232.8609               243.4526               244.8703
 Red. masses --      1.0860                 1.4567                 1.6349
 Frc consts  --      0.0347                 0.0509                 0.0578
 IR Inten    --    388.3989              1456.1522               899.2218

                     22                     23                     24
                      A                      A                      A
 Frequencies --    257.1022               265.5782               272.6748
 Red. masses --      1.2358                 3.1404                 4.2171
 Frc consts  --      0.0481                 0.1305                 0.1847
 IR Inten    --     21.8886              1252.5732                16.5970

                     25                     26                     27
                      A                      A                      A
 Frequencies --    294.7164               301.8170               313.9196
 Red. masses --      2.6273                 3.9053                 2.5768
 Frc consts  --      0.1345                 0.2096                 0.1496
 IR Inten    --     19.1103              1180.3573              2995.6298

                     28                     29                     30
                      A                      A                      A
 Frequencies --    393.2221               406.9274               412.6268
 Red. masses --      4.4276                 4.9159                 4.5447
 Frc consts  --      0.4034                 0.4796                 0.4559
 IR Inten    --    126.8958             20680.7320               919.3415

                     31                     32                     33
                      A                      A                      A
 Frequencies --    425.8725               446.6185               447.3536
 Red. masses --      2.4663                 2.6801                 2.9416
 Frc consts  --      0.2635                 0.3150                 0.3468
 IR Inten    --      3.0144              1922.3160              3997.3821

                     34                     35                     36
                      A                      A                      A
 Frequencies --    472.3684               477.3321               517.5951
 Red. masses --      5.0947                 4.4807                 5.0505
 Frc consts  --      0.6698                 0.6015                 0.7972
 IR Inten    --     98.3358                88.7343              3480.1628

                     37                     38                     39
                      A                      A                      A
 Frequencies --    522.2453               556.0264               591.0502
 Red. masses --      2.9309                 2.7804                 2.9211
 Frc consts  --      0.4710                 0.5065                 0.6012
 IR Inten    --   1328.0556                40.0762                 3.8541

                     40                     41                     42
                      A                      A                      A
 Frequencies --    658.0550               722.2235               747.5837
 Red. masses --      6.9153                 5.9401                 9.4755
 Frc consts  --      1.7643                 1.8255                 3.1201
 IR Inten    --  18252.2362                 7.9954                71.0362

                     43                     44                     45
                      A                      A                      A
 Frequencies --    788.8270               808.4687               828.1059
 Red. masses --      2.8001                 9.3848                 3.0396
 Frc consts  --      1.0266                 3.6141                 1.2281
 IR Inten    --    804.1427                 4.3616              3193.1179

                     46                     47                     48
                      A                      A                      A
 Frequencies --    851.5610               858.1701               910.4467
 Red. masses --      3.0166                 3.0156                 2.3440
 Frc consts  --      1.2888                 1.3085                 1.1448
 IR Inten    --     40.4351                 8.0462              1542.6690

                     49                     50                     51
                      A                      A                      A
 Frequencies --    913.5170               913.9692               921.3117
 Red. masses --      1.2570                 1.2301                 1.2760
 Frc consts  --      0.6180                 0.6054                 0.6381
 IR Inten    --    353.3508                41.6689              1159.1203

                     52                     53                     54
                      A                      A                      A
 Frequencies --    921.9002               933.7782               937.3609
 Red. masses --      1.2588                 2.5832                 1.4428
 Frc consts  --      0.6303                 1.3271                 0.7469
 IR Inten    --     15.2238               346.0100             17518.6145

                     55                     56                     57
                      A                      A                      A
 Frequencies --    943.7755               948.7338               949.0253
 Red. masses --      1.4743                 1.4706                 1.4477
 Frc consts  --      0.7737                 0.7799                 0.7682
 IR Inten    --     33.7065               259.7112                22.6398

                     58                     59                     60
                      A                      A                      A
 Frequencies --    972.0427              1019.8602              1073.2957
 Red. masses --      2.3692                 2.1102                 2.2692
 Frc consts  --      1.3189                 1.2932                 1.5402
 IR Inten    --    166.9536               532.1475              7874.4182

                     61                     62                     63
                      A                      A                      A
 Frequencies --   1087.7305              1100.8577              1110.2607
 Red. masses --      2.0602                 2.3915                 2.6544
 Frc consts  --      1.4362                 1.7076                 1.9278
 IR Inten    --     51.4198             31367.0203                74.0427

                     64                     65                     66
                      A                      A                      A
 Frequencies --   1115.7227              1117.7069              1119.4057
 Red. masses --      2.4555                 2.4738                 1.9048
 Frc consts  --      1.8009                 1.8208                 1.4063
 IR Inten    --     15.2719               116.8427                34.6796

                     67                     68                     69
                      A                      A                      A
 Frequencies --   1122.5052              1167.1681              1168.8885
 Red. masses --      1.7577                 2.4794                 2.3376
 Frc consts  --      1.3049                 1.9900                 1.8817
 IR Inten    --     67.2255                 7.5625               617.1892

                     70                     71                     72
                      A                      A                      A
 Frequencies --   1179.7695              1183.6878              1189.9337
 Red. masses --      2.3487                 2.0551                 2.1805
 Frc consts  --      1.9261                 1.6965                 1.8191
 IR Inten    --   4073.8308                40.4539              4264.2461

                     73                     74                     75
                      A                      A                      A
 Frequencies --   1261.1624              1270.0433              1319.3902
 Red. masses --      3.2031                 5.4995                 1.9707
 Frc consts  --      3.0016                 5.2265                 2.0212
 IR Inten    --     31.4531              2384.8564               294.2122

                     76                     77                     78
                      A                      A                      A
 Frequencies --   1330.7475              1339.5289              1340.9409
 Red. masses --      1.5205                 1.5469                 1.2507
 Frc consts  --      1.5864                 1.6354                 1.3250
 IR Inten    --  29569.8843              1096.1490               848.4908

                     79                     80                     81
                      A                      A                      A
 Frequencies --   1341.3757              1348.1185              1351.9010
 Red. masses --      1.2165                 1.2866                 1.2463
 Frc consts  --      1.2897                 1.3777                 1.3421
 IR Inten    --    158.9998             12904.6736                60.0906

                     82                     83                     84
                      A                      A                      A
 Frequencies --   1361.8980              1362.8056              1370.1149
 Red. masses --      1.2228                 1.3919                 1.2512
 Frc consts  --      1.3363                 1.5230                 1.3838
 IR Inten    --   3697.9459                95.7722             22881.0437

                     85                     86                     87
                      A                      A                      A
 Frequencies --   1376.5587              1381.5511              1382.4066
 Red. masses --      1.2282                 1.2997                 1.2697
 Frc consts  --      1.3712                 1.4616                 1.4296
 IR Inten    --     63.6360              2525.0834              4055.5583

                     88                     89                     90
                      A                      A                      A
 Frequencies --   1396.6015              1401.9442              1402.1663
 Red. masses --      1.5915                 1.2117                 1.2078
 Frc consts  --      1.8289                 1.4032                 1.3991
 IR Inten    --     89.9654                57.2894              1284.1193

                     91                     92                     93
                      A                      A                      A
 Frequencies --   1406.0123              1433.1858              1461.7433
 Red. masses --      2.3279                 3.8764                 1.0449
 Frc consts  --      2.7114                 4.6911                 1.3154
 IR Inten    --    130.8242              7399.1406               179.0612

                     94                     95                     96
                      A                      A                      A
 Frequencies --   1462.1570              1468.8902              1479.1433
 Red. masses --      1.0420                 2.5311                 1.3010
 Frc consts  --      1.3126                 3.2177                 1.6770
 IR Inten    --     36.5176             12356.6170                29.2631

                     97                     98                     99
                      A                      A                      A
 Frequencies --   1480.8881              1481.1448              1481.6912
 Red. masses --      1.0604                 1.1376                 1.0440
 Frc consts  --      1.3702                 1.4704                 1.3504
 IR Inten    --   5885.3091               246.2260                70.5443

                    100                    101                    102
                      A                      A                      A
 Frequencies --   1482.7626              1487.7794              1490.4342
 Red. masses --      1.0534                 1.0534                 1.0625
 Frc consts  --      1.3646                 1.3739                 1.3905
 IR Inten    --   9741.7679                40.7955               453.8464

                    103                    104                    105
                      A                      A                      A
 Frequencies --   1490.6062              1499.6475              1501.4284
 Red. masses --      1.0611                 1.0631                 1.0845
 Frc consts  --      1.3891                 1.4086                 1.4404
 IR Inten    --    443.8836              3980.0963                59.6116

                    106                    107                    108
                      A                      A                      A
 Frequencies --   1506.6020              1508.5896              1518.0044
 Red. masses --      1.0546                 1.0616                 1.7312
 Frc consts  --      1.4104                 1.4235                 2.3504
 IR Inten    --    458.1271                20.7628               708.7215

                    109                    110                    111
                      A                      A                      A
 Frequencies --   1521.1652              1528.0304              2895.8176
 Red. masses --      1.0611                 1.6412                 1.0667
 Frc consts  --      1.4467                 2.2577                 5.2705
 IR Inten    --     16.6341               774.6601            391946.9836

                    112                    113                    114
                      A                      A                      A
 Frequencies --   2937.7967              2938.3829              2941.5836
 Red. masses --      1.0542                 1.0543                 1.0563
 Frc consts  --      5.3608                 5.3635                 5.3854
 IR Inten    --    559.3364               426.1714               194.8540

                    115                    116                    117
                      A                      A                      A
 Frequencies --   2947.4965              2947.5784              2953.5378
 Red. masses --      1.0530                 1.0547                 1.0539
 Frc consts  --      5.3897                 5.3991                 5.4169
 IR Inten    --   1770.4098              2818.2592              5595.0743

                    118                    119                    120
                      A                      A                      A
 Frequencies --   2957.9708              3000.4076              3003.4863
 Red. masses --      1.0552                 1.0824                 1.0822
 Frc consts  --      5.4399                 5.7412                 5.7518
 IR Inten    --    399.6477              5090.0984               162.5485

                    121                    122                    123
                      A                      A                      A
 Frequencies --   3022.6995              3025.7139              3029.5299
 Red. masses --      1.0732                 1.0813                 1.0816
 Frc consts  --      5.7772                 5.8324                 5.8489
 IR Inten    --  16840.9963               109.4240               599.7986

                    124                    125                    126
                      A                      A                      A
 Frequencies --   3030.0658              3031.2993              3033.1995
 Red. masses --      1.0819                 1.0737                 1.0759
 Frc consts  --      5.8525                 5.8129                 5.8322
 IR Inten    --     38.3347              7815.9979               108.3239

                    127                    128                    129
                      A                      A                      A
 Frequencies --   3038.0866              3041.8239              3064.3884
 Red. masses --      1.0762                 1.0770                 1.0914
 Frc consts  --      5.8526                 5.8714                 6.0382
 IR Inten    --  10695.6946                14.2328                93.4614

                    130                    131                    132
                      A                      A                      A
 Frequencies --   3064.8767              3066.8341              3067.1681
 Red. masses --      1.0918                 1.0991                 1.1000
 Frc consts  --      6.0426                 6.0907                 6.0971
 IR Inten    --     76.2731               842.6616                59.3082

                    133                    134                    135
                      A                      A                      A
 Frequencies --   3075.2283              3076.0573              3085.9033
 Red. masses --      1.0931                 1.0933                 1.0989
 Frc consts  --      6.0907                 6.0951                 6.1654
 IR Inten    --   2521.1889               192.3699               684.7234

                    136                    137                    138
                      A                      A                      A
 Frequencies --   3086.3820              3097.1317              3098.5474
 Red. masses --      1.0987                 1.0941                 1.0936
 Frc consts  --      6.1665                 6.1833                 6.1861
 IR Inten    --     24.9995              2637.7227               157.7599

 - Thermochemistry -
 -------------------
 Temperature   298.150 Kelvin.  Pressure   1.00000 Atm.
 Atom     1 has atomic number  6 and mass  12.00000

 Molecular mass:   276.20893 amu.
 Principal axes and moments of inertia in atomic units:
                           1         2         3
     Eigenvalues --  4152.865016290.253198860.96583
           X            0.99929  -0.03597  -0.01107
           Y            0.03639   0.99852   0.04046
           Z            0.00960  -0.04084   0.99912
 This molecule is an asymmetric top.
 Rotational symmetry number  1.
 Warning -- assumption of classical behavior for rotation
           may cause significant error
 Rotational temperatures (Kelvin)      0.02086     0.01377     0.00977
 Rotational constants (GHZ):           0.43458     0.28691     0.20367
 Zero-point vibrational energy    1086600.7 (Joules/Mol)
                                  259.70379 (Kcal/Mol)
 Warning -- explicit consideration of  39 degrees of freedom as
           vibrations may cause significant error
 Vibrational temperatures:     46.92    67.03    92.15   101.97   122.67
          (Kelvin)            147.33   162.37   226.34   255.09   257.50
                              257.94   269.33   297.04   297.23   306.92
                              311.19   327.97   331.10   335.03   350.27
                              352.31   369.91   382.11   392.32   424.03
                              434.25   451.66   565.76   585.48   593.68
                              612.74   642.58   643.64   679.63   686.77
                              744.70   751.39   800.00   850.39   946.79
                             1039.12  1075.61  1134.95  1163.21  1191.46
                             1225.21  1234.72  1309.93  1314.35  1315.00
                             1325.56  1326.41  1343.50  1348.65  1357.88
                             1365.02  1365.44  1398.55  1467.35  1544.23
                             1565.00  1583.89  1597.42  1605.28  1608.13
                             1610.58  1615.03  1679.29  1681.77  1697.43
                             1703.06  1712.05  1814.53  1827.31  1898.31
                             1914.65  1927.28  1929.31  1929.94  1939.64
                             1945.08  1959.47  1960.77  1971.29  1980.56
                             1987.74  1988.97  2009.40  2017.08  2017.40
                             2022.94  2062.03  2103.12  2103.72  2113.41
                             2128.16  2130.67  2131.04  2131.82  2133.36
                             2140.58  2144.40  2144.65  2157.66  2160.22
                             2167.66  2170.52  2184.07  2188.62  2198.49
                             4166.44  4226.83  4227.68  4232.28  4240.79
                             4240.91  4249.48  4255.86  4316.92  4321.35
                             4348.99  4353.33  4358.82  4359.59  4361.36
                             4364.10  4371.13  4376.51  4408.97  4409.67
                             4412.49  4412.97  4424.57  4425.76  4439.93
                             4440.62  4456.08  4458.12

 Zero-point correction=                           0.413864 (Hartree/Particle)
 Thermal correction to Energy=                    0.437358
 Thermal correction to Enthalpy=                  0.438302
 Thermal correction to Gibbs Free Energy=         0.363267
 Sum of electronic and zero-point Energies=           -853.013603
 Sum of electronic and thermal Energies=              -852.990109
 Sum of electronic and thermal Enthalpies=            -852.989165
 Sum of electronic and thermal Free Energies=         -853.064200

                     E (Thermal)             CV                S
                      KCal/Mol        Cal/Mol-Kelvin    Cal/Mol-Kelvin
 Total                  274.446             89.250            157.925
 Electronic               0.000              0.000              0.000
 Translational            0.889              2.981             42.746
 Rotational               0.889              2.981             33.803
 Vibrational            272.669             83.288             81.376
 Vibration     1          0.594              1.983              5.664
 Vibration     2          0.595              1.979              4.957
 Vibration     3          0.597              1.971              4.329
 Vibration     4          0.598              1.968              4.129
 Vibration     5          0.601              1.959              3.766
 Vibration     6          0.604              1.947              3.408
 Vibration     7          0.607              1.939              3.219
 Vibration     8          0.621              1.894              2.582
 Vibration     9          0.628              1.870              2.357
 Vibration    10          0.629              1.868              2.339
 Vibration    11          0.629              1.868              2.336
 Vibration    12          0.632              1.857              2.255
 Vibration    13          0.641              1.831              2.075
 Vibration    14          0.641              1.830              2.074
 Vibration    15          0.644              1.821              2.015
 Vibration    16          0.645              1.816              1.990
 Vibration    17          0.651              1.798              1.895
 Vibration    18          0.652              1.795              1.878
 Vibration    19          0.654              1.791              1.857
 Vibration    20          0.659              1.774              1.778
 Vibration    21          0.660              1.771              1.767
 Vibration    22          0.667              1.751              1.681
 Vibration    23          0.671              1.736              1.625
 Vibration    24          0.676              1.724              1.579
 Vibration    25          0.689              1.684              1.447
 Vibration    26          0.694              1.670              1.407
 Vibration    27          0.702              1.647              1.342
 Vibration    28          0.760              1.485              0.988
 Vibration    29          0.772              1.455              0.938
 Vibration    30          0.776              1.443              0.917
 Vibration    31          0.788              1.414              0.872
 Vibration    32          0.806              1.368              0.806
 Vibration    33          0.806              1.367              0.804
 Vibration    34          0.829              1.311              0.731
 Vibration    35          0.834              1.300              0.717
 Vibration    36          0.873              1.211              0.616
 Vibration    37          0.877              1.201              0.605
 Vibration    38          0.911              1.127              0.532
 Vibration    39          0.948              1.051              0.465

 Optimization completed.
    -- Stationary point found.
 Normal termination of Gaussian 16 at Wed Dec 20 03:23:37 2023.
