 Q-Chem 5.4, Q-Chem, Inc., Pleasanton, CA (2021)
 Q-Chem 5.4.0 for Intel X86 EM64T Linux

User input:
--------------------------------------------------------------
$molecule
-2 1
C                 -1.8576080000      1.8849000000     -5.1069070000
C                 -1.7106550000      0.5727070000     -5.5087770000
C                 -1.2349340000     -0.3983610000     -4.5859430000
C                 -1.5422560000      2.3148710000     -3.7928940000
C                 -1.0591350000      1.3278550000     -2.8606500000
C                 -0.9207110000     -0.0129060000     -3.2988840000
C                 -1.7370450000      3.7240360000     -3.4629980000
C                 -0.7152790000      1.6702350000     -1.4980570000
C                 -1.3390800000      4.0881260000     -2.1218680000
C                 -0.8989900000      3.0691390000     -1.1666320000
C                 -1.3611760000      5.4294030000     -1.6087870000
C                 -1.1110530000      5.7897260000     -0.2953340000
C                 -0.7941620000      4.7232580000      0.5968540000
C                 -0.6990270000      3.4263730000      0.1840990000
O                 -2.2237330000      4.5331190000     -4.3251490000
O                 -0.3061010000      0.8034200000     -0.6481100000
H                 -2.2220750000      2.6497500000     -5.7851810000
H                 -1.9579890000      0.2809680000     -6.5281350000
H                 -1.1220390000     -1.4365980000     -4.8931130000
H                 -0.5565180000     -0.7259120000     -2.5657330000
Br                -0.7403550000      5.1039380000      2.5527740000
H                 -0.4696250000      2.6153900000      0.8656760000
N                 -1.1076710000      7.1281760000      0.1614290000
Cl                -1.5148250000      6.8332200000     -2.7314370000
H                 -0.9675430000      7.7791140000     -0.6024810000
H                 -0.4362310000      7.2774430000      0.9062250000
$end

$rem
BASIS  =  6-311++G(d,p)
GUI  =  2
JOB_TYPE  =  SP
METHOD  =  B3LYP
SCF_CONVERGENCE  = 8
SOLVENT_METHOD = sm12
$end

$smx
solvent dimethylformamide
charges CM5
$end

--------------------------------------------------------------

             Standard Nuclear Orientation (Angstroms)
    I     Atom           X                Y                Z
 ----------------------------------------------------------------
    1      C      -1.8576080000     1.8849000000    -5.1069070000
    2      C      -1.7106550000     0.5727070000    -5.5087770000
    3      C      -1.2349340000    -0.3983610000    -4.5859430000
    4      C      -1.5422560000     2.3148710000    -3.7928940000
    5      C      -1.0591350000     1.3278550000    -2.8606500000
    6      C      -0.9207110000    -0.0129060000    -3.2988840000
    7      C      -1.7370450000     3.7240360000    -3.4629980000
    8      C      -0.7152790000     1.6702350000    -1.4980570000
    9      C      -1.3390800000     4.0881260000    -2.1218680000
   10      C      -0.8989900000     3.0691390000    -1.1666320000
   11      C      -1.3611760000     5.4294030000    -1.6087870000
   12      C      -1.1110530000     5.7897260000    -0.2953340000
   13      C      -0.7941620000     4.7232580000     0.5968540000
   14      C      -0.6990270000     3.4263730000     0.1840990000
   15      O      -2.2237330000     4.5331190000    -4.3251490000
   16      O      -0.3061010000     0.8034200000    -0.6481100000
   17      H      -2.2220750000     2.6497500000    -5.7851810000
   18      H      -1.9579890000     0.2809680000    -6.5281350000
   19      H      -1.1220390000    -1.4365980000    -4.8931130000
   20      H      -0.5565180000    -0.7259120000    -2.5657330000
   21      Br     -0.7403550000     5.1039380000     2.5527740000
   22      H      -0.4696250000     2.6153900000     0.8656760000
   23      N      -1.1076710000     7.1281760000     0.1614290000
   24      Cl     -1.5148250000     6.8332200000    -2.7314370000
   25      H      -0.9675430000     7.7791140000    -0.6024810000
   26      H      -0.4362310000     7.2774430000     0.9062250000
 ----------------------------------------------------------------

   19   -3777.4592031207      4.37e-09  Convergence criterion met
 Total energy in the final basis set =    -3777.7267426022

                    Orbital Energies (a.u.)
 --------------------------------------------------------------

 Alpha MOs
 -- Occupied --
********-101.5383 -62.4800 -56.3005 -56.2968 -56.2967 -19.0311 -19.0195
-14.3218 -10.2216 -10.2204 -10.2193 -10.1897 -10.1885 -10.1733 -10.1731
-10.1727 -10.1692 -10.1670 -10.1650 -10.1572 -10.1531 -10.1528  -9.4517
 -8.6881  -7.2161  -7.2070  -7.2062  -6.5188  -6.5069  -6.5066  -2.6297
 -2.6264  -2.6262  -2.6167  -2.6166  -0.9510  -0.9440  -0.9293  -0.8510
 -0.8438  -0.8333  -0.7891  -0.7573  -0.7422  -0.7240  -0.7143  -0.6499
 -0.6249  -0.6062  -0.5828  -0.5492  -0.5306  -0.5161  -0.4999  -0.4779
 -0.4501  -0.4455  -0.4384  -0.4227  -0.4205  -0.4109  -0.4057  -0.3919
 -0.3821  -0.3763  -0.3654  -0.3486  -0.3437  -0.3419  -0.3352  -0.3235
 -0.3190  -0.3052  -0.3006  -0.2868  -0.2827  -0.2492  -0.2351  -0.2322
 -0.2116  -0.2088  -0.1938  -0.1145

          Ground-State Mulliken Net Atomic Charges

     Atom                 Charge (a.u.)
  ----------------------------------------
      1 C                    -0.562038
      2 C                     1.277396
      3 C                     1.358226
      4 C                    -1.798949
      5 C                    -1.915460
      6 C                    -0.480583
      7 C                    -4.509886
      8 C                    -3.027527
      9 C                    -0.552821
     10 C                    -1.317262
     11 C                     0.255369
     12 C                     2.038510
     13 C                     3.986417
     14 C                     0.587634
     15 O                    -0.242588
     16 O                    -0.329315
     17 H                     0.089836
     18 H                     0.374808
     19 H                     0.385820
     20 H                     0.107034
     21 Br                    0.552250
     22 H                     0.102390
     23 N                     0.211992
     24 Cl                    0.796358
     25 H                     0.301761
     26 H                     0.310628
  ----------------------------------------
  Sum of atomic charges =    -2.000000

                    Cartesian Multipole Moments
 -----------------------------------------------------------------
    Charge (ESU x 10^10)
                -9.6064
    Dipole Moment (Debye)
         X      12.8906      Y     -27.3724      Z      22.4072
       Tot      37.6497
    Quadrupole Moments (Debye-Ang)
        XX    -165.9007     XY      51.2010     YY    -262.2182
        XZ     -40.0751     YZ      64.9822     ZZ    -242.2364

 Total job time:  802.26s(wall), 6078.96s(cpu)
        *  Thank you very much for using Q-Chem.  Have a nice day.  *
