 Q-Chem 5.4, Q-Chem, Inc., Pleasanton, CA (2021)
 Q-Chem 5.4.0 for Intel X86 EM64T Linux

User input:
--------------------------------------------------------------
$molecule
0 1
C                 -4.4041840000     -0.3459880000      0.1959550000
C                 -2.9267290000     -0.6319200000      0.2406410000
C                 -2.4538140000     -1.9187660000      0.4308180000
C                 -1.0875500000     -2.2069810000      0.4788550000
C                 -0.1645370000     -1.1845970000      0.3316340000
C                  1.2835460000     -1.5447870000      0.3893280000
O                  1.6462460000     -2.6983560000      0.5634850000
C                  2.2723930000     -0.4452790000      0.2260120000
C                  3.6393880000     -0.7373630000      0.2731400000
C                  4.5749680000      0.2781940000      0.1214010000
C                  4.1504600000      1.5951400000     -0.0790200000
C                  2.7938930000      1.8926090000     -0.1269320000
C                  1.8445610000      0.8761590000      0.0250700000
C                  0.3941080000      1.2293190000     -0.0300110000
O                  0.0738920000      2.4101050000     -0.2106460000
C                 -0.5926740000      0.1546560000      0.1325500000
C                 -1.9919120000      0.4351160000      0.0882760000
N                 -2.4526780000      1.7012490000     -0.0881320000
H                 -4.7046740000      0.0925630000     -0.7634220000
H                 -4.7055510000      0.3537170000      0.9846380000
H                 -4.9798520000     -1.2621390000      0.3313740000
H                 -3.1705100000     -2.7255050000      0.5466080000
H                 -0.7300770000     -3.2169420000      0.6291490000
H                  3.9414050000     -1.7655800000      0.4293140000
H                  5.6340100000      0.0491710000      0.1583690000
H                  4.8809890000      2.3875220000     -0.1974330000
H                  2.4449990000      2.9057780000     -0.2808910000
H                 -3.4369510000      1.8820540000     -0.1669430000
H                 -1.7731650000      2.4408500000     -0.2217580000
$end
$rem
MAX_SCF_CYCLES=200
BASIS  =  6-311++G(d,p)
GUI  =  2
JOB_TYPE  =  SP
METHOD  =  B3LYP
SOLVENT_METHOD = PCM
$end
$pcm
theory = CPCM
$end
$solvent
dielectric 37.219
opticaldielectric 1.43
$end

--------------------------------------------------------------

             Standard Nuclear Orientation (Angstroms)
    I     Atom           X                Y                Z
 ----------------------------------------------------------------
    1      C      -4.4041840000    -0.3459880000     0.1959550000
    2      C      -2.9267290000    -0.6319200000     0.2406410000
    3      C      -2.4538140000    -1.9187660000     0.4308180000
    4      C      -1.0875500000    -2.2069810000     0.4788550000
    5      C      -0.1645370000    -1.1845970000     0.3316340000
    6      C       1.2835460000    -1.5447870000     0.3893280000
    7      O       1.6462460000    -2.6983560000     0.5634850000
    8      C       2.2723930000    -0.4452790000     0.2260120000
    9      C       3.6393880000    -0.7373630000     0.2731400000
   10      C       4.5749680000     0.2781940000     0.1214010000
   11      C       4.1504600000     1.5951400000    -0.0790200000
   12      C       2.7938930000     1.8926090000    -0.1269320000
   13      C       1.8445610000     0.8761590000     0.0250700000
   14      C       0.3941080000     1.2293190000    -0.0300110000
   15      O       0.0738920000     2.4101050000    -0.2106460000
   16      C      -0.5926740000     0.1546560000     0.1325500000
   17      C      -1.9919120000     0.4351160000     0.0882760000
   18      N      -2.4526780000     1.7012490000    -0.0881320000
   19      H      -4.7046740000     0.0925630000    -0.7634220000
   20      H      -4.7055510000     0.3537170000     0.9846380000
   21      H      -4.9798520000    -1.2621390000     0.3313740000
   22      H      -3.1705100000    -2.7255050000     0.5466080000
   23      H      -0.7300770000    -3.2169420000     0.6291490000
   24      H       3.9414050000    -1.7655800000     0.4293140000
   25      H       5.6340100000     0.0491710000     0.1583690000
   26      H       4.8809890000     2.3875220000    -0.1974330000
   27      H       2.4449990000     2.9057780000    -0.2808910000
   28      H      -3.4369510000     1.8820540000    -0.1669430000
   29      H      -1.7731650000     2.4408500000    -0.2217580000
 ----------------------------------------------------------------

    9    -783.6817622173      2.19e-06  Convergence criterion met
 Total energy in the final basis set =     -783.6817622173

                    Orbital Energies (a.u.)
 --------------------------------------------------------------

 Alpha MOs
 -- Occupied --
-19.1246 -19.1233 -14.3309 -10.2770 -10.2761 -10.2434 -10.2039 -10.2023
-10.1998 -10.1995 -10.1977 -10.1939 -10.1934 -10.1928 -10.1920 -10.1893
-10.1828 -10.1725  -1.0604  -1.0568  -0.9428  -0.8861  -0.8642  -0.8130
 -0.7786  -0.7740  -0.7551  -0.7135  -0.6781  -0.6555  -0.6350  -0.6075
 -0.5859  -0.5716  -0.5456  -0.5245  -0.5060  -0.4986  -0.4726  -0.4686
 -0.4657  -0.4543  -0.4519  -0.4469  -0.4379  -0.4318  -0.4267  -0.4149
 -0.3973  -0.3874  -0.3860  -0.3750  -0.3679  -0.3656  -0.3621  -0.3320
 -0.2843  -0.2836  -0.2749  -0.2706  -0.2674  -0.2228

          Ground-State Mulliken Net Atomic Charges

     Atom                 Charge (a.u.)
  ----------------------------------------
      1 C                    -0.486183
      2 C                     0.698467
      3 C                    -0.841226
      4 C                    -0.115432
      5 C                     0.529453
      6 C                    -0.634875
      7 O                    -0.302470
      8 C                     0.011516
      9 C                     0.178441
     10 C                    -0.458623
     11 C                    -0.507875
     12 C                     0.229005
     13 C                     0.100527
     14 C                    -0.405919
     15 O                    -0.330234
     16 C                     0.137580
     17 C                     0.186311
     18 N                    -0.454211
     19 H                     0.191460
     20 H                     0.190924
     21 H                     0.192029
     22 H                     0.188850
     23 H                     0.188742
     24 H                     0.191880
     25 H                     0.219768
     26 H                     0.220807
     27 H                     0.196850
     28 H                     0.329025
     29 H                     0.355414
  ----------------------------------------
  Sum of atomic charges =     0.000000

                    Cartesian Multipole Moments
 -----------------------------------------------------------------
    Charge (ESU x 10^10)
                 0.0000
    Dipole Moment (Debye)
         X      -3.4399      Y       2.0743      Z      -0.4545
       Tot       4.0425
    Quadrupole Moments (Debye-Ang)
        XX     -66.7697     XY       7.7370     YY    -112.0073
        XZ      -1.1855     YZ       0.6472     ZZ    -108.4475

 Total job time:  89.80s(wall), 441.18s(cpu)
        *  Thank you very much for using Q-Chem.  Have a nice day.  *
