 Q-Chem 5.4, Q-Chem, Inc., Pleasanton, CA (2021)
 Q-Chem 5.4.0 for Intel X86 EM64T Linux

User input:
--------------------------------------------------------------
$molecule
-2 1
C                 -2.9900410000     -1.5361610000     -0.1538250000
O                 -2.2716350000     -0.5538980000      0.5729550000
C                 -0.9001240000     -0.5415910000      0.2978440000
C                 -0.3549050000      0.6280610000     -0.2547790000
O                 -1.2443770000      1.6350550000     -0.6455160000
C                 -1.0679120000      2.8557970000      0.0517900000
C                  1.0494670000      0.8055710000     -0.4994520000
O                  1.5556760000      1.8871620000     -1.0171860000
C                  1.8522960000     -0.3274670000     -0.1375470000
C                  1.2940230000     -1.4953000000      0.3883410000
C                 -0.0988410000     -1.6836700000      0.6512950000
O                 -0.5925460000     -2.7681230000      1.1688750000
C                  3.3363340000     -0.2209710000     -0.3822860000
H                 -2.5728090000     -2.5303860000      0.0368060000
H                 -4.0320560000     -1.4904110000      0.1908590000
H                 -2.9701540000     -1.3172450000     -1.2349280000
H                 -1.3115080000      2.7355310000      1.1210360000
H                 -1.7706000000      3.5777660000     -0.3858460000
H                 -0.0396860000      3.2142950000     -0.0626880000
H                  1.9446760000     -2.3310640000      0.6510060000
H                  3.7767110000      0.6257570000      0.1641250000
H                  3.8512470000     -1.1418650000     -0.0792430000
H                  3.5567640000     -0.0268430000     -1.4427160000
$end
$rem
MAX_SCF_CYCLES=200
BASIS  =  6-311++G(d,p)
GUI  =  2
JOB_TYPE  =  SP
METHOD  =  B3LYP
SOLVENT_METHOD = PCM
$end
$pcm
theory = CPCM
$end
$solvent
dielectric 37.219
opticaldielectric 1.43
$end

--------------------------------------------------------------

             Standard Nuclear Orientation (Angstroms)
    I     Atom           X                Y                Z
 ----------------------------------------------------------------
    1      C      -2.9900410000    -1.5361610000    -0.1538250000
    2      O      -2.2716350000    -0.5538980000     0.5729550000
    3      C      -0.9001240000    -0.5415910000     0.2978440000
    4      C      -0.3549050000     0.6280610000    -0.2547790000
    5      O      -1.2443770000     1.6350550000    -0.6455160000
    6      C      -1.0679120000     2.8557970000     0.0517900000
    7      C       1.0494670000     0.8055710000    -0.4994520000
    8      O       1.5556760000     1.8871620000    -1.0171860000
    9      C       1.8522960000    -0.3274670000    -0.1375470000
   10      C       1.2940230000    -1.4953000000     0.3883410000
   11      C      -0.0988410000    -1.6836700000     0.6512950000
   12      O      -0.5925460000    -2.7681230000     1.1688750000
   13      C       3.3363340000    -0.2209710000    -0.3822860000
   14      H      -2.5728090000    -2.5303860000     0.0368060000
   15      H      -4.0320560000    -1.4904110000     0.1908590000
   16      H      -2.9701540000    -1.3172450000    -1.2349280000
   17      H      -1.3115080000     2.7355310000     1.1210360000
   18      H      -1.7706000000     3.5777660000    -0.3858460000
   19      H      -0.0396860000     3.2142950000    -0.0626880000
   20      H       1.9446760000    -2.3310640000     0.6510060000
   21      H       3.7767110000     0.6257570000     0.1641250000
   22      H       3.8512470000    -1.1418650000    -0.0792430000
   23      H       3.5567640000    -0.0268430000    -1.4427160000
 ----------------------------------------------------------------

    9    -650.2647518288      7.17e-06  Convergence criterion met
 Total energy in the final basis set =     -650.2647518288

                    Orbital Energies (a.u.)
 --------------------------------------------------------------

 Alpha MOs
 -- Occupied --
-19.1120 -19.1117 -19.0154 -19.0145 -10.1891 -10.1890 -10.1734 -10.1715
-10.1675 -10.1638 -10.1388 -10.1264 -10.1160  -1.0306  -1.0133  -0.9257
 -0.9228  -0.7811  -0.7301  -0.6810  -0.6742  -0.6351  -0.6132  -0.5471
 -0.5256  -0.4784  -0.4602  -0.4531  -0.4419  -0.4247  -0.4206  -0.4045
 -0.3920  -0.3897  -0.3606  -0.3588  -0.3448  -0.3376  -0.3308  -0.3226
 -0.3143  -0.3058  -0.2609  -0.2584  -0.2208  -0.1950  -0.1930  -0.1902
 -0.1163

          Ground-State Mulliken Net Atomic Charges

     Atom                 Charge (a.u.)
  ----------------------------------------
      1 C                    -0.245484
      2 O                    -0.241463
      3 C                     0.063719
      4 C                    -0.268949
      5 O                    -0.234708
      6 C                    -0.247415
      7 C                    -0.360754
      8 O                    -0.749720
      9 C                     1.044330
     10 C                    -0.776282
     11 C                    -0.197524
     12 O                    -0.758766
     13 C                    -0.431528
     14 H                     0.165766
     15 H                     0.143782
     16 H                     0.123654
     17 H                     0.125470
     18 H                     0.144620
     19 H                     0.163435
     20 H                     0.113457
     21 H                     0.143260
     22 H                     0.140200
     23 H                     0.140900
  ----------------------------------------
  Sum of atomic charges =    -2.000000

                    Cartesian Multipole Moments
 -----------------------------------------------------------------
    Charge (ESU x 10^10)
                -9.6064
    Dipole Moment (Debye)
         X      -2.3630      Y       3.5306      Z      -0.7188
       Tot       4.3088
    Quadrupole Moments (Debye-Ang)
        XX    -102.1604     XY     -13.6068     YY    -126.3519
        XZ      10.2389     YZ      23.4929     ZZ     -98.3174

 Total job time:  52.92s(wall), 206.87s(cpu)
        *  Thank you very much for using Q-Chem.  Have a nice day.  *
