 Gaussian 16, Revision A.03,
 Gaussian 16:  ES64L-G16RevA.03 25-Dec-2016

 ----------------------------------------------------------------
 #P UB3LYP/6-311++G(d,p) SCRF=(PCM,Solvent=n,n-DiMethylFormamide)
 ----------------------------------------------------------------

 ------------------
 Quinone PCM in DMF
 ------------------
 Symbolic Z-matrix:
 Charge =  0 Multiplicity = 1

                         Standard orientation:
 ---------------------------------------------------------------------
 Center     Atomic      Atomic             Coordinates (Angstroms)
 Number     Number       Type             X           Y           Z
 ---------------------------------------------------------------------
      1          6           0       -2.509628   -0.951516    0.082877
      2          6           0       -2.396369   -2.319630   -0.138181
      3          6           0       -1.139152   -2.869901   -0.379690
      4          6           0       -1.375577   -0.137194    0.093274
      5          6           0       -0.092152   -0.695690   -0.086412
      6          6           0       -0.001005   -2.066480   -0.359466
      7          6           0       -1.557698    1.339120    0.190395
      8          6           0       -0.317256    2.216324   -0.118165
      9          6           0        0.964709    1.541339   -0.176369
     10          6           0        1.108370    0.185963   -0.075396
     11          8           0       -2.619586    1.850542    0.464943
     12          8           0       -0.446256    3.423595   -0.219639
     13          1           0       -3.475423   -0.482405    0.227766
     14          1           0       -3.280360   -2.946469   -0.149606
     15          1           0       -1.040669   -3.928139   -0.593976
     16          1           0        0.961597   -2.505594   -0.583375
     17          1           0        1.823915    2.196918   -0.223368
     18          7           0        2.356865   -0.426016   -0.062806
     19          6           0        3.514007    0.360589   -0.472270
     20          6           0        2.678400   -1.346462    1.036524
     21          1           0        3.303239    0.878739   -1.407766
     22          1           0        4.351934   -0.320503   -0.633814
     23          1           0        3.816422    1.099863    0.284150
     24          1           0        1.784911   -1.834683    1.414944
     25          1           0        3.142470   -0.798059    1.868277
     26          1           0        3.380752   -2.109418    0.691264
 ---------------------------------------------------------------------

 SCF Done:  E(UB3LYP) =  -669.270318701     A.U. after   16 cycles

 The electronic state is 1-A.
 Alpha  occ. eigenvalues --  -19.14195 -19.12307 -14.36052 -10.28192 -10.26923
 Alpha  occ. eigenvalues --  -10.25591 -10.21884 -10.20856 -10.20693 -10.20539
 Alpha  occ. eigenvalues --  -10.19973 -10.19962 -10.19884 -10.19619 -10.18205
 Alpha  occ. eigenvalues --   -1.08116  -1.04894  -0.97468  -0.89089  -0.82743
 Alpha  occ. eigenvalues --   -0.78411  -0.76582  -0.72869  -0.72180  -0.66529
 Alpha  occ. eigenvalues --   -0.64190  -0.62080  -0.58697  -0.54747  -0.53098
 Alpha  occ. eigenvalues --   -0.52274  -0.48858  -0.48572  -0.47764  -0.46579
 Alpha  occ. eigenvalues --   -0.46027  -0.45124  -0.45064  -0.43888  -0.42466
 Alpha  occ. eigenvalues --   -0.41462  -0.40646  -0.39848  -0.39261  -0.38735
 Alpha  occ. eigenvalues --   -0.37892  -0.36720  -0.33705  -0.31151  -0.28122
 Alpha  occ. eigenvalues --   -0.27078  -0.25875  -0.23744
 Alpha virt. eigenvalues --   -0.12239  -0.05562  -0.02366  -0.00889   0.00193
 Alpha virt. eigenvalues --    0.00825   0.01187   0.01894   0.02368   0.02541
 Alpha virt. eigenvalues --    0.03483   0.04051   0.04520   0.04858   0.05103

  Beta  occ. eigenvalues --  -19.14195 -19.12307 -14.36052 -10.28192 -10.26923
  Beta  occ. eigenvalues --  -10.25591 -10.21884 -10.20856 -10.20693 -10.20539
  Beta  occ. eigenvalues --  -10.19973 -10.19962 -10.19884 -10.19619 -10.18205
  Beta  occ. eigenvalues --   -1.08116  -1.04894  -0.97468  -0.89089  -0.82743
  Beta  occ. eigenvalues --   -0.78411  -0.76582  -0.72869  -0.72180  -0.66529
  Beta  occ. eigenvalues --   -0.64190  -0.62080  -0.58697  -0.54747  -0.53098
  Beta  occ. eigenvalues --   -0.52274  -0.48858  -0.48572  -0.47764  -0.46579
  Beta  occ. eigenvalues --   -0.46027  -0.45124  -0.45064  -0.43888  -0.42466
  Beta  occ. eigenvalues --   -0.41462  -0.40646  -0.39848  -0.39261  -0.38735
  Beta  occ. eigenvalues --   -0.37892  -0.36720  -0.33705  -0.31151  -0.28122
  Beta  occ. eigenvalues --   -0.27078  -0.25875  -0.23744
  Beta virt. eigenvalues --   -0.12239  -0.05562  -0.02366  -0.00889   0.00193
  Beta virt. eigenvalues --    0.00825   0.01187   0.01894   0.02368   0.02541
  Beta virt. eigenvalues --    0.03483   0.04051   0.04520   0.04858   0.05103

 Mulliken charges and spin densities:
               1          2
     1  C    0.111291  -0.000000
     2  C   -0.518828  -0.000000
     3  C   -0.158687   0.000000
     4  C    0.416751   0.000000
     5  C    0.257016   0.000000
     6  C    0.007227  -0.000000
     7  C   -0.207822   0.000000
     8  C   -0.033155  -0.000000
     9  C    0.042466  -0.000000
    10  C   -0.802871  -0.000000
    11  O   -0.291948  -0.000000
    12  O   -0.359188   0.000000
    13  H    0.199003   0.000000
    14  H    0.203702   0.000000
    15  H    0.215288   0.000000
    16  H    0.209626  -0.000000
    17  H    0.211145  -0.000000
    18  N    0.228765   0.000000
    19  C   -0.335643  -0.000000
    20  C   -0.425629   0.000000
    21  H    0.171695  -0.000000
    22  H    0.173104   0.000000
    23  H    0.177111   0.000000
    24  H    0.133322  -0.000000
    25  H    0.171496   0.000000
    26  H    0.204763   0.000000
 Sum of Mulliken charges =  -0.00000   0.00000

 Dipole moment (field-independent basis, Debye):
    X=              6.4680    Y=             -9.9236    Z=              0.1044  Tot=             11.8459
 Quadrupole moment (field-independent basis, Debye-Ang):
   XX=            -76.5741   YY=           -103.4221   ZZ=            -88.6530
   XY=             12.7747   XZ=              3.0406   YZ=             -0.1628

 Normal termination of Gaussian 16 at Sat Jan 13 19:16:46 2024.
