 Gaussian 16, Revision A.03,
 Gaussian 16:  ES64L-G16RevA.03 25-Dec-2016

 ----------------------------------------------------------------
 #P UB3LYP/6-311++G(d,p) SCRF=(PCM,Solvent=n,n-DiMethylFormamide)
 ----------------------------------------------------------------

 ------------------
 Quinone PCM in DMF
 ------------------
 Symbolic Z-matrix:
 Charge =  0 Multiplicity = 1

                         Standard orientation:
 ---------------------------------------------------------------------
 Center     Atomic      Atomic             Coordinates (Angstroms)
 Number     Number       Type             X           Y           Z
 ---------------------------------------------------------------------
      1          7           0        4.167001   -2.194525   -0.000265
      2          6           0        3.561261   -1.209445   -0.000087
      3          6           0        2.809677    0.000014    0.000098
      4          6           0        3.561229    1.209519    0.000000
      5          7           0        4.167396    2.194352   -0.000172
      6          6           0        1.424089   -0.000050    0.000150
      7          6           0        0.676339   -1.237626    0.000371
      8          6           0       -0.676295   -1.237598    0.000170
      9          6           0       -1.424021   -0.000014   -0.000095
     10          6           0       -0.676307    1.237509   -0.000019
     11          6           0        0.676317    1.237538    0.000120
     12          6           0       -2.809592   -0.000002   -0.000066
     13          6           0       -3.561237    1.209432   -0.000045
     14          7           0       -4.167021    2.194503    0.000031
     15          6           0       -3.561275   -1.209454   -0.000099
     16          7           0       -4.167529   -2.194143   -0.000194
     17          1           0        1.219134   -2.175054    0.000792
     18          1           0       -1.219133   -2.175003    0.000428
     19          1           0       -1.219217    2.174888   -0.000036
     20          1           0        1.219163    2.174929    0.000036
 ---------------------------------------------------------------------

 SCF Done:  E(UB3LYP) =  -678.771603934     A.U. after   15 cycles

 The electronic state is 1-A.
 Alpha  occ. eigenvalues --  -14.35403 -14.35403 -14.35402 -14.35401 -10.28757
 Alpha  occ. eigenvalues --  -10.28757 -10.26666 -10.26665 -10.25381 -10.25380
 Alpha  occ. eigenvalues --  -10.25377 -10.25376 -10.23151 -10.23149 -10.23076
 Alpha  occ. eigenvalues --  -10.23076  -0.96281  -0.96052  -0.94712  -0.94709
 Alpha  occ. eigenvalues --   -0.92512  -0.88479  -0.83562  -0.81018  -0.75887
 Alpha  occ. eigenvalues --   -0.68237  -0.67441  -0.63339  -0.59334  -0.58908
 Alpha  occ. eigenvalues --   -0.56469  -0.49570  -0.48801  -0.47908  -0.46276
 Alpha  occ. eigenvalues --   -0.44824  -0.44458  -0.41391  -0.41324  -0.41087
 Alpha  occ. eigenvalues --   -0.40804  -0.40313  -0.39282  -0.38839  -0.38408
 Alpha  occ. eigenvalues --   -0.38386  -0.38347  -0.37357  -0.37173  -0.34065
 Alpha  occ. eigenvalues --   -0.31566  -0.26729
 Alpha virt. eigenvalues --   -0.17214  -0.05977  -0.05553  -0.03882  -0.03383
 Alpha virt. eigenvalues --   -0.00934   0.00255   0.00280   0.00483   0.00756
 Alpha virt. eigenvalues --    0.01351   0.02315   0.02406   0.03173   0.03826

  Beta  occ. eigenvalues --  -14.35403 -14.35403 -14.35402 -14.35401 -10.28757
  Beta  occ. eigenvalues --  -10.28757 -10.26666 -10.26665 -10.25381 -10.25380
  Beta  occ. eigenvalues --  -10.25377 -10.25376 -10.23151 -10.23149 -10.23076
  Beta  occ. eigenvalues --  -10.23076  -0.96281  -0.96052  -0.94712  -0.94709
  Beta  occ. eigenvalues --   -0.92512  -0.88479  -0.83562  -0.81018  -0.75887
  Beta  occ. eigenvalues --   -0.68237  -0.67441  -0.63339  -0.59334  -0.58908
  Beta  occ. eigenvalues --   -0.56469  -0.49570  -0.48801  -0.47908  -0.46276
  Beta  occ. eigenvalues --   -0.44824  -0.44458  -0.41391  -0.41324  -0.41087
  Beta  occ. eigenvalues --   -0.40804  -0.40313  -0.39282  -0.38839  -0.38408
  Beta  occ. eigenvalues --   -0.38386  -0.38347  -0.37357  -0.37173  -0.34065
  Beta  occ. eigenvalues --   -0.31566  -0.26729
  Beta virt. eigenvalues --   -0.17214  -0.05977  -0.05553  -0.03882  -0.03383
  Beta virt. eigenvalues --   -0.00934   0.00255   0.00280   0.00483   0.00756
  Beta virt. eigenvalues --    0.01351   0.02315   0.02406   0.03173   0.03826

 Mulliken charges and spin densities:
               1          2
     1  N   -0.202219   0.000000
     2  C   -1.445087  -0.000000
     3  C    2.533138   0.000000
     4  C   -1.445360  -0.000000
     5  N   -0.202257   0.000000
     6  C    1.706255  -0.000000
     7  C   -0.652482  -0.000000
     8  C   -0.652417  -0.000000
     9  C    1.706099  -0.000000
    10  C   -0.652405   0.000000
    11  C   -0.652503  -0.000000
    12  C    2.533344   0.000000
    13  C   -1.445050   0.000000
    14  N   -0.202207  -0.000000
    15  C   -1.445364  -0.000000
    16  N   -0.202292   0.000000
    17  H    0.180192  -0.000000
    18  H    0.180223  -0.000000
    19  H    0.180179   0.000000
    20  H    0.180211   0.000000
 Sum of Mulliken charges =  -0.00000   0.00000

 Dipole moment (field-independent basis, Debye):
    X=              0.0001    Y=             -0.0004    Z=              0.0015  Tot=              0.0016
 Quadrupole moment (field-independent basis, Debye-Ang):
   XX=           -151.3714   YY=           -111.2597   ZZ=            -90.4173
   XY=              0.0003   XZ=              0.0032   YZ=             -0.0033

 Normal termination of Gaussian 16 at Sat Jan 13 19:16:58 2024.
