 Gaussian 16, Revision A.03,
 Gaussian 16:  ES64L-G16RevA.03 25-Dec-2016

 --------------------------------------
 #P UB3LYP/6-311++G(d,p) nosym opt freq
 --------------------------------------

 --------
 Oxidized
 --------
 Symbolic Z-matrix:
 Charge =  0 Multiplicity = 1

 SCF Done:  E(UB3LYP) =  -678.753151853     A.U. after   15 cycles
 Optimization completed.
    -- Stationary point found.
 Normal termination of Gaussian 16 at Tue Jan  9 20:30:10 2024.

 ----------------------------------------------------------------------
 #P Geom=AllCheck Guess=TCheck SCRF=Check GenChk UB3LYP/6-311++G(d,p) F
 req
 ----------------------------------------------------------------------

 Structure from the checkpoint file:  "347.chk"
 --------
 Oxidized
 --------
 Charge =  0 Multiplicity = 1

                          Input orientation:
 ---------------------------------------------------------------------
 Center     Atomic      Atomic             Coordinates (Angstroms)
 Number     Number       Type             X           Y           Z
 ---------------------------------------------------------------------
      1          7           0       -4.681594    0.390301    0.331870
      2          6           0       -3.704157   -0.148586    0.634397
      3          6           0       -2.497091   -0.807975    1.002997
      4          6           0       -2.625950   -1.899835    1.907967
      5          7           0       -2.725745   -2.787272    2.642699
      6          6           0       -1.265670   -0.409441    0.508400
      7          6           0       -1.152689    0.701726   -0.409897
      8          6           0        0.049458    1.090559   -0.892877
      9          6           0        1.265583    0.409415   -0.508440
     10          6           0        1.152642   -0.701517    0.410045
     11          6           0       -0.049477   -1.090427    0.893004
     12          6           0        2.497021    0.807875   -1.003009
     13          6           0        3.704112    0.148418   -0.634570
     14          7           0        4.681574   -0.390513   -0.332143
     15          6           0        2.626005    1.899652   -1.908099
     16          7           0        2.725914    2.786842   -2.642993
     17          1           0       -2.052880    1.224589   -0.709342
     18          1           0        0.114119    1.925500   -1.579968
     19          1           0        2.052957   -1.224058    0.709736
     20          1           0       -0.114132   -1.925251    1.580224
 ---------------------------------------------------------------------

 SCF Done:  E(UB3LYP) =  -678.753151853     A.U. after    1 cycles

 Alpha  occ. eigenvalues --  -14.36528 -14.36527 -14.36527 -14.36525 -10.30565
 Alpha  occ. eigenvalues --  -10.30565 -10.28504 -10.28503 -10.26116 -10.26115
 Alpha  occ. eigenvalues --  -10.26112 -10.26111 -10.25485 -10.25483 -10.25410
 Alpha  occ. eigenvalues --  -10.25410  -0.97563  -0.97160  -0.95671  -0.95668
 Alpha  occ. eigenvalues --   -0.94402  -0.90178  -0.85289  -0.83433  -0.77676
 Alpha  occ. eigenvalues --   -0.70305  -0.69413  -0.64879  -0.61197  -0.61014
 Alpha  occ. eigenvalues --   -0.58415  -0.51642  -0.51174  -0.50419  -0.48217
 Alpha  occ. eigenvalues --   -0.46641  -0.46349  -0.42028  -0.42006  -0.41713
 Alpha  occ. eigenvalues --   -0.41699  -0.41177  -0.40972  -0.39819  -0.39362
 Alpha  occ. eigenvalues --   -0.39300  -0.39267  -0.38215  -0.38138  -0.35700
 Alpha  occ. eigenvalues --   -0.34093  -0.28275
 Alpha virt. eigenvalues --   -0.18910  -0.08030  -0.07914  -0.04840  -0.04303
 Alpha virt. eigenvalues --   -0.02796  -0.01093  -0.00660  -0.00577  -0.00117
 Alpha virt. eigenvalues --    0.00519   0.00941   0.01423   0.01975   0.02122

  Beta  occ. eigenvalues --  -14.36528 -14.36527 -14.36527 -14.36525 -10.30565
  Beta  occ. eigenvalues --  -10.30565 -10.28504 -10.28503 -10.26116 -10.26115
  Beta  occ. eigenvalues --  -10.26112 -10.26111 -10.25485 -10.25483 -10.25410
  Beta  occ. eigenvalues --  -10.25410  -0.97563  -0.97160  -0.95671  -0.95668
  Beta  occ. eigenvalues --   -0.94402  -0.90178  -0.85289  -0.83433  -0.77676
  Beta  occ. eigenvalues --   -0.70305  -0.69413  -0.64879  -0.61197  -0.61014
  Beta  occ. eigenvalues --   -0.58415  -0.51642  -0.51174  -0.50419  -0.48217
  Beta  occ. eigenvalues --   -0.46641  -0.46349  -0.42028  -0.42006  -0.41713
  Beta  occ. eigenvalues --   -0.41699  -0.41177  -0.40972  -0.39819  -0.39362
  Beta  occ. eigenvalues --   -0.39300  -0.39267  -0.38215  -0.38138  -0.35700
  Beta  occ. eigenvalues --   -0.34093  -0.28275
  Beta virt. eigenvalues --   -0.18910  -0.08030  -0.07914  -0.04840  -0.04303
  Beta virt. eigenvalues --   -0.02796  -0.01093  -0.00660  -0.00577  -0.00117
  Beta virt. eigenvalues --    0.00519   0.00941   0.01423   0.01975   0.02122

 Mulliken charges and spin densities:
               1          2
     1  N   -0.127720   0.000000
     2  C   -1.398092  -0.000000
     3  C    2.419195  -0.000000
     4  C   -1.398456   0.000000
     5  N   -0.127731  -0.000000
     6  C    1.580976  -0.000000
     7  C   -0.641941   0.000000
     8  C   -0.641880  -0.000000
     9  C    1.580819   0.000000
    10  C   -0.641891   0.000000
    11  C   -0.641951  -0.000000
    12  C    2.419354  -0.000000
    13  C   -1.398051   0.000000
    14  N   -0.127707  -0.000000
    15  C   -1.398430   0.000000
    16  N   -0.127774  -0.000000
    17  H    0.167809   0.000000
    18  H    0.167842   0.000000
    19  H    0.167798   0.000000
    20  H    0.167831   0.000000
 Sum of Mulliken charges =  -0.00000  -0.00000

 Dipole moment (field-independent basis, Debye):
    X=             -0.0001    Y=              0.0009    Z=              0.0008  Tot=              0.0012
 Quadrupole moment (field-independent basis, Debye-Ang):
   XX=           -130.5028   YY=           -103.0277   ZZ=           -101.0713
   XY=             -6.5830   XZ=             10.8747   YZ=             10.9828

  Exact polarizability: 364.505  56.570 153.796 -86.062 -71.486 145.507
 Approx polarizability: 814.270 155.287 281.267-222.971-155.345 273.771

                      1                      2                      3
                      A                      A                      A
 Frequencies --     45.8919                49.7170                84.7558
 Red. masses --      8.7544                13.5052                12.3653
 Frc consts  --      0.0109                 0.0197                 0.0523
 IR Inten    --      9.5985                 0.0008                 5.6722

                      4                      5                      6
                      A                      A                      A
 Frequencies --    114.8442               120.2262               136.6170
 Red. masses --      4.1043                13.8505                10.5102
 Frc consts  --      0.0319                 0.1180                 0.1156
 IR Inten    --      0.0000                 0.0001                 0.0022

                      7                      8                      9
                      A                      A                      A
 Frequencies --    142.9102               145.7347               222.3389
 Red. masses --     12.4148                 8.5457                 9.2545
 Frc consts  --      0.1494                 0.1069                 0.2695
 IR Inten    --     10.4788                 0.0000                13.6416

                     10                     11                     12
                      A                      A                      A
 Frequencies --    291.7969               308.5563               335.0309
 Red. masses --      9.8873                 7.0231                12.0905
 Frc consts  --      0.4960                 0.3940                 0.7996
 IR Inten    --      0.0829                 0.0000                 0.0000

                     13                     14                     15
                      A                      A                      A
 Frequencies --    380.2823               396.8554               448.2278
 Red. masses --      6.1918                 4.1169                10.8253
 Frc consts  --      0.5276                 0.3820                 1.2814
 IR Inten    --      0.0000                 0.0000                 0.0000

                     16                     17                     18
                      A                      A                      A
 Frequencies --    468.9365               481.4548               513.9732
 Red. masses --      6.4437                 2.9631                11.3256
 Frc consts  --      0.8349                 0.4047                 1.7628
 IR Inten    --      0.0006                23.1512                 0.0139

                     19                     20                     21
                      A                      A                      A
 Frequencies --    533.2407               558.7392               615.4016
 Red. masses --      7.5032                 7.7307                12.3340
 Frc consts  --      1.2570                 1.4220                 2.7521
 IR Inten    --      0.0000                 3.0462                 0.0001

                     22                     23                     24
                      A                      A                      A
 Frequencies --    616.7512               623.4068               637.4388
 Red. masses --     12.4251                 7.2156                 8.8858
 Frc consts  --      2.7846                 1.6522                 2.1273
 IR Inten    --      1.1749                 0.0000                 0.0000

                     25                     26                     27
                      A                      A                      A
 Frequencies --    665.5251               724.3136               769.0159
 Red. masses --      5.5174                 7.6783                 6.6012
 Frc consts  --      1.4398                 2.3734                 2.3001
 IR Inten    --      2.0055                 0.0000                 0.0000

                     28                     29                     30
                      A                      A                      A
 Frequencies --    812.7843               870.4224               970.6169
 Red. masses --      1.2848                 1.7923                 8.5678
 Frc consts  --      0.5001                 0.8001                 4.7557
 IR Inten    --      0.0000                53.2549                 0.0000

                     31                     32                     33
                      A                      A                      A
 Frequencies --    985.7929              1006.8508              1009.1346
 Red. masses --      2.7974                 7.2687                 1.2602
 Frc consts  --      1.6017                 4.3415                 0.7561
 IR Inten    --      0.4390                 0.0051                 0.0000

                     34                     35                     36
                      A                      A                      A
 Frequencies --   1014.3488              1133.7368              1202.3627
 Red. masses --      1.3189                 2.5975                 6.8915
 Frc consts  --      0.7996                 1.9671                 5.8699
 IR Inten    --      0.0001                12.2481                 0.0000

                     37                     38                     39
                      A                      A                      A
 Frequencies --   1227.7358              1230.2192              1338.7317
 Red. masses --      2.1442                 1.1442                 1.7791
 Frc consts  --      1.9043                 1.0203                 1.8786
 IR Inten    --      4.0326                 0.0000                 0.0000

                     40                     41                     42
                      A                      A                      A
 Frequencies --   1372.0197              1426.0856              1475.3172
 Red. masses --      3.9149                 1.7963                 3.2647
 Frc consts  --      4.3421                 2.1524                 4.1866
 IR Inten    --      7.5336                 1.9459                 0.0000

                     43                     44                     45
                      A                      A                      A
 Frequencies --   1489.1420              1578.5106              1585.7144
 Red. masses --      9.6853                 5.2688                 6.2136
 Frc consts  --     12.6542                 7.7349                 9.2054
 IR Inten    --      0.0000                85.6314                10.1863

                     46                     47                     48
                      A                      A                      A
 Frequencies --   1664.4551              2310.8248              2311.0273
 Red. masses --      5.6423                12.6765                12.6767
 Frc consts  --      9.2098                39.8827                39.8901
 IR Inten    --      0.0000                 1.3163                 0.7416

                     49                     50                     51
                      A                      A                      A
 Frequencies --   2325.6073              2327.4690              3187.8185
 Red. masses --     12.6789                12.6787                 1.0888
 Frc consts  --     40.4022                40.4663                 6.5188
 IR Inten    --      0.2617                84.8538                 2.0288

                     52                     53                     54
                      A                      A                      A
 Frequencies --   3188.1339              3201.1198              3202.4293
 Red. masses --      1.0875                 1.0960                 1.0977
 Frc consts  --      6.5124                 6.6173                 6.6325
 IR Inten    --      0.0068                 0.3434                 0.0001

 - Thermochemistry -
 -------------------
 Temperature   298.150 Kelvin.  Pressure   1.00000 Atm.
 Atom     1 has atomic number  7 and mass  14.00307

 Molecular mass:   204.04360 amu.
 Principal axes and moments of inertia in atomic units:
                           1         2         3
     Eigenvalues --  1544.544236597.673668142.21785
           X            0.88875  -0.44572   0.10704
           Y            0.28757   0.72399   0.62701
           Z           -0.35696  -0.52648   0.77162
 This molecule is an asymmetric top.
 Rotational symmetry number  1.
 Warning -- assumption of classical behavior for rotation
           may cause significant error
 Rotational temperatures (Kelvin)      0.05608     0.01313     0.01064
 Rotational constants (GHZ):           1.16846     0.27354     0.22165
 Zero-point vibrational energy     334239.0 (Joules/Mol)
                                   79.88503 (Kcal/Mol)
 Warning -- explicit consideration of  22 degrees of freedom as
           vibrations may cause significant error
 Vibrational temperatures:     66.03    71.53   121.94   165.24   172.98
          (Kelvin)            196.56   205.62   209.68   319.90   419.83
                              443.94   482.03   547.14   570.99   644.90
                              674.70   692.71   739.49   767.21   803.90
                              885.43   887.37   896.94   917.13   957.54
                             1042.13  1106.44  1169.42  1252.34  1396.50
                             1418.34  1448.63  1451.92  1459.42  1631.19
                             1729.93  1766.44  1770.01  1926.14  1974.03
                             2051.82  2122.65  2142.54  2271.12  2281.49
                             2394.78  3324.76  3325.05  3346.03  3348.71
                             4586.56  4587.01  4605.70  4607.58

 Zero-point correction=                           0.127305 (Hartree/Particle)
 Thermal correction to Energy=                    0.141038
 Thermal correction to Enthalpy=                  0.141982
 Thermal correction to Gibbs Free Energy=         0.085698
 Sum of electronic and zero-point Energies=           -678.625847
 Sum of electronic and thermal Energies=              -678.612114
 Sum of electronic and thermal Enthalpies=            -678.611170
 Sum of electronic and thermal Free Energies=         -678.667453

                     E (Thermal)             CV                S
                      KCal/Mol        Cal/Mol-Kelvin    Cal/Mol-Kelvin
 Total                   88.503             49.610            118.459
 Electronic               0.000              0.000              0.000
 Translational            0.889              2.981             41.844
 Rotational               0.889              2.981             32.784
 Vibrational             86.725             43.648             43.831
 Vibration     1          0.595              1.979              4.987
 Vibration     2          0.595              1.978              4.829
 Vibration     3          0.601              1.960              3.778
 Vibration     4          0.608              1.937              3.185
 Vibration     5          0.609              1.932              3.097
 Vibration     6          0.614              1.917              2.851
 Vibration     7          0.616              1.910              2.765
 Vibration     8          0.617              1.907              2.727
 Vibration     9          0.648              1.807              1.940
 Vibration    10          0.687              1.689              1.464
 Vibration    11          0.698              1.657              1.370
 Vibration    12          0.716              1.606              1.236
 Vibration    13          0.750              1.512              1.038
 Vibration    14          0.763              1.477              0.974
 Vibration    15          0.807              1.365              0.801
 Vibration    16          0.826              1.319              0.741
 Vibration    17          0.838              1.291              0.706
 Vibration    18          0.869              1.219              0.624
 Vibration    19          0.888              1.176              0.580
 Vibration    20          0.914              1.121              0.526
 Vibration    21          0.975              0.999              0.424
 Vibration    22          0.976              0.996              0.422

 Optimization completed.
    -- Stationary point found.
 Normal termination of Gaussian 16 at Tue Jan  9 20:56:35 2024.
