 Gaussian 16, Revision A.03,
 Gaussian 16:  ES64L-G16RevA.03 25-Dec-2016

 --------------------------------------
 #P UB3LYP/6-311++G(d,p) nosym opt freq
 --------------------------------------

 -------
 Radical
 -------
 Symbolic Z-matrix:
 Charge = -1 Multiplicity = 2

 SCF Done:  E(UB3LYP) =  -846.309063622     A.U. after   22 cycles
 SCF Done:  E(UB3LYP) =  -846.319255949     A.U. after   16 cycles
 SCF Done:  E(UB3LYP) =  -846.319929257     A.U. after   17 cycles
 SCF Done:  E(UB3LYP) =  -846.319976808     A.U. after   14 cycles
 SCF Done:  E(UB3LYP) =  -846.319980316     A.U. after   12 cycles
 Optimization completed.
    -- Stationary point found.
 Normal termination of Gaussian 16 at Thu Dec 21 06:28:02 2023.

 ----------------------------------------------------------------------
 #P Geom=AllCheck Guess=TCheck SCRF=Check GenChk UB3LYP/6-311++G(d,p) F
 req
 ----------------------------------------------------------------------

 Structure from the checkpoint file:  "132-rad.chk"
 -------
 Radical
 -------
 Charge = -1 Multiplicity = 2

                          Input orientation:
 ---------------------------------------------------------------------
 Center     Atomic      Atomic             Coordinates (Angstroms)
 Number     Number       Type             X           Y           Z
 ---------------------------------------------------------------------
      1          6           0        6.879741   -1.636192   -0.253933
      2          6           0        7.461700   -0.684979   -1.075089
      3          6           0        6.635424    0.328944   -1.644158
      4          6           0        5.281652    0.325802   -1.355593
      5          6           0        4.678554   -0.636613   -0.521947
      6          6           0        5.502681   -1.648778    0.046594
      7          6           0        4.964688   -2.688963    0.923709
      8          6           0        3.525567   -2.623045    1.179270
      9          6           0        2.700962   -1.611147    0.610949
     10          6           0        3.239001   -0.570394   -0.266241
     11          6           0        2.922487   -3.586212    2.013166
     12          6           0        1.567977   -3.589269    2.301357
     13          6           0        0.742465   -2.574992    1.731802
     14          6           0        1.324536   -1.624231    0.911288
     15          8           0        5.693198   -3.583447    1.425960
     16          8           0        2.510602    0.323710   -0.768624
     17          6           0        1.000409   -4.660856    3.206786
     18          6           0       -0.749474   -2.505631    1.996443
     19          6           0        8.949266   -0.743748   -1.346928
     20          6           0        7.192268    1.407963   -2.553211
     21          1           0        7.483658   -2.419238    0.192872
     22          1           0        4.628795    1.085509   -1.774856
     23          1           0        3.574687   -4.345465    2.432308
     24          1           0        0.720421   -0.840538    0.464039
     25          1           0        1.793200   -5.336790    3.534702
     26          1           0        0.236255   -5.266208    2.704134
     27          1           0        0.532176   -4.239623    4.104759
     28          1           0       -1.097692   -3.302756    2.654920
     29          1           0       -1.319669   -2.578969    1.063645
     30          1           0       -1.023729   -1.552681    2.462587
     31          1           0        9.396015   -1.590162   -0.820682
     32          1           0        9.467683    0.163790   -1.014261
     33          1           0        9.171206   -0.863253   -2.414410
     34          1           0        8.267599    1.312217   -2.710522
     35          1           0        7.009530    2.405879   -2.139216
     36          1           0        6.713462    1.379956   -3.538387
 ---------------------------------------------------------------------

 SCF Done:  E(UB3LYP) =  -846.319980316     A.U. after    1 cycles

 Alpha  occ. eigenvalues --  -18.94089 -18.94015 -10.09061 -10.08998 -10.06982
 Alpha  occ. eigenvalues --  -10.06982 -10.06898 -10.06897 -10.06451 -10.06451
 Alpha  occ. eigenvalues --  -10.06385 -10.06385 -10.04445 -10.04445 -10.04438
 Alpha  occ. eigenvalues --  -10.04438 -10.04350 -10.04350 -10.04281 -10.04281
 Alpha  occ. eigenvalues --   -0.86672  -0.86389  -0.74360  -0.73904  -0.68487
 Alpha  occ. eigenvalues --   -0.65608  -0.65257  -0.65243  -0.59654  -0.59317
 Alpha  occ. eigenvalues --   -0.58953  -0.55855  -0.52144  -0.49569  -0.46885
 Alpha  occ. eigenvalues --   -0.46810  -0.43126  -0.39155  -0.38736  -0.36632
 Alpha  occ. eigenvalues --   -0.34815  -0.33110  -0.33032  -0.32987  -0.32670
 Alpha  occ. eigenvalues --   -0.30923  -0.30918  -0.30535  -0.30044  -0.29919
 Alpha  occ. eigenvalues --   -0.29575  -0.28598  -0.28314  -0.28166  -0.27472
 Alpha  occ. eigenvalues --   -0.26727  -0.26179  -0.24787  -0.24393  -0.22814
 Alpha  occ. eigenvalues --   -0.22119  -0.21971  -0.20533  -0.19983  -0.13232
 Alpha  occ. eigenvalues --   -0.12990  -0.12544  -0.11540  -0.11062  -0.10191
 Alpha  occ. eigenvalues --   -0.00862
 Alpha virt. eigenvalues --    0.07008   0.07008   0.07031   0.08914   0.08969
 Alpha virt. eigenvalues --    0.09939   0.10124   0.10511   0.10624   0.11101
 Alpha virt. eigenvalues --    0.11989   0.12271   0.12365   0.12743   0.12757

  Beta  occ. eigenvalues --  -18.93500 -18.93424 -10.08918 -10.08854 -10.06987
  Beta  occ. eigenvalues --  -10.06987 -10.06901 -10.06901 -10.06403 -10.06403
  Beta  occ. eigenvalues --  -10.06330 -10.06330 -10.04448 -10.04448 -10.04443
  Beta  occ. eigenvalues --  -10.04443 -10.04266 -10.04264 -10.04193 -10.04193
  Beta  occ. eigenvalues --   -0.85665  -0.85351  -0.74155  -0.73797  -0.68133
  Beta  occ. eigenvalues --   -0.65504  -0.65165  -0.65120  -0.59352  -0.59144
  Beta  occ. eigenvalues --   -0.58889  -0.55732  -0.51521  -0.49489  -0.46772
  Beta  occ. eigenvalues --   -0.46639  -0.42865  -0.38934  -0.38629  -0.36520
  Beta  occ. eigenvalues --   -0.34764  -0.33001  -0.32946  -0.32743  -0.32532
  Beta  occ. eigenvalues --   -0.30869  -0.30866  -0.30499  -0.29994  -0.29828
  Beta  occ. eigenvalues --   -0.29441  -0.28300  -0.28152  -0.27334  -0.26867
  Beta  occ. eigenvalues --   -0.26649  -0.25965  -0.24653  -0.22522  -0.22083
  Beta  occ. eigenvalues --   -0.22054  -0.21835  -0.20338  -0.18773  -0.12666
  Beta  occ. eigenvalues --   -0.11599  -0.11040  -0.10997  -0.10516  -0.09642
  Beta virt. eigenvalues --    0.05043   0.07005   0.07028   0.07770   0.08911
  Beta virt. eigenvalues --    0.08965   0.10159   0.10555   0.10624   0.10700
  Beta virt. eigenvalues --    0.11093   0.12274   0.12281   0.12447   0.12744

 Mulliken charges and spin densities:
               1          2
     1  C   -0.192622   0.011876
     2  C   -0.271735   0.035963
     3  C    0.347027   0.041148
     4  C    0.236969   0.014141
     5  C    0.361896   0.051961
     6  C    0.122081   0.053671
     7  C   -0.881646   0.076638
     8  C    0.122060   0.053676
     9  C    0.361796   0.051956
    10  C   -0.713600   0.068912
    11  C   -0.192770   0.011874
    12  C   -0.271615   0.035954
    13  C    0.347018   0.041150
    14  C    0.237068   0.014143
    15  O   -0.363174   0.220827
    16  O   -0.368030   0.219806
    17  C   -0.565300  -0.004619
    18  C   -0.489676  -0.002712
    19  C   -0.565275  -0.004621
    20  C   -0.489693  -0.002713
    21  H    0.116200  -0.001798
    22  H    0.140319  -0.001113
    23  H    0.116204  -0.001796
    24  H    0.140321  -0.001115
    25  H    0.155917   0.000140
    26  H    0.130934   0.002552
    27  H    0.130933   0.002549
    28  H    0.134761   0.000157
    29  H    0.152760   0.001498
    30  H    0.152778   0.001499
    31  H    0.155916   0.000140
    32  H    0.130942   0.002550
    33  H    0.130932   0.002551
    34  H    0.134754   0.000157
    35  H    0.152790   0.001500
    36  H    0.152759   0.001497
 Sum of Mulliken charges =  -1.00000   1.00000

 Dipole moment (field-independent basis, Debye):
    X=            -19.7736    Y=              7.9163    Z=             -1.6277  Tot=             21.3615
 Quadrupole moment (field-independent basis, Debye-Ang):
   XX=           -223.2278   YY=           -154.8066   ZZ=           -132.7494
   XY=             41.3643   XZ=             -9.6573   YZ=             12.8790

  Exact polarizability: 366.414  41.587 241.005 -81.262 -92.953 211.659
 Approx polarizability: 533.231   2.648 401.939 -71.140-144.489 326.830

 ******    2 imaginary frequencies (negative Signs) ******

                      1                      2                      3
                      A                      A                      A
 Frequencies --   -164.2590              -163.9980                38.1138
 Red. masses --      1.0223                 1.0224                 4.9836
 Frc consts  --      0.0163                 0.0162                 0.0043
 IR Inten    --      0.0254                 0.0278                 5.9524

                      4                      5                      6
                      A                      A                      A
 Frequencies --     65.1366                90.5076               132.8767
 Red. masses --      3.1093                 4.2295                 6.6938
 Frc consts  --      0.0078                 0.0204                 0.0696
 IR Inten    --      0.0000                 0.0001                 2.5495

                      7                      8                      9
                      A                      A                      A
 Frequencies --    136.2654               143.0903               187.7356
 Red. masses --      3.4734                 3.8983                 1.0751
 Frc consts  --      0.0380                 0.0470                 0.0223
 IR Inten    --      0.0033                 4.5060                 0.3022

                     10                     11                     12
                      A                      A                      A
 Frequencies --    191.4037               222.0304               226.5277
 Red. masses --      1.1043                 3.3724                 4.9624
 Frc consts  --      0.0238                 0.0980                 0.1500
 IR Inten    --      0.0073                 0.0000                 0.0443

                     13                     14                     15
                      A                      A                      A
 Frequencies --    229.9976               278.5737               289.4950
 Red. masses --      4.0855                 3.5993                 4.1777
 Frc consts  --      0.1273                 0.1646                 0.2063
 IR Inten    --      0.0041                 0.0143                 9.6249

                     16                     17                     18
                      A                      A                      A
 Frequencies --    312.6415               338.2211               352.1733
 Red. masses --      2.7468                 3.4407                 6.0817
 Frc consts  --      0.1582                 0.2319                 0.4444
 IR Inten    --      3.2224                 0.0261                 0.3703

                     19                     20                     21
                      A                      A                      A
 Frequencies --    361.4106               364.1455               380.6249
 Red. masses --      4.4425                 8.8268                 3.7006
 Frc consts  --      0.3419                 0.6896                 0.3159
 IR Inten    --      0.0005                 4.2870                 5.5650

                     22                     23                     24
                      A                      A                      A
 Frequencies --    436.6413               468.7168               477.0068
 Red. masses --      3.0070                 3.1373                 7.2047
 Frc consts  --      0.3378                 0.4061                 0.9659
 IR Inten    --      8.8879                 0.0000                 0.0104

                     25                     26                     27
                      A                      A                      A
 Frequencies --    486.8263               492.1842               565.3855
 Red. masses --     12.9660                 3.4599                 3.6275
 Frc consts  --      1.8105                 0.4938                 0.6832
 IR Inten    --      0.0096                 1.3816                 9.7115

                     28                     29                     30
                      A                      A                      A
 Frequencies --    588.2902               599.5955               603.3913
 Red. masses --      4.9981                 5.8407                 5.9679
 Frc consts  --      1.0192                 1.2372                 1.2802
 IR Inten    --      0.0000                 4.8677                 2.2984

                     31                     32                     33
                      A                      A                      A
 Frequencies --    666.4247               718.5204               722.2203
 Red. masses --      4.0118                 6.5624                 6.1910
 Frc consts  --      1.0498                 1.9961                 1.9026
 IR Inten    --      0.0169                 2.1226                 8.2340

                     34                     35                     36
                      A                      A                      A
 Frequencies --    726.1048               730.7563               740.1048
 Red. masses --      3.8823                 5.9547                 4.8387
 Frc consts  --      1.2060                 1.8735                 1.5616
 IR Inten    --      0.0004                14.2457                19.4926

                     37                     38                     39
                      A                      A                      A
 Frequencies --    757.9071               794.5932               815.4797
 Red. masses --      3.5737                 6.0936                 4.6180
 Frc consts  --      1.2095                 2.2668                 1.8094
 IR Inten    --      0.0570                 0.3005                 0.0119

                     40                     41                     42
                      A                      A                      A
 Frequencies --    924.2092               929.6939               931.0180
 Red. masses --      1.3313                 1.3222                 1.4390
 Frc consts  --      0.6700                 0.6733                 0.7349
 IR Inten    --      0.0028                 0.0046                10.6103

                     43                     44                     45
                      A                      A                      A
 Frequencies --    935.8883               964.2042              1007.9245
 Red. masses --      1.4085                 2.1633                 1.4387
 Frc consts  --      0.7269                 1.1849                 0.8611
 IR Inten    --     15.6696                 0.4956                 2.5748

                     46                     47                     48
                      A                      A                      A
 Frequencies --   1014.0110              1019.1122              1030.4732
 Red. masses --      2.0471                 1.5278                 1.7017
 Frc consts  --      1.2401                 0.9349                 1.0646
 IR Inten    --      5.6029                25.9558                 0.0006

                     49                     50                     51
                      A                      A                      A
 Frequencies --   1038.7501              1043.3455              1043.8809
 Red. masses --      2.7716                 1.4406                 1.4452
 Frc consts  --      1.7620                 0.9239                 0.9279
 IR Inten    --      3.2152                 0.0003                 8.0297

                     52                     53                     54
                      A                      A                      A
 Frequencies --   1057.8303              1057.9365              1143.8077
 Red. masses --      1.5366                 1.5383                 5.8577
 Frc consts  --      1.0131                 1.0144                 4.5153
 IR Inten    --      0.7405                 0.1153                 4.1879

                     55                     56                     57
                      A                      A                      A
 Frequencies --   1163.3079              1175.5568              1200.8103
 Red. masses --      1.5627                 2.5414                 5.6936
 Frc consts  --      1.2460                 2.0692                 4.8371
 IR Inten    --      0.1355                17.6851                33.7130

                     58                     59                     60
                      A                      A                      A
 Frequencies --   1227.4460              1246.8244              1261.0659
 Red. masses --      2.8628                 4.7859                 2.7686
 Frc consts  --      2.5412                 4.3835                 2.5941
 IR Inten    --      0.0234                28.4996                14.6769

                     61                     62                     63
                      A                      A                      A
 Frequencies --   1264.1020              1273.5135              1355.1709
 Red. masses --      1.9625                 1.7326                 7.4047
 Frc consts  --      1.8477                 1.6556                 8.0121
 IR Inten    --     19.0323                 3.4752                 1.3004

                     64                     65                     66
                      A                      A                      A
 Frequencies --   1359.1636              1376.9832              1398.9217
 Red. masses --      7.8422                 2.6117                 1.2524
 Frc consts  --      8.5355                 2.9176                 1.4440
 IR Inten    --     25.7074               251.4585                 0.1551

                     67                     68                     69
                      A                      A                      A
 Frequencies --   1407.1366              1407.7608              1408.9299
 Red. masses --      1.4966                 1.2276                 1.3895
 Frc consts  --      1.7460                 1.4334                 1.6251
 IR Inten    --     18.1517                16.3589                 9.3906

                     70                     71                     72
                      A                      A                      A
 Frequencies --   1464.0104              1477.6342              1478.5115
 Red. masses --      4.6816                 1.3974                 1.4548
 Frc consts  --      5.9120                 1.7976                 1.8737
 IR Inten    --      0.0002                 0.0047                 5.0810

                     73                     74                     75
                      A                      A                      A
 Frequencies --   1480.2863              1480.3082              1488.6685
 Red. masses --      1.0457                 1.0455                 2.2997
 Frc consts  --      1.3500                 1.3498                 3.0027
 IR Inten    --      2.5358                14.4777               140.7223

                     76                     77                     78
                      A                      A                      A
 Frequencies --   1492.6098              1498.1899              1498.2605
 Red. masses --      1.6440                 1.0452                 1.0452
 Frc consts  --      2.1579                 1.3823                 1.3824
 IR Inten    --    203.0303                 0.0066                 0.0130

                     79                     80                     81
                      A                      A                      A
 Frequencies --   1506.3465              1506.6553              1518.7828
 Red. masses --      1.1838                 2.9478                 2.3013
 Frc consts  --      1.5827                 3.9425                 3.1277
 IR Inten    --      5.3906                15.1376               489.1762

                     82                     83                     84
                      A                      A                      A
 Frequencies --   1526.5197              1541.9289              1609.7553
 Red. masses --      3.6343                 3.8335                 9.6834
 Frc consts  --      4.9897                 5.3700                14.7841
 IR Inten    --      1.7831                43.7399                 0.0970

                     85                     86                     87
                      A                      A                      A
 Frequencies --   1629.0909              1641.9977              2994.1966
 Red. masses --      6.2255                 7.0581                 1.0396
 Frc consts  --      9.7346                11.2120                 5.4916
 IR Inten    --      1.1589                 3.5338               249.6209

                     88                     89                     90
                      A                      A                      A
 Frequencies --   2994.7296              3008.8459              3009.2584
 Red. masses --      1.0396                 1.0407                 1.0408
 Frc consts  --      5.4934                 5.5509                 5.5530
 IR Inten    --     14.8437               161.8984                44.9065

                     91                     92                     93
                      A                      A                      A
 Frequencies --   3029.8475              3029.9161              3045.6563
 Red. masses --      1.0996                 1.0996                 1.1001
 Frc consts  --      5.9474                 5.9477                 6.0122
 IR Inten    --     26.1002                49.9753                 9.1762

                     94                     95                     96
                      A                      A                      A
 Frequencies --   3045.6874              3086.8389              3086.8878
 Red. masses --      1.1001                 1.0960                 1.0960
 Frc consts  --      6.0123                 6.1531                 6.1533
 IR Inten    --     49.1691                 9.3000                45.6753

                     97                     98                     99
                      A                      A                      A
 Frequencies --   3101.8792              3102.0681              3157.6487
 Red. masses --      1.0945                 1.0945                 1.0888
 Frc consts  --      6.2049                 6.2053                 6.3965
 IR Inten    --     40.5712                25.3719                14.2982

                    100                    101                    102
                      A                      A                      A
 Frequencies --   3158.1407              3165.6692              3166.2992
 Red. masses --      1.0891                 1.0889                 1.0892
 Frc consts  --      6.3998                 6.4296                 6.4336
 IR Inten    --     12.2509                21.1460                 7.5262

 - Thermochemistry -
 -------------------
 Temperature   298.150 Kelvin.  Pressure   1.00000 Atm.
 Atom     1 has atomic number  6 and mass  12.00000

 Molecular mass:   264.11503 amu.
 Principal axes and moments of inertia in atomic units:
                           1         2         3
     Eigenvalues --  2202.018319241.99157**********
           X            0.79783  -0.57901   0.16799
           Y            0.39316   0.71092   0.58312
           Z           -0.45706  -0.39918   0.79483
 This molecule is an asymmetric top.
 Rotational symmetry number  1.
 Warning -- assumption of classical behavior for rotation
           may cause significant error
 Rotational temperatures (Kelvin)      0.03933     0.00937     0.00760
 Rotational constants (GHZ):           0.81959     0.19528     0.15832
    2 imaginary frequencies ignored.
 Zero-point vibrational energy     750196.3 (Joules/Mol)
                                  179.30122 (Kcal/Mol)
 Warning -- explicit consideration of  28 degrees of freedom as
           vibrations may cause significant error
 Vibrational temperatures:     54.84    93.72   130.22   191.18   196.06
          (Kelvin)            205.88   270.11   275.39   319.45   325.92
                              330.92   400.81   416.52   449.82   486.62
                              506.70   519.99   523.92   547.63   628.23
                              674.38   686.31   700.43   708.14   813.46
                              846.42   862.68   868.15   958.84  1033.79
                             1039.11  1044.70  1051.40  1064.85  1090.46
                             1143.24  1173.29  1329.73  1337.62  1339.53
                             1346.53  1387.27  1450.18  1458.94  1466.28
                             1482.62  1494.53  1501.14  1501.91  1521.98
                             1522.13  1645.68  1673.74  1691.36  1727.70
                             1766.02  1793.90  1814.39  1818.76  1832.30
                             1949.79  1955.53  1981.17  2012.74  2024.56
                             2025.45  2027.14  2106.38  2125.99  2127.25
                             2129.80  2129.83  2141.86  2147.53  2155.56
                             2155.66  2167.30  2167.74  2185.19  2196.32
                             2218.49  2316.08  2343.90  2362.47  4307.98
                             4308.75  4329.06  4329.65  4359.27  4359.37
                             4382.02  4382.06  4441.27  4441.34  4462.91
                             4463.18  4543.15  4543.86  4554.69  4555.60

 Zero-point correction=                           0.285735 (Hartree/Particle)
 Thermal correction to Energy=                    0.302319
 Thermal correction to Enthalpy=                  0.303263
 Thermal correction to Gibbs Free Energy=         0.241619
 Sum of electronic and zero-point Energies=           -846.034246
 Sum of electronic and thermal Energies=              -846.017662
 Sum of electronic and thermal Enthalpies=            -846.016717
 Sum of electronic and thermal Free Energies=         -846.078361

                     E (Thermal)             CV                S
                      KCal/Mol        Cal/Mol-Kelvin    Cal/Mol-Kelvin
 Total                  189.708             66.203            129.740
 Electronic               0.000              0.000              1.377
 Translational            0.889              2.981             42.613
 Rotational               0.889              2.981             33.805
 Vibrational            187.930             60.241             51.944
 Vibration     1          0.594              1.982              5.355
 Vibration     2          0.597              1.971              4.295
 Vibration     3          0.602              1.956              3.649
 Vibration     4          0.613              1.920              2.904
 Vibration     5          0.614              1.917              2.856
 Vibration     6          0.616              1.910              2.762
 Vibration     7          0.632              1.857              2.250
 Vibration     8          0.634              1.852              2.214
 Vibration     9          0.648              1.808              1.942
 Vibration    10          0.650              1.801              1.906
 Vibration    11          0.652              1.795              1.879
 Vibration    12          0.679              1.713              1.542
 Vibration    13          0.686              1.693              1.477
 Vibration    14          0.701              1.650              1.348
 Vibration    15          0.719              1.599              1.221
 Vibration    16          0.729              1.571              1.156
 Vibration    17          0.736              1.552              1.116
 Vibration    18          0.738              1.546              1.104
 Vibration    19          0.750              1.511              1.037
 Vibration    20          0.797              1.390              0.837
 Vibration    21          0.826              1.319              0.741
 Vibration    22          0.834              1.301              0.718
 Vibration    23          0.843              1.279              0.692
 Vibration    24          0.848              1.267              0.678
 Vibration    25          0.921              1.106              0.513
 Vibration    26          0.945              1.057              0.470
 Vibration    27          0.958              1.033              0.450
 Vibration    28          0.962              1.025              0.444

 Optimization completed.
    -- Stationary point found.
 Normal termination of Gaussian 16 at Thu Dec 21 09:17:45 2023.
