 Q-Chem 5.4, Q-Chem, Inc., Pleasanton, CA (2021)
 Q-Chem 5.4.0 for Intel X86 EM64T Linux

User input:
--------------------------------------------------------------
$molecule
0 1
C                  0.0795060000     -0.9041360000      1.4456310000
C                 -0.0725650000     -0.8068880000     -0.0488930000
C                 -0.7275940000     -1.7754970000     -0.7139630000
C                 -1.3746920000     -2.9126420000     -0.0234140000
C                 -1.2933770000     -2.9512240000      1.4572450000
C                 -0.6218390000     -2.0128640000      2.1351900000
O                  0.7834030000     -0.1265330000      2.0632440000
O                 -1.9588190000     -3.7831530000     -0.6493620000
C                  0.6148250000      0.3059100000     -0.7491970000
H                 -1.7968000000     -3.7796980000      1.9429880000
H                 -0.8451130000     -1.7544530000     -1.7918680000
H                 -0.5308860000     -2.0202420000      3.2156030000
C                  0.4068140000      1.6669970000     -0.4748020000
C                  1.1210670000      2.6720500000     -1.1163590000
C                  2.0653520000      2.3336300000     -2.0788570000
C                  2.2884580000      0.9933180000     -2.3822280000
C                  1.5765300000     -0.0027770000     -1.7189530000
N                 -0.6419670000      2.0984860000      0.4765530000
O                 -0.5523570000      3.2208840000      0.9496870000
O                 -1.5546870000      1.3138540000      0.7111150000
H                  0.9181740000      3.7026450000     -0.8598510000
H                  2.6189160000      3.1132090000     -2.5877820000
H                  3.0241220000      0.7181170000     -3.1288810000
H                  1.7803770000     -1.0450410000     -1.9326180000
$end
$rem
MAX_SCF_CYCLES=200
BASIS  =  6-311++G(d,p)
GUI  =  2
JOB_TYPE  =  SP
METHOD  =  B3LYP
SOLVENT_METHOD = COSMO
$end
$solvent
dielectric 37.219
opticaldielectric 1.43
$end

--------------------------------------------------------------

             Standard Nuclear Orientation (Angstroms)
    I     Atom           X                Y                Z
 ----------------------------------------------------------------
    1      C       1.1655626763    -0.7489517970     1.0193790067
    2      C       0.7069938574     0.3499666972     0.0983591748
    3      C       1.6170919935     1.0616188799    -0.5907395440
    4      C       3.0647165133     0.7615247130    -0.5357919818
    5      C       3.4963077381    -0.3801756308     0.3072389273
    6      C       2.6097206895    -1.0821921789     1.0229402404
    7      O       0.3885094972    -1.3178877966     1.7637468022
    8      O       3.8726237694     1.4255954920    -1.1659511030
    9      C      -0.7382843040     0.6845659338     0.0768073677
   10      H       4.5586441277    -0.5973653143     0.3117316302
   11      H       1.3322040014     1.8730862790    -1.2514151424
   12      H       2.8939988548    -1.9121869375     1.6600538559
   13      C      -1.7606008278    -0.2262366645    -0.2337189048
   14      C      -3.1056963435     0.1198174041    -0.1803438133
   15      C      -3.4660849382     1.4148498249     0.1740793057
   16      C      -2.4762709247     2.3455732469     0.4778368384
   17      C      -1.1335846766     1.9789568728     0.4358067869
   18      N      -1.4429366868    -1.5948325068    -0.6998042972
   19      O      -2.3179989110    -2.4422226262    -0.6111527681
   20      O      -0.3291201497    -1.7898328825    -1.1742640753
   21      H      -3.8475775274    -0.6267938881    -0.4278753566
   22      H      -4.5125237803     1.6921764477     0.2092484554
   23      H      -2.7460569732     3.3570848941     0.7579930257
   24      H      -0.3694742631     2.6967047647     0.7087423417
 ----------------------------------------------------------------

   10    -817.2297230170      5.46e-06  Convergence criterion met
 Total energy in the final basis set =     -817.2297230170
    6    -817.2516018069      3.95e-06  Convergence criterion met
 Total energy in the final basis set =     -817.2516018069

                    Orbital Energies (a.u.)
 --------------------------------------------------------------

 Alpha MOs
 -- Occupied --
-19.1836 -19.1830 -19.1517 -19.1476 -14.5762 -10.2979 -10.2919 -10.2557
-10.2354 -10.2315 -10.2153 -10.2144 -10.2133 -10.2096 -10.2050 -10.2034
-10.2012  -1.2616  -1.0893  -1.0838  -1.0773  -0.9118  -0.8713  -0.8225
 -0.8191  -0.7716  -0.7249  -0.7094  -0.6628  -0.6295  -0.6276  -0.6049
 -0.5745  -0.5633  -0.5451  -0.5324  -0.5258  -0.5110  -0.4917  -0.4905
 -0.4705  -0.4608  -0.4548  -0.4532  -0.4399  -0.4289  -0.4175  -0.4012
 -0.3965  -0.3825  -0.3477  -0.3443  -0.3323  -0.3176  -0.3088  -0.3006
 -0.2916  -0.2875  -0.2788

          Ground-State Mulliken Net Atomic Charges

     Atom                 Charge (a.u.)
  ----------------------------------------
      1 C                    -1.258340
      2 C                     1.735691
      3 C                    -0.336382
      4 C                    -0.312958
      5 C                     0.093614
      6 C                    -0.101419
      7 O                    -0.254505
      8 O                    -0.311329
      9 C                     0.894588
     10 H                     0.269580
     11 H                     0.277043
     12 H                     0.268731
     13 C                    -0.202334
     14 C                    -0.079329
     15 C                    -0.387502
     16 C                    -0.435997
     17 C                    -0.562984
     18 N                    -0.234006
     19 O                    -0.019558
     20 O                    -0.035040
     21 H                     0.278378
     22 H                     0.234322
     23 H                     0.236884
     24 H                     0.242854
  ----------------------------------------
  Sum of atomic charges =     0.000000

                    Cartesian Multipole Moments
 -----------------------------------------------------------------
    Charge (ESU x 10^10)
                 0.0000
    Dipole Moment (Debye)
         X      -2.3182      Y       5.3578      Z       1.7793
       Tot       6.1030
    Quadrupole Moments (Debye-Ang)
        XX     -87.6570     XY     -22.5969     YY    -100.4115
        XZ       9.7136     YZ       2.9168     ZZ    -103.9347

 Total job time:  65.49s(wall), 380.48s(cpu)
        *  Thank you very much for using Q-Chem.  Have a nice day.  *
