 Gaussian 16, Revision A.03,
 Gaussian 16:  ES64L-G16RevA.03 25-Dec-2016

 --------------------------------------
 #P UB3LYP/6-311++G(d,p) nosym opt freq
 --------------------------------------

 --------
 Oxidized
 --------
 Symbolic Z-matrix:
 Charge =  0 Multiplicity = 1

 SCF Done:  E(UB3LYP) =  -817.229791071     A.U. after   17 cycles
 Optimization completed.
    -- Stationary point found.
 Normal termination of Gaussian 16 at Wed Jan 10 16:51:40 2024.

 ----------------------------------------------------------------------
 #P Geom=AllCheck Guess=TCheck SCRF=Check GenChk UB3LYP/6-311++G(d,p) F
 req
 ----------------------------------------------------------------------

 Structure from the checkpoint file:  "099.chk"
 --------
 Oxidized
 --------
 Charge =  0 Multiplicity = 1

                          Input orientation:
 ---------------------------------------------------------------------
 Center     Atomic      Atomic             Coordinates (Angstroms)
 Number     Number       Type             X           Y           Z
 ---------------------------------------------------------------------
      1          6           0        0.079506   -0.904136    1.445631
      2          6           0       -0.072565   -0.806888   -0.048893
      3          6           0       -0.727594   -1.775497   -0.713963
      4          6           0       -1.374692   -2.912642   -0.023414
      5          6           0       -1.293377   -2.951224    1.457245
      6          6           0       -0.621839   -2.012864    2.135190
      7          8           0        0.783403   -0.126533    2.063244
      8          8           0       -1.958819   -3.783153   -0.649362
      9          6           0        0.614825    0.305910   -0.749197
     10          1           0       -1.796800   -3.779698    1.942988
     11          1           0       -0.845113   -1.754453   -1.791868
     12          1           0       -0.530886   -2.020242    3.215603
     13          6           0        0.406814    1.666997   -0.474802
     14          6           0        1.121067    2.672050   -1.116359
     15          6           0        2.065352    2.333630   -2.078857
     16          6           0        2.288458    0.993318   -2.382228
     17          6           0        1.576530   -0.002777   -1.718953
     18          7           0       -0.641967    2.098486    0.476553
     19          8           0       -0.552357    3.220884    0.949687
     20          8           0       -1.554687    1.313854    0.711115
     21          1           0        0.918174    3.702645   -0.859851
     22          1           0        2.618916    3.113209   -2.587782
     23          1           0        3.024122    0.718117   -3.128881
     24          1           0        1.780377   -1.045041   -1.932618
 ---------------------------------------------------------------------

 SCF Done:  E(UB3LYP) =  -817.229791071     A.U. after    2 cycles

 Alpha  occ. eigenvalues --  -19.17538 -19.17498 -19.14919 -19.14474 -14.56966
 Alpha  occ. eigenvalues --  -10.29753 -10.29125 -10.26344 -10.24169 -10.24136
 Alpha  occ. eigenvalues --  -10.22328 -10.22236 -10.22168 -10.22051 -10.22034
 Alpha  occ. eigenvalues --  -10.21967 -10.21754  -1.25383  -1.08315  -1.07881
 Alpha  occ. eigenvalues --   -1.07381  -0.92125  -0.87769  -0.83145  -0.82718
 Alpha  occ. eigenvalues --   -0.78264  -0.73052  -0.71469  -0.67232  -0.63791
 Alpha  occ. eigenvalues --   -0.63547  -0.60730  -0.57721  -0.55870  -0.53882
 Alpha  occ. eigenvalues --   -0.53530  -0.53138  -0.51608  -0.50063  -0.49735
 Alpha  occ. eigenvalues --   -0.48205  -0.47275  -0.45649  -0.45534  -0.44079
 Alpha  occ. eigenvalues --   -0.42690  -0.42611  -0.41181  -0.40931  -0.39754
 Alpha  occ. eigenvalues --   -0.34296  -0.33417  -0.32644  -0.31920  -0.31292
 Alpha  occ. eigenvalues --   -0.30036  -0.29638  -0.29000  -0.28486
 Alpha virt. eigenvalues --   -0.14234  -0.11277  -0.06262  -0.04348  -0.02598
 Alpha virt. eigenvalues --   -0.01870  -0.00971  -0.00397   0.00180   0.01116
 Alpha virt. eigenvalues --    0.01913   0.02446   0.03410   0.03797   0.04531

  Beta  occ. eigenvalues --  -19.17538 -19.17498 -19.14919 -19.14474 -14.56966
  Beta  occ. eigenvalues --  -10.29753 -10.29125 -10.26344 -10.24169 -10.24136
  Beta  occ. eigenvalues --  -10.22328 -10.22236 -10.22168 -10.22051 -10.22034
  Beta  occ. eigenvalues --  -10.21967 -10.21754  -1.25383  -1.08315  -1.07881
  Beta  occ. eigenvalues --   -1.07381  -0.92125  -0.87769  -0.83145  -0.82718
  Beta  occ. eigenvalues --   -0.78264  -0.73052  -0.71469  -0.67232  -0.63791
  Beta  occ. eigenvalues --   -0.63547  -0.60730  -0.57721  -0.55870  -0.53882
  Beta  occ. eigenvalues --   -0.53530  -0.53138  -0.51608  -0.50063  -0.49735
  Beta  occ. eigenvalues --   -0.48205  -0.47275  -0.45649  -0.45534  -0.44079
  Beta  occ. eigenvalues --   -0.42690  -0.42611  -0.41181  -0.40931  -0.39754
  Beta  occ. eigenvalues --   -0.34296  -0.33417  -0.32644  -0.31920  -0.31292
  Beta  occ. eigenvalues --   -0.30036  -0.29638  -0.29000  -0.28486
  Beta virt. eigenvalues --   -0.14234  -0.11277  -0.06262  -0.04348  -0.02598
  Beta virt. eigenvalues --   -0.01870  -0.00971  -0.00397   0.00180   0.01116
  Beta virt. eigenvalues --    0.01913   0.02446   0.03410   0.03797   0.04531

 Mulliken charges and spin densities:
               1          2
     1  C   -1.302307   0.000000
     2  C    1.767856   0.000000
     3  C   -0.369289  -0.000000
     4  C   -0.429578   0.000000
     5  C    0.118840  -0.000000
     6  C   -0.029896   0.000000
     7  O   -0.179185  -0.000000
     8  O   -0.220871  -0.000000
     9  C    0.926723   0.000000
    10  H    0.227408   0.000000
    11  H    0.238834   0.000000
    12  H    0.227708   0.000000
    13  C   -0.162541   0.000000
    14  C   -0.093963  -0.000000
    15  C   -0.352385   0.000000
    16  C   -0.389105   0.000000
    17  C   -0.576390  -0.000000
    18  N   -0.292093  -0.000000
    19  O    0.048993   0.000000
    20  O    0.021952  -0.000000
    21  H    0.251995  -0.000000
    22  H    0.184493   0.000000
    23  H    0.186056   0.000000
    24  H    0.196745  -0.000000
 Sum of Mulliken charges =  -0.00000  -0.00000

 Dipole moment (field-independent basis, Debye):
    X=              3.3151    Y=             -0.3512    Z=             -2.7891  Tot=              4.3465
 Quadrupole moment (field-independent basis, Debye-Ang):
   XX=            -98.8160   YY=           -102.9613   ZZ=            -91.4176
   XY=              0.8746   XZ=            -10.7327   YZ=            -16.4303

  Exact polarizability: 140.682  45.530 201.713 -23.999   5.528 149.228
 Approx polarizability: 242.564  91.103 350.457 -13.171  57.051 244.108

                      1                      2                      3
                      A                      A                      A
 Frequencies --     37.1292                65.4063                67.2120
 Red. masses --     10.8476                 9.3207                 5.7067
 Frc consts  --      0.0088                 0.0235                 0.0152
 IR Inten    --      0.6710                 3.6175                 4.3741

                      4                      5                      6
                      A                      A                      A
 Frequencies --     83.7981               120.3981               148.1186
 Red. masses --      6.1694                 8.8838                 6.5325
 Frc consts  --      0.0255                 0.0759                 0.0844
 IR Inten    --      2.6297                 3.5593                 0.2016

                      7                      8                      9
                      A                      A                      A
 Frequencies --    187.3276               233.5162               261.4992
 Red. masses --      7.3476                 6.4273                 6.9409
 Frc consts  --      0.1519                 0.2065                 0.2796
 IR Inten    --      3.7396                 0.7196                 7.5157

                     10                     11                     12
                      A                      A                      A
 Frequencies --    276.2787               312.2195               389.9155
 Red. masses --      5.4205                 5.6132                 8.3779
 Frc consts  --      0.2438                 0.3224                 0.7505
 IR Inten    --      0.4048                 1.4573                 4.0648

                     13                     14                     15
                      A                      A                      A
 Frequencies --    420.6985               428.1177               455.8516
 Red. masses --      3.9221                 8.8149                 5.3265
 Frc consts  --      0.4090                 0.9519                 0.6521
 IR Inten    --      0.6981                21.6848                 2.6364

                     16                     17                     18
                      A                      A                      A
 Frequencies --    473.3668               502.9397               554.8147
 Red. masses --      6.0408                 4.5000                 5.5352
 Frc consts  --      0.7975                 0.6707                 1.0039
 IR Inten    --      1.4731                 0.6076                 6.4973

                     19                     20                     21
                      A                      A                      A
 Frequencies --    559.2697               624.8140               631.7241
 Red. masses --      4.5620                 5.5777                 3.0527
 Frc consts  --      0.8407                 1.2829                 0.7178
 IR Inten    --      1.7936                 1.0159                 3.0587

                     22                     23                     24
                      A                      A                      A
 Frequencies --    670.2146               713.0519               716.0040
 Red. masses --      6.4379                 4.5683                 6.8506
 Frc consts  --      1.7038                 1.3685                 2.0692
 IR Inten    --      1.3442                16.5367                 7.8739

                     25                     26                     27
                      A                      A                      A
 Frequencies --    749.5621               791.8973               801.0109
 Red. masses --      2.3770                 3.2244                 2.0266
 Frc consts  --      0.7868                 1.1914                 0.7661
 IR Inten    --     27.8583                 2.3623                18.1315

                     28                     29                     30
                      A                      A                      A
 Frequencies --    807.9278               844.0432               851.1426
 Red. masses --      4.3647                 5.3836                 2.2229
 Frc consts  --      1.6786                 2.2597                 0.9488
 IR Inten    --      2.8652                15.2348                19.9185

                     31                     32                     33
                      A                      A                      A
 Frequencies --    876.0879               902.0281               938.7559
 Red. masses --      7.6138                 1.5113                 1.5781
 Frc consts  --      3.4431                 0.7245                 0.8194
 IR Inten    --     14.6142                 4.5345                38.5366

                     34                     35                     36
                      A                      A                      A
 Frequencies --    982.5611               989.8295              1011.2969
 Red. masses --      1.5328                 3.2502                 1.3299
 Frc consts  --      0.8719                 1.8762                 0.8013
 IR Inten    --      3.0157                23.1345                 0.6558

                     37                     38                     39
                      A                      A                      A
 Frequencies --   1019.9171              1064.8775              1094.2226
 Red. masses --      1.2699                 2.5487                 2.7868
 Frc consts  --      0.7783                 1.7028                 1.9660
 IR Inten    --      0.2714                 0.1420                 6.4826

                     40                     41                     42
                      A                      A                      A
 Frequencies --   1112.8451              1163.9961              1188.2088
 Red. masses --      1.6021                 1.8342                 1.1178
 Frc consts  --      1.1690                 1.4642                 0.9298
 IR Inten    --     70.2812                 7.7888                 0.8232

                     43                     44                     45
                      A                      A                      A
 Frequencies --   1205.0028              1258.0044              1284.5029
 Red. masses --      1.9085                 2.0342                 2.2748
 Frc consts  --      1.6327                 1.8967                 2.2114
 IR Inten    --      7.4508                 9.9086                43.1850

                     46                     47                     48
                      A                      A                      A
 Frequencies --   1296.1040              1341.7162              1351.3871
 Red. masses --      2.2898                 4.7439                 2.3432
 Frc consts  --      2.2664                 5.0317                 2.5213
 IR Inten    --     88.4646                10.1035                20.0149

                     49                     50                     51
                      A                      A                      A
 Frequencies --   1373.0720              1390.1999              1469.9047
 Red. masses --     13.6370                 1.9876                 2.2212
 Frc consts  --     15.1480                 2.2633                 2.8276
 IR Inten    --    226.3887                 1.5359                 9.2432

                     52                     53                     54
                      A                      A                      A
 Frequencies --   1506.7349              1583.1465              1609.9599
 Red. masses --      2.6183                10.4363                 5.8021
 Frc consts  --      3.5022                15.4113                 8.8607
 IR Inten    --      9.5252               273.0245                58.4835

                     55                     56                     57
                      A                      A                      A
 Frequencies --   1643.2101              1651.5261              1678.8574
 Red. masses --      7.7361                 7.5834                 9.1875
 Frc consts  --     12.3072                12.1867                15.2572
 IR Inten    --     64.9431                 3.3916                 0.2589

                     58                     59                     60
                      A                      A                      A
 Frequencies --   1721.5806              1730.2680              3177.2072
 Red. masses --      9.5282                11.3911                 1.0871
 Frc consts  --     16.6386                20.0929                 6.4656
 IR Inten    --    289.6143               186.3148                 1.1050

                     61                     62                     63
                      A                      A                      A
 Frequencies --   3178.2552              3181.6586              3189.8017
 Red. masses --      1.0874                 1.0923                 1.0911
 Frc consts  --      6.4717                 6.5145                 6.5407
 IR Inten    --      0.7021                 1.7794                 3.9480

                     64                     65                     66
                      A                      A                      A
 Frequencies --   3195.7348              3198.2799              3220.9762
 Red. masses --      1.0994                 1.0962                 1.0935
 Frc consts  --      6.6153                 6.6065                 6.6839
 IR Inten    --      2.3349                 6.4049                 2.8397

 - Thermochemistry -
 -------------------
 Temperature   298.150 Kelvin.  Pressure   1.00000 Atm.
 Atom     1 has atomic number  6 and mass  12.00000

 Molecular mass:   229.03751 amu.
 Principal axes and moments of inertia in atomic units:
                           1         2         3
     Eigenvalues --  2184.745634906.752596002.05523
           X            0.38860  -0.40402   0.82810
           Y            0.88190   0.42343  -0.20726
           Z           -0.26691   0.81085   0.52085
 This molecule is an asymmetric top.
 Rotational symmetry number  1.
 Warning -- assumption of classical behavior for rotation
           may cause significant error
 Rotational temperatures (Kelvin)      0.03964     0.01765     0.01443
 Rotational constants (GHZ):           0.82606     0.36781     0.30069
 Zero-point vibrational energy     439992.4 (Joules/Mol)
                                  105.16071 (Kcal/Mol)
 Warning -- explicit consideration of  19 degrees of freedom as
           vibrations may cause significant error
 Vibrational temperatures:     53.42    94.11    96.70   120.57   173.23
          (Kelvin)            213.11   269.52   335.98   376.24   397.50
                              449.21   561.00   605.29   615.97   655.87
                              681.07   723.62   798.25   804.66   898.97
                              908.91   964.29  1025.92  1030.17  1078.45
                             1139.36  1152.48  1162.43  1214.39  1224.60
                             1260.50  1297.82  1350.66  1413.69  1424.14
                             1455.03  1467.43  1532.12  1574.34  1601.14
                             1674.73  1709.57  1733.73  1809.99  1848.11
                             1864.80  1930.43  1944.34  1975.54  2000.19
                             2114.86  2167.86  2277.79  2316.37  2364.21
                             2376.18  2415.50  2476.97  2489.47  4571.29
                             4572.80  4577.70  4589.41  4597.95  4601.61
                             4634.27

 Zero-point correction=                           0.167584 (Hartree/Particle)
 Thermal correction to Energy=                    0.181022
 Thermal correction to Enthalpy=                  0.181967
 Thermal correction to Gibbs Free Energy=         0.126294
 Sum of electronic and zero-point Energies=           -817.062207
 Sum of electronic and thermal Energies=              -817.048769
 Sum of electronic and thermal Enthalpies=            -817.047824
 Sum of electronic and thermal Free Energies=         -817.103497

                     E (Thermal)             CV                S
                      KCal/Mol        Cal/Mol-Kelvin    Cal/Mol-Kelvin
 Total                  113.593             51.098            117.173
 Electronic               0.000              0.000              0.000
 Translational            0.889              2.981             42.188
 Rotational               0.889              2.981             32.531
 Vibrational            111.816             45.137             42.453
 Vibration     1          0.594              1.982              5.407
 Vibration     2          0.597              1.971              4.287
 Vibration     3          0.598              1.970              4.233
 Vibration     4          0.601              1.960              3.800
 Vibration     5          0.609              1.932              3.094
 Vibration     6          0.617              1.905              2.696
 Vibration     7          0.632              1.857              2.254
 Vibration     8          0.654              1.790              1.852
 Vibration     9          0.669              1.743              1.652
 Vibration    10          0.678              1.717              1.557
 Vibration    11          0.701              1.650              1.351
 Vibration    12          0.758              1.492              1.000
 Vibration    13          0.783              1.425              0.890
 Vibration    14          0.790              1.409              0.865
 Vibration    15          0.814              1.348              0.778
 Vibration    16          0.830              1.309              0.728
 Vibration    17          0.858              1.243              0.651
 Vibration    18          0.910              1.129              0.534
 Vibration    19          0.915              1.119              0.525

 Optimization completed.
    -- Stationary point found.
 Normal termination of Gaussian 16 at Wed Jan 10 17:16:35 2024.
