 Gaussian 16, Revision A.03,
 Gaussian 16:  ES64L-G16RevA.03 25-Dec-2016

 ---------------------------------------------------------
 #P UB3LYP/genecp SCRF=(PCM,Solvent=n,n-DiMethylFormamide)
 ---------------------------------------------------------

 ------------------
 Radical PCM in DMF
 ------------------
 Symbolic Z-matrix:
 Charge = -1 Multiplicity = 2

                         Standard orientation:
 ---------------------------------------------------------------------
 Center     Atomic      Atomic             Coordinates (Angstroms)
 Number     Number       Type             X           Y           Z
 ---------------------------------------------------------------------
      1          6           0        3.962606   -1.800618    0.000057
      2          6           0        5.287068   -1.411576    0.000049
      3          6           0        5.617898   -0.038871    0.000027
      4          6           0        4.615623    0.910476   -0.000009
      5          6           0        3.253783    0.537258   -0.000027
      6          6           0        2.919921   -0.848003    0.000014
      7          6           0        1.530327   -1.313191   -0.000047
      8          6           0        0.507080   -0.266924   -0.000032
      9          6           0        0.840262    1.119487   -0.000043
     10          6           0        2.227212    1.583215   -0.000026
     11          6           0       -0.854555   -0.650169   -0.000042
     12          6           0       -1.837706    0.310484    0.000009
     13          6           0       -1.531705    1.688597    0.000043
     14          6           0       -0.204670    2.068066   -0.000008
     15          8           0        1.234813   -2.532982   -0.000050
     16          8           0        2.519799    2.804107   -0.000021
     17          1           0        3.679522   -2.846930    0.000049
     18          1           0        4.839826    1.970998    0.000039
     19          1           0       -1.073860   -1.710172   -0.000131
     20          1           0        0.072454    3.116252    0.000031
     21         53           0       -3.886162   -0.274853    0.000010
     22          1           0        6.074484   -2.159409    0.000049
     23          1           0        6.659503    0.268240    0.000078
     24          1           0       -2.321111    2.429831    0.000116
 ---------------------------------------------------------------------

 SCF Done:  E(UB3LYP) =  -986.292500800     A.U. after   20 cycles

 The electronic state is 2-A.
 Alpha  occ. eigenvalues --  -19.07956 -19.07929 -10.22778 -10.22774 -10.22200
 Alpha  occ. eigenvalues --  -10.18470 -10.18230 -10.18075 -10.17926 -10.17792
 Alpha  occ. eigenvalues --  -10.17598 -10.17547 -10.17499 -10.17451 -10.17187
 Alpha  occ. eigenvalues --  -10.17184  -6.84427  -4.86824  -4.85725  -4.85707
 Alpha  occ. eigenvalues --   -1.91636  -1.91269  -1.91265  -1.90313  -1.90313
 Alpha  occ. eigenvalues --   -1.00758  -1.00505  -0.87079  -0.85678  -0.79404
 Alpha  occ. eigenvalues --   -0.76432  -0.75271  -0.74851  -0.69749  -0.66762
 Alpha  occ. eigenvalues --   -0.63904  -0.61377  -0.59301  -0.56076  -0.53683
 Alpha  occ. eigenvalues --   -0.52153  -0.47722  -0.46940  -0.46138  -0.44538
 Alpha  occ. eigenvalues --   -0.43309  -0.42694  -0.42542  -0.41644  -0.41305
 Alpha  occ. eigenvalues --   -0.40423  -0.38444  -0.37780  -0.37111  -0.35354
 Alpha  occ. eigenvalues --   -0.34858  -0.34135  -0.33421  -0.29392  -0.26960
 Alpha  occ. eigenvalues --   -0.26872  -0.26014  -0.25837  -0.25035  -0.24190
 Alpha  occ. eigenvalues --   -0.24066  -0.14542
 Alpha virt. eigenvalues --   -0.05934  -0.03854  -0.02762  -0.00965  -0.00249
 Alpha virt. eigenvalues --    0.00557   0.01328   0.02300   0.02502   0.04201
 Alpha virt. eigenvalues --    0.04503   0.04534   0.04697   0.05076   0.06112

  Beta  occ. eigenvalues --  -19.07397 -19.07381 -10.22612 -10.22599 -10.22144
  Beta  occ. eigenvalues --  -10.18409 -10.18229 -10.17980 -10.17934 -10.17701
  Beta  occ. eigenvalues --  -10.17530 -10.17476 -10.17456 -10.17406 -10.17186
  Beta  occ. eigenvalues --  -10.17177  -6.84427  -4.86825  -4.85722  -4.85707
  Beta  occ. eigenvalues --   -1.91637  -1.91267  -1.91266  -1.90311  -1.90311
  Beta  occ. eigenvalues --   -0.99794  -0.99521  -0.86844  -0.85535  -0.79013
  Beta  occ. eigenvalues --   -0.76235  -0.75077  -0.74675  -0.69583  -0.66095
  Beta  occ. eigenvalues --   -0.63730  -0.61129  -0.59240  -0.55830  -0.53473
  Beta  occ. eigenvalues --   -0.51965  -0.47414  -0.46839  -0.46006  -0.44433
  Beta  occ. eigenvalues --   -0.43242  -0.42503  -0.41428  -0.41182  -0.41025
  Beta  occ. eigenvalues --   -0.40140  -0.37404  -0.36997  -0.36096  -0.35260
  Beta  occ. eigenvalues --   -0.34037  -0.33811  -0.33297  -0.28693  -0.26864
  Beta  occ. eigenvalues --   -0.25941  -0.25051  -0.24837  -0.24525  -0.23690
  Beta  occ. eigenvalues --   -0.23559
  Beta virt. eigenvalues --   -0.08660  -0.05033  -0.03797  -0.01704  -0.00731
  Beta virt. eigenvalues --   -0.00231   0.00558   0.01336   0.02315   0.02497
  Beta virt. eigenvalues --    0.04510   0.04516   0.04711   0.05082   0.05085

 Mulliken charges and spin densities:
               1          2
     1  C    0.081950   0.029973
     2  C   -0.465961   0.031698
     3  C   -0.454725   0.036935
     4  C    0.070504   0.025509
     5  C    0.232838   0.032067
     6  C    0.271603   0.028189
     7  C   -0.357601   0.095059
     8  C    0.260568   0.066098
     9  C    0.133624   0.045493
    10  C   -0.451053   0.090535
    11  C    0.127709   0.019670
    12  C    0.192368   0.031639
    13  C   -0.784160   0.051137
    14  C    0.002527   0.018571
    15  O   -0.450678   0.207791
    16  O   -0.452065   0.203389
    17  H    0.163726  -0.001635
    18  H    0.164341  -0.001370
    19  H    0.140253  -0.001247
    20  H    0.173311  -0.000734
    21  I   -0.130069   0.000613
    22  H    0.183950  -0.002654
    23  H    0.184086  -0.002945
    24  H    0.162957  -0.003781
 Sum of Mulliken charges =  -1.00000   1.00000

 Dipole moment (field-independent basis, Debye):
    X=             -6.1326    Y=             -0.1545    Z=              0.0002  Tot=              6.1345
 Quadrupole moment (field-independent basis, Debye-Ang):
   XX=           -139.7067   YY=           -150.8489   ZZ=           -126.2002
   XY=            -10.7009   XZ=              0.0006   YZ=              0.0004

 Normal termination of Gaussian 16 at Sun Jan 14 01:32:59 2024.
