 Gaussian 16, Revision A.03,
 Gaussian 16:  ES64L-G16RevA.03 25-Dec-2016

 ----------------------------------------------------------------------
 #P UB3LYP/6-311++G(d,p) nosym opt freq SCRF=(PCM,Solvent=n,n-DiMethylF
 ormamide)
 ----------------------------------------------------------------------

 -------
 Radical
 -------
 Symbolic Z-matrix:
 Charge = -1 Multiplicity = 2

 SCF Done:  E(UB3LYP) =  -1300.97103967     A.U. after   18 cycles
 SCF Done:  E(UB3LYP) =  -1300.97118084     A.U. after   15 cycles
 SCF Done:  E(UB3LYP) =  -1300.97120369     A.U. after   13 cycles
 SCF Done:  E(UB3LYP) =  -1300.97120447     A.U. after   12 cycles
 Optimization completed.
    -- Stationary point found.
 Normal termination of Gaussian 16 at Sat Feb 10 10:05:11 2024.

 ----------------------------------------------------------------------
 #P Geom=AllCheck Guess=TCheck SCRF=Check GenChk UB3LYP/6-311++G(d,p) F
 req
 ----------------------------------------------------------------------

 Structure from the checkpoint file:  "009-rad.chk"
 -------
 Radical
 -------
 Charge = -1 Multiplicity = 2

                          Input orientation:
 ---------------------------------------------------------------------
 Center     Atomic      Atomic             Coordinates (Angstroms)
 Number     Number       Type             X           Y           Z
 ---------------------------------------------------------------------
      1         17           0        2.303002   -2.044423    0.054355
      2          6           0        0.993307   -0.878159    0.023384
      3          6           0        1.238699    0.474537    0.001492
      4         17           0        2.875609    1.105048    0.004966
      5          6           0        0.163643    1.460312   -0.025576
      6          8           0        0.378404    2.701579   -0.048272
      7          6           0       -1.170511    0.904594   -0.024889
      8          6           0       -1.413700   -0.436598   -0.002719
      9          6           0       -0.359129   -1.424302    0.022326
     10          8           0       -0.592453   -2.662149    0.041524
     11          1           0       -1.987663    1.617966   -0.043498
     12          1           0       -2.429209   -0.818405   -0.003093
 ---------------------------------------------------------------------

 SCF Done:  E(UB3LYP) =  -1300.97120447     A.U. after    2 cycles

 Alpha  occ. eigenvalues -- -101.55708-101.55703 -19.09080 -19.09075 -10.24026
 Alpha  occ. eigenvalues --  -10.24015 -10.23873 -10.23813 -10.17665 -10.17598
 Alpha  occ. eigenvalues --   -9.47161  -9.47156  -7.23609  -7.23604  -7.22686
 Alpha  occ. eigenvalues --   -7.22682  -7.22587  -7.22582  -1.01649  -1.01339
 Alpha  occ. eigenvalues --   -0.89857  -0.85052  -0.82064  -0.73300  -0.69357
 Alpha  occ. eigenvalues --   -0.60340  -0.58461  -0.50301  -0.48306  -0.45871
 Alpha  occ. eigenvalues --   -0.43780  -0.43602  -0.42113  -0.40017  -0.39411
 Alpha  occ. eigenvalues --   -0.38555  -0.36398  -0.33692  -0.32957  -0.30740
 Alpha  occ. eigenvalues --   -0.29124  -0.25870  -0.25600  -0.25547  -0.17630
 Alpha virt. eigenvalues --   -0.02389  -0.01199   0.00478   0.01529   0.02090
 Alpha virt. eigenvalues --    0.03035   0.03125   0.05267   0.05285   0.06145
 Alpha virt. eigenvalues --    0.06795   0.07956   0.08266   0.08619   0.09105

  Beta  occ. eigenvalues -- -101.55703-101.55698 -19.08372 -19.08367 -10.23901
  Beta  occ. eigenvalues --  -10.23890 -10.23743 -10.23682 -10.17567 -10.17498
  Beta  occ. eigenvalues --   -9.47157  -9.47152  -7.23613  -7.23608  -7.22663
  Beta  occ. eigenvalues --   -7.22658  -7.22585  -7.22580  -1.00455  -1.00097
  Beta  occ. eigenvalues --   -0.89571  -0.84926  -0.81584  -0.73063  -0.68303
  Beta  occ. eigenvalues --   -0.59913  -0.58053  -0.50083  -0.47884  -0.45582
  Beta  occ. eigenvalues --   -0.43511  -0.42304  -0.41425  -0.39564  -0.38344
  Beta  occ. eigenvalues --   -0.36948  -0.35297  -0.32939  -0.32886  -0.30704
  Beta  occ. eigenvalues --   -0.26128  -0.25202  -0.24890  -0.24763
  Beta virt. eigenvalues --   -0.10419  -0.01092  -0.00885   0.00513   0.02134
  Beta virt. eigenvalues --    0.03069   0.03199   0.03842   0.05328   0.05432
  Beta virt. eigenvalues --    0.06225   0.06871   0.08068   0.08379   0.08635

 Mulliken charges and spin densities:
               1          2
     1  Cl   0.278270   0.006758
     2  C    0.504935   0.062612
     3  C    0.520671   0.062422
     4  Cl   0.277432   0.006735
     5  C   -1.044156   0.102023
     6  O   -0.437302   0.251885
     7  C   -0.009514   0.083192
     8  C   -0.008141   0.083113
     9  C   -1.050098   0.101744
    10  O   -0.437160   0.251864
    11  H    0.202609  -0.006173
    12  H    0.202454  -0.006174
 Sum of Mulliken charges =  -1.00000   1.00000

 Dipole moment (field-independent basis, Debye):
    X=             -3.2860    Y=              0.5917    Z=             -0.0262  Tot=              3.3390
 Quadrupole moment (field-independent basis, Debye-Ang):
   XX=            -79.2023   YY=           -113.2871   ZZ=            -73.9381
   XY=             -6.3854   XZ=              0.0687   YZ=              0.6653

  Exact polarizability: 175.988  13.363 247.496   0.540  -2.933  78.097
 Approx polarizability: 185.247  19.291 288.353   0.431  -3.446  88.137

                      1                      2                      3
                      A                      A                      A
 Frequencies --     85.5024               111.7633               211.6409
 Red. masses --     20.8434                 7.8573                31.3415
 Frc consts  --      0.0898                 0.0578                 0.8271
 IR Inten    --      0.2089                20.4582                 0.5843

                      4                      5                      6
                      A                      A                      A
 Frequencies --    231.5568               254.8685               324.2531
 Red. masses --      8.1744                19.0033                 5.6730
 Frc consts  --      0.2582                 0.7273                 0.3514
 IR Inten    --      0.5576                 2.5359                 0.0010

                      7                      8                      9
                      A                      A                      A
 Frequencies --    342.7676               360.6411               467.5503
 Red. masses --     19.4173                18.3760                11.6305
 Frc consts  --      1.3441                 1.4082                 1.4980
 IR Inten    --      4.2183                 0.0394                 3.2233

                     10                     11                     12
                      A                      A                      A
 Frequencies --    490.2335               536.0360               586.3295
 Red. masses --      6.9920                11.2067                 5.0157
 Frc consts  --      0.9901                 1.8972                 1.0159
 IR Inten    --      0.0005                58.8787                 0.8916

                     13                     14                     15
                      A                      A                      A
 Frequencies --    614.5149               714.9151               754.8821
 Red. masses --      2.5111                 8.8936                 8.4086
 Frc consts  --      0.5587                 2.6782                 2.8231
 IR Inten    --      4.0323                 0.1363                 0.0007

                     16                     17                     18
                      A                      A                      A
 Frequencies --    824.7698               863.2138               929.6737
 Red. masses --      1.9421                10.0867                 9.2438
 Frc consts  --      0.7784                 4.4283                 4.7072
 IR Inten    --     71.9062               224.5703               122.0796

                     19                     20                     21
                      A                      A                      A
 Frequencies --    953.2740              1053.6751              1108.0731
 Red. masses --      1.2679                 4.3320                 1.9921
 Frc consts  --      0.6788                 2.8337                 1.4411
 IR Inten    --      0.0072               199.1956                 6.2060

                     22                     23                     24
                      A                      A                      A
 Frequencies --   1211.0987              1308.6066              1404.3470
 Red. masses --      2.0740                 2.5805                 3.1703
 Frc consts  --      1.7923                 2.6035                 3.6839
 IR Inten    --     31.9215                64.6108               233.3597

                     25                     26                     27
                      A                      A                      A
 Frequencies --   1473.6814              1505.8712              1520.2707
 Red. masses --      8.5099                12.0197                 6.7651
 Frc consts  --     10.8888                16.0590                 9.2123
 IR Inten    --      0.4045                 1.9316              1151.4088

                     28                     29                     30
                      A                      A                      A
 Frequencies --   1628.0667              3161.7444              3179.3189
 Red. masses --      7.4377                 1.0864                 1.0958
 Frc consts  --     11.6154                 6.3989                 6.5260
 IR Inten    --     74.1314                18.2149                18.8076

 - Thermochemistry -
 -------------------
 Temperature   298.150 Kelvin.  Pressure   1.00000 Atm.
 Atom     1 has atomic number 17 and mass  34.96885

 Molecular mass:   175.94318 amu.
 Principal axes and moments of inertia in atomic units:
                           1         2         3
     Eigenvalues --  1444.061631764.305743208.36536
           X            0.17748   0.98409  -0.00827
           Y            0.98399  -0.17731   0.01782
           Z           -0.01607   0.01130   0.99981
 This molecule is an asymmetric top.
 Rotational symmetry number  1.
 Warning -- assumption of classical behavior for rotation
           may cause significant error
 Rotational temperatures (Kelvin)      0.05998     0.04909     0.02700
 Rotational constants (GHZ):           1.24977     1.02292     0.56251
 Zero-point vibrational energy     168752.1 (Joules/Mol)
                                   40.33271 (Kcal/Mol)
 Warning -- explicit consideration of  13 degrees of freedom as
           vibrations may cause significant error
 Vibrational temperatures:    123.02   160.80   304.50   333.16   366.70
          (Kelvin)            466.53   493.17   518.88   672.70   705.34
                              771.24   843.60   884.15  1028.60  1086.11
                             1186.66  1241.97  1337.59  1371.55  1516.00
                             1594.27  1742.50  1882.79  2020.54  2120.30
                             2166.61  2187.33  2342.42  4549.04  4574.33

 Zero-point correction=                           0.064274 (Hartree/Particle)
 Thermal correction to Energy=                    0.072757
 Thermal correction to Enthalpy=                  0.073701
 Thermal correction to Gibbs Free Energy=         0.029161
 Sum of electronic and zero-point Energies=          -1300.906930
 Sum of electronic and thermal Energies=             -1300.898447
 Sum of electronic and thermal Enthalpies=           -1300.897503
 Sum of electronic and thermal Free Energies=        -1300.942044

                     E (Thermal)             CV                S
                      KCal/Mol        Cal/Mol-Kelvin    Cal/Mol-Kelvin
 Total                   45.656             30.725             93.744
 Electronic               0.000              0.000              1.377
 Translational            0.889              2.981             41.402
 Rotational               0.889              2.981             30.481
 Vibrational             43.878             24.764             20.483
 Vibration     1          0.601              1.959              3.760
 Vibration     2          0.607              1.940              3.238
 Vibration     3          0.643              1.823              2.029
 Vibration     4          0.653              1.793              1.867
 Vibration     5          0.665              1.755              1.697
 Vibration     6          0.709              1.627              1.289
 Vibration     7          0.722              1.590              1.199
 Vibration     8          0.735              1.553              1.119
 Vibration     9          0.825              1.322              0.744
 Vibration    10          0.846              1.272              0.683
 Vibration    11          0.891              1.170              0.574
 Vibration    12          0.943              1.061              0.474
 Vibration    13          0.974              1.001              0.425

 Optimization completed.
    -- Stationary point found.
 Normal termination of Gaussian 16 at Sat Feb 10 10:09:57 2024.
