 Q-Chem 5.4, Q-Chem, Inc., Pleasanton, CA (2021)
 Q-Chem 5.4.0 for Intel X86 EM64T Linux

User input:
--------------------------------------------------------------
$molecule
-2 1
Cl                -2.5586870000      1.7714730000      0.7039090000
C                 -1.1104380000      0.7749960000      0.4004050000
C                 -1.1699070000     -0.6171740000      0.5381180000
Cl                -2.6954240000     -1.4088030000      1.0185330000
C                 -0.0648810000     -1.5108100000      0.3182940000
O                 -0.1196250000     -2.7799100000      0.4439950000
C                  1.1102220000     -0.7749440000     -0.0628240000
C                  1.1700060000      0.6173700000     -0.2006340000
Cl                 2.6955870000      1.4084640000     -0.6809710000
C                  0.0650020000      1.5108480000      0.0191650000
O                  0.1193900000      2.7799310000     -0.1063840000
Cl                 2.5587550000     -1.7714410000     -0.3663620000
$end

$rem
BASIS  =  6-311++G(d,p)
GUI  =  2
JOB_TYPE  =  SP
METHOD  =  B3LYP
SCF_CONVERGENCE  = 8
SOLVENT_METHOD = sm12
$end

$smx
solvent dimethylformamide
charges CM5
$end

--------------------------------------------------------------

             Standard Nuclear Orientation (Angstroms)
    I     Atom           X                Y                Z
 ----------------------------------------------------------------
    1      Cl     -2.5586870000     1.7714730000     0.7039090000
    2      C      -1.1104380000     0.7749960000     0.4004050000
    3      C      -1.1699070000    -0.6171740000     0.5381180000
    4      Cl     -2.6954240000    -1.4088030000     1.0185330000
    5      C      -0.0648810000    -1.5108100000     0.3182940000
    6      O      -0.1196250000    -2.7799100000     0.4439950000
    7      C       1.1102220000    -0.7749440000    -0.0628240000
    8      C       1.1700060000     0.6173700000    -0.2006340000
    9      Cl      2.6955870000     1.4084640000    -0.6809710000
   10      C       0.0650020000     1.5108480000     0.0191650000
   11      O       0.1193900000     2.7799310000    -0.1063840000
   12      Cl      2.5587550000    -1.7714410000    -0.3663620000
 ----------------------------------------------------------------

   14   -2220.0699039644      8.49e-09  Convergence criterion met
 Total energy in the final basis set =    -2220.3243348294

                    Orbital Energies (a.u.)
 --------------------------------------------------------------

 Alpha MOs
 -- Occupied --
********-101.5265-101.5264-101.5264 -19.0147 -19.0147 -10.1941 -10.1941
-10.1936 -10.1936 -10.1911 -10.1911  -9.4398  -9.4398  -9.4397  -9.4397
 -7.2043  -7.2042  -7.2041  -7.2041  -7.1952  -7.1952  -7.1951  -7.1951
 -7.1942  -7.1942  -7.1942  -7.1942  -0.9437  -0.9382  -0.8553  -0.8510
 -0.8139  -0.8103  -0.7597  -0.6689  -0.6539  -0.5490  -0.5420  -0.4752
 -0.4400  -0.4192  -0.3974  -0.3968  -0.3612  -0.3599  -0.3529  -0.3450
 -0.3387  -0.3071  -0.2996  -0.2936  -0.2923  -0.2847  -0.2770  -0.2700
 -0.2235  -0.2065  -0.1980  -0.1954  -0.1227

          Ground-State Mulliken Net Atomic Charges

     Atom                 Charge (a.u.)
  ----------------------------------------
      1 Cl                    0.663501
      2 C                     0.679216
      3 C                     0.688455
      4 Cl                    0.661167
      5 C                    -3.316481
      6 O                    -0.378016
      7 C                     0.679943
      8 C                     0.689343
      9 Cl                    0.661325
     10 C                    -3.313733
     11 O                    -0.377995
     12 Cl                    0.663275
  ----------------------------------------
  Sum of atomic charges =    -2.000000

                    Cartesian Multipole Moments
 -----------------------------------------------------------------
    Charge (ESU x 10^10)
                -9.6064
    Dipole Moment (Debye)
         X      -0.0011      Y       0.0025      Z      -1.6212
       Tot       1.6212
    Quadrupole Moments (Debye-Ang)
        XX    -133.2405     XY      -0.5179     YY    -162.8484
        XZ       7.9993     YZ       5.3031     ZZ    -106.6195

 Total job time:  113.15s(wall), 756.10s(cpu)
        *  Thank you very much for using Q-Chem.  Have a nice day.  *
