 Q-Chem 5.4, Q-Chem, Inc., Pleasanton, CA (2021)
 Q-Chem 5.4.0 for Intel X86 EM64T Linux

User input:
--------------------------------------------------------------
$molecule
-2 1
Br                -3.1142420000     -1.1457180000      0.0155150000
C                 -1.2930050000     -0.4631990000      0.0064810000
C                 -1.0286880000      0.9102290000      0.0084330000
Br                -2.4664240000      2.2197790000      0.0203690000
C                  0.2879130000      1.4955420000      0.0021350000
O                  0.5282400000      2.7442720000      0.0039160000
C                  1.2930610000      0.4632600000     -0.0064820000
C                  1.0286550000     -0.9101940000     -0.0084340000
Br                 2.4664680000     -2.2197090000     -0.0203690000
C                 -0.2879100000     -1.4955110000     -0.0021370000
O                 -0.5283060000     -2.7442790000     -0.0039150000
Br                 3.1142390000      1.1455290000     -0.0155120000
$end
$rem
MAX_SCF_CYCLES=200
BASIS  =  6-311++G(d,p)
GUI  =  2
JOB_TYPE  =  SP
METHOD  =  B3LYP
SOLVENT_METHOD = COSMO
$end
$solvent
dielectric 37.219
opticaldielectric 1.43
$end

--------------------------------------------------------------

             Standard Nuclear Orientation (Angstroms)
    I     Atom           X                Y                Z
 ----------------------------------------------------------------
    1      Br      2.8416343647    -1.7136280258     0.0000060743
    2      C       1.1821872013    -0.6992054706    -0.0000042393
    3      C       1.1822155117     0.6994266314     0.0000193222
    4      Br      2.8415802731     1.7136539551    -0.0000076865
    5      C      -0.0000536501     1.5230216745     0.0000161912
    6      O      -0.0000359240     2.7946689728     0.0000313365
    7      C      -1.1822129921     0.6993092415     0.0000061502
    8      C      -1.1821588218    -0.6993652131    -0.0000169504
    9      Br     -2.8415925731    -1.7135436130     0.0000086918
   10      C       0.0000742272    -1.5229573814    -0.0000130433
   11      O       0.0001170935    -2.7946550317    -0.0000308772
   12      Br     -2.8416494422     1.7134751573    -0.0000084583
 ----------------------------------------------------------------

    9  -10675.7528840756      9.55e-06  Convergence criterion met
 Total energy in the final basis set =   -10675.7528840756
    6  -10676.0196839785      2.32e-06  Convergence criterion met
 Total energy in the final basis set =   -10676.0196839785

                    Orbital Energies (a.u.)
 --------------------------------------------------------------

 Alpha MOs
 -- Occupied --
********-482.8159-482.8159-482.8159 -62.4687 -62.4687 -62.4687 -62.4687
-56.2891 -56.2891 -56.2891 -56.2891 -56.2855 -56.2855 -56.2855 -56.2855
-56.2852 -56.2852 -56.2851 -56.2851 -19.0427 -19.0427 -10.2137 -10.2137
-10.2082 -10.2081 -10.2076 -10.2076  -8.6773  -8.6773  -8.6773  -8.6773
 -6.5083  -6.5083  -6.5083  -6.5083  -6.4965  -6.4965  -6.4965  -6.4965
 -6.4955  -6.4955  -6.4955  -6.4955  -2.6192  -2.6192  -2.6192  -2.6192
 -2.6162  -2.6162  -2.6162  -2.6162  -2.6154  -2.6153  -2.6153  -2.6153
 -2.6060  -2.6059  -2.6059  -2.6059  -2.6058  -2.6058  -2.6058  -2.6058
 -0.9718  -0.9680  -0.8446  -0.8166  -0.7751  -0.7751  -0.7506  -0.6767
 -0.6695  -0.5581  -0.5531  -0.4858  -0.4409  -0.4072  -0.4063  -0.3884
 -0.3848  -0.3719  -0.3555  -0.3488  -0.3356  -0.2983  -0.2975  -0.2948
 -0.2895  -0.2842  -0.2665  -0.2665  -0.2479  -0.2276  -0.2211  -0.2196
 -0.1477

          Ground-State Mulliken Net Atomic Charges

     Atom                 Charge (a.u.)
  ----------------------------------------
      1 Br                   -0.207344
      2 C                     0.447083
      3 C                     0.446841
      4 Br                   -0.207301
      5 C                    -0.914549
      6 O                    -0.563843
      7 C                     0.446406
      8 C                     0.445838
      9 Br                   -0.207191
     10 C                    -0.915411
     11 O                    -0.563159
     12 Br                   -0.207369
  ----------------------------------------
  Sum of atomic charges =    -2.000000

                    Cartesian Multipole Moments
 -----------------------------------------------------------------
    Charge (ESU x 10^10)
                -9.6064
    Dipole Moment (Debye)
         X       0.0002      Y      -0.0048      Z      -0.0003
       Tot       0.0048
    Quadrupole Moments (Debye-Ang)
        XX    -151.1113     XY       0.0084     YY    -189.1835
        XZ       0.0007     YZ      -0.0010     ZZ    -126.7359

 Total job time:  30.99s(wall), 228.76s(cpu)
        *  Thank you very much for using Q-Chem.  Have a nice day.  *
