 Gaussian 16, Revision A.03,
 Gaussian 16:  ES64L-G16RevA.03 25-Dec-2016

 ----------------------------------------------------------------
 #P UB3LYP/6-311++G(d,p) SCRF=(PCM,Solvent=n,n-DiMethylFormamide)
 ----------------------------------------------------------------

 ------------------
 Radical PCM in DMF
 ------------------
 Symbolic Z-matrix:
 Charge = -3 Multiplicity = 2

                         Standard orientation:
 ---------------------------------------------------------------------
 Center     Atomic      Atomic             Coordinates (Angstroms)
 Number     Number       Type             X           Y           Z
 ---------------------------------------------------------------------
      1          6           0       -0.584992    2.482150   -0.000469
      2          6           0       -1.832115    1.895455   -0.000642
      3          6           0       -1.943443    0.491998   -0.000613
      4          6           0        0.599800    1.714689   -0.000255
      5          6           0        0.493932    0.286337   -0.000297
      6          6           0       -0.803803   -0.298898   -0.000515
      7          6           0        1.888249    2.435129    0.000006
      8          6           0        3.121735    1.610144    0.000167
      9          6           0        2.942968    0.173327    0.000314
     10          6           0        1.735887   -0.470903   -0.000007
     11          8           0        1.932546    3.694616    0.000189
     12          8           0        4.276772    2.128558    0.000413
     13          1           0       -0.471583    3.561135   -0.000496
     14          1           0       -2.733650    2.498030   -0.001090
     15         16           0       -3.645361   -0.186439    0.000207
     16          1           0       -0.904606   -1.376413   -0.000735
     17          1           0        3.846835   -0.424774    0.000618
     18         16           0        1.786927   -2.312641   -0.000057
     19          8           0        3.239374   -2.674030    0.000552
     20          8           0        1.090918   -2.740448   -1.248116
     21          8           0        1.089810   -2.740562    1.247347
     22          8           0       -4.279535    0.358389    1.243806
     23          8           0       -3.529700   -1.667859   -0.005570
     24          8           0       -4.284104    0.367678   -1.236975
 ---------------------------------------------------------------------

 SCF Done:  E(UB3LYP) =  -1782.33679560     A.U. after   20 cycles

 The electronic state is 2-A.
 Alpha  occ. eigenvalues --  -89.03905 -89.03769 -19.08608 -19.08254 -19.08254
 Alpha  occ. eigenvalues --  -19.08219 -19.08217 -19.08177 -19.08139 -19.07830
 Alpha  occ. eigenvalues --  -10.22271 -10.21795 -10.19557 -10.19512 -10.19333
 Alpha  occ. eigenvalues --  -10.18014 -10.17715 -10.17553 -10.17154 -10.16448
 Alpha  occ. eigenvalues --   -8.09777  -8.09633  -6.06055  -6.06040  -6.05946
 Alpha  occ. eigenvalues --   -6.05911  -6.05897  -6.05801  -1.09876  -1.09797
 Alpha  occ. eigenvalues --   -1.01113  -0.98324  -0.96586  -0.96269  -0.96078
 Alpha  occ. eigenvalues --   -0.95849  -0.86770  -0.81363  -0.76139  -0.73645
 Alpha  occ. eigenvalues --   -0.69916  -0.63783  -0.61893  -0.60613  -0.56941
 Alpha  occ. eigenvalues --   -0.54610  -0.51165  -0.50066  -0.48702  -0.46726
 Alpha  occ. eigenvalues --   -0.45324  -0.44523  -0.44441  -0.44212  -0.44059
 Alpha  occ. eigenvalues --   -0.42557  -0.41974  -0.41891  -0.41380  -0.38770
 Alpha  occ. eigenvalues --   -0.37613  -0.37475  -0.35115  -0.34954  -0.32998
 Alpha  occ. eigenvalues --   -0.32620  -0.32612  -0.32372  -0.32186  -0.29363
 Alpha  occ. eigenvalues --   -0.28928  -0.28914  -0.28570  -0.28247  -0.27687
 Alpha  occ. eigenvalues --   -0.25800  -0.25655  -0.24799  -0.24693  -0.23068
 Alpha  occ. eigenvalues --   -0.22734  -0.16272
 Alpha virt. eigenvalues --   -0.03974  -0.01481   0.00459   0.01576   0.02054
 Alpha virt. eigenvalues --    0.02209   0.03613   0.03928   0.04597   0.04786
 Alpha virt. eigenvalues --    0.05982   0.06337   0.06486   0.06871   0.07469

  Beta  occ. eigenvalues --  -89.03906 -89.03773 -19.08607 -19.08232 -19.08231
  Beta  occ. eigenvalues --  -19.08215 -19.08213 -19.08179 -19.07525 -19.07149
  Beta  occ. eigenvalues --  -10.22118 -10.21640 -10.19449 -10.19343 -10.19273
  Beta  occ. eigenvalues --  -10.18025 -10.17679 -10.17530 -10.17123 -10.16458
  Beta  occ. eigenvalues --   -8.09778  -8.09637  -6.06056  -6.06041  -6.05949
  Beta  occ. eigenvalues --   -6.05914  -6.05900  -6.05810  -1.09871  -1.09778
  Beta  occ. eigenvalues --   -1.00008  -0.97094  -0.96582  -0.96223  -0.96067
  Beta  occ. eigenvalues --   -0.95841  -0.86566  -0.81008  -0.75900  -0.73483
  Beta  occ. eigenvalues --   -0.69131  -0.63569  -0.61758  -0.60265  -0.56816
  Beta  occ. eigenvalues --   -0.54366  -0.51030  -0.49926  -0.48513  -0.46611
  Beta  occ. eigenvalues --   -0.45218  -0.44485  -0.44366  -0.44144  -0.43941
  Beta  occ. eigenvalues --   -0.42526  -0.41738  -0.40794  -0.40285  -0.38554
  Beta  occ. eigenvalues --   -0.37348  -0.36269  -0.34995  -0.32986  -0.32647
  Beta  occ. eigenvalues --   -0.32608  -0.32538  -0.32332  -0.31048  -0.28924
  Beta  occ. eigenvalues --   -0.28915  -0.28804  -0.28526  -0.28136  -0.27128
  Beta  occ. eigenvalues --   -0.25192  -0.25001  -0.24785  -0.24593  -0.22155
  Beta  occ. eigenvalues --   -0.22092
  Beta virt. eigenvalues --   -0.09555  -0.03047  -0.00200   0.00475   0.01587
  Beta virt. eigenvalues --    0.02084   0.03334   0.03627   0.03957   0.04682
  Beta virt. eigenvalues --    0.04822   0.06024   0.06356   0.06504   0.06975

 Mulliken charges and spin densities:
               1          2
     1  C   -0.143672   0.047089
     2  C   -0.515010   0.014113
     3  C   -0.109780   0.041292
     4  C    1.105062   0.057053
     5  C    0.058132   0.040415
     6  C   -0.355687  -0.007530
     7  C   -0.933203   0.087672
     8  C    0.126747   0.161172
     9  C    0.284741  -0.041235
    10  C   -1.155454   0.116961
    11  O   -0.465167   0.232751
    12  O   -0.503474   0.247121
    13  H    0.164501  -0.003791
    14  H    0.228873  -0.001771
    15  S    0.607612   0.000515
    16  H    0.210979   0.000961
    17  H    0.243838  -0.001789
    18  S    0.525873  -0.002154
    19  O   -0.363533   0.000283
    20  O   -0.401318   0.005121
    21  O   -0.401267   0.005118
    22  O   -0.403054   0.000136
    23  O   -0.401869   0.000382
    24  O   -0.403871   0.000116
 Sum of Mulliken charges =  -3.00000   1.00000

 Dipole moment (field-independent basis, Debye):
    X=             -0.8223    Y=              4.4996    Z=             -0.0041  Tot=              4.5741
 Quadrupole moment (field-independent basis, Debye-Ang):
   XX=           -305.6530   YY=           -227.2489   ZZ=           -154.0275
   XY=            -17.8216   XZ=              0.0056   YZ=             -0.0066

 Normal termination of Gaussian 16 at Sun Jan 28 18:45:15 2024.
