 Q-Chem 5.4, Q-Chem, Inc., Pleasanton, CA (2021)
 Q-Chem 5.4.0 for Intel X86 EM64T Linux

User input:
--------------------------------------------------------------
$molecule
-2 1
C                 -4.1102810000      3.6387890000      1.5167450000
C                 -4.5980500000      3.8713550000      0.2513880000
C                 -3.9968500000      3.2207730000     -0.8490910000
C                 -2.9310560000      2.3469420000     -0.6608500000
C                 -2.3768640000      2.0879400000      0.6288690000
C                 -3.0199700000      2.7641160000      1.7450630000
C                 -2.5919540000      2.5794190000      3.1292530000
C                 -1.5027590000      1.6837470000      3.2854770000
C                 -0.9012130000      1.0494370000      2.1992430000
C                 -1.2220610000      1.1828570000      0.8150000000
O                 -3.1658640000      3.1738050000      4.1200340000
O                 -0.5960500000      0.6062680000     -0.1274830000
H                 -4.5332570000      4.1134980000      2.3955700000
H                 -4.3568230000      3.4039010000     -1.8627790000
O                 -2.4073980000      1.7251270000     -1.7810010000
Br                 0.6181970000     -0.1472500000      2.6123510000
H                 -5.4340010000      4.5486820000      0.0870560000
H                 -1.1472430000      1.4977860000      4.2931570000
H                 -3.0083730000      1.9408700000     -2.5042020000
$end
$rem
MAX_SCF_CYCLES=200
BASIS  =  6-311++G(d,p)
GUI  =  2
JOB_TYPE  =  SP
METHOD  =  B3LYP
SOLVENT_METHOD = PCM
$end
$pcm
theory = CPCM
$end
$solvent
dielectric 37.219
opticaldielectric 1.43
$end

--------------------------------------------------------------

             Standard Nuclear Orientation (Angstroms)
    I     Atom           X                Y                Z
 ----------------------------------------------------------------
    1      C      -4.1102810000     3.6387890000     1.5167450000
    2      C      -4.5980500000     3.8713550000     0.2513880000
    3      C      -3.9968500000     3.2207730000    -0.8490910000
    4      C      -2.9310560000     2.3469420000    -0.6608500000
    5      C      -2.3768640000     2.0879400000     0.6288690000
    6      C      -3.0199700000     2.7641160000     1.7450630000
    7      C      -2.5919540000     2.5794190000     3.1292530000
    8      C      -1.5027590000     1.6837470000     3.2854770000
    9      C      -0.9012130000     1.0494370000     2.1992430000
   10      C      -1.2220610000     1.1828570000     0.8150000000
   11      O      -3.1658640000     3.1738050000     4.1200340000
   12      O      -0.5960500000     0.6062680000    -0.1274830000
   13      H      -4.5332570000     4.1134980000     2.3955700000
   14      H      -4.3568230000     3.4039010000    -1.8627790000
   15      O      -2.4073980000     1.7251270000    -1.7810010000
   16      Br      0.6181970000    -0.1472500000     2.6123510000
   17      H      -5.4340010000     4.5486820000     0.0870560000
   18      H      -1.1472430000     1.4977860000     4.2931570000
   19      H      -3.0083730000     1.9408700000    -2.5042020000
 ----------------------------------------------------------------

    9   -3184.3111620518      4.74e-06  Convergence criterion met
 Total energy in the final basis set =    -3184.3111620518

                    Orbital Energies (a.u.)
 --------------------------------------------------------------

 Alpha MOs
 -- Occupied --
******** -62.4550 -56.2750 -56.2718 -56.2716 -19.1350 -19.0245 -19.0232
-10.2203 -10.1919 -10.1794 -10.1782 -10.1570 -10.1551 -10.1505 -10.1481
-10.1428 -10.1315  -8.6635  -6.4934  -6.4829  -6.4824  -2.6046  -2.6017
 -2.6012  -2.5929  -2.5929  -1.0446  -0.9511  -0.9396  -0.8294  -0.7942
 -0.7498  -0.7220  -0.7014  -0.6470  -0.6056  -0.5790  -0.5473  -0.4997
 -0.4821  -0.4546  -0.4424  -0.4271  -0.4069  -0.4020  -0.3784  -0.3703
 -0.3665  -0.3620  -0.3460  -0.3347  -0.3278  -0.3237  -0.3076  -0.2877
 -0.2702  -0.2335  -0.2192  -0.2127  -0.2057  -0.2011  -0.1194

          Ground-State Mulliken Net Atomic Charges

     Atom                 Charge (a.u.)
  ----------------------------------------
      1 C                     0.044017
      2 C                    -0.468825
      3 C                    -0.225963
      4 C                    -0.016315
      5 C                     0.157678
      6 C                     0.262423
      7 C                    -0.631133
      8 C                    -0.101800
      9 C                     0.584446
     10 C                    -0.650359
     11 O                    -0.713529
     12 O                    -0.630696
     13 H                     0.141104
     14 H                     0.165435
     15 O                    -0.266706
     16 Br                   -0.316238
     17 H                     0.188181
     18 H                     0.176513
     19 H                     0.301767
  ----------------------------------------
  Sum of atomic charges =    -2.000000

                    Cartesian Multipole Moments
 -----------------------------------------------------------------
    Charge (ESU x 10^10)
                -9.6064
    Dipole Moment (Debye)
         X      15.0928      Y     -15.9804      Z     -20.2515
       Tot      29.8879
    Quadrupole Moments (Debye-Ang)
        XX    -145.0635     XY      42.5908     YY    -147.3290
        XZ      55.2458     YZ     -53.7057     ZZ    -171.3102

 Total job time:  61.21s(wall), 205.81s(cpu)
        *  Thank you very much for using Q-Chem.  Have a nice day.  *
