 Q-Chem 5.4, Q-Chem, Inc., Pleasanton, CA (2021)
 Q-Chem 5.4.0 for Intel X86 EM64T Linux

User input:
--------------------------------------------------------------
$molecule
-2 1
C                 -0.5517180000      1.2122290000     -0.3737850000
C                 -1.4320750000      0.1506710000     -0.8330040000
C                 -1.2149010000     -1.1982220000     -0.6576990000
C                 -0.0339470000     -1.7035390000      0.0324930000
C                  0.8323790000     -0.6954400000      0.4857340000
C                  0.6427460000      0.7284230000      0.3233020000
O                 -0.8596910000      2.4259140000     -0.5955140000
O                  0.1477480000     -2.9865750000      0.1850350000
C                  1.6345560000      1.6400410000      0.8516380000
C                  2.8657810000      1.0242770000      1.5729870000
O                  1.6252830000      2.8867560000      0.7997670000
H                 -2.3274350000      0.4941710000     -1.3547160000
H                  3.4416370000      0.3658750000      0.9117310000
H                  2.5735850000      0.4256650000      2.4440110000
H                  3.4966180000      1.8554620000      1.8980320000
C                 -2.1952550000     -2.2198050000     -1.1753080000
H                  1.7165690000     -1.0561320000      1.0017700000
H                 -3.0463340000     -1.7396900000     -1.6748380000
H                 -2.5645680000     -2.8538540000     -0.3582500000
H                 -1.7056790000     -2.9095090000     -1.8758260000
$end
$rem
MAX_SCF_CYCLES=200
BASIS  =  6-311++G(d,p)
GUI  =  2
JOB_TYPE  =  SP
METHOD  =  B3LYP
SOLVENT_METHOD = PCM
$end
$pcm
theory = CPCM
$end
$solvent
dielectric 37.219
opticaldielectric 1.43
$end

--------------------------------------------------------------

             Standard Nuclear Orientation (Angstroms)
    I     Atom           X                Y                Z
 ----------------------------------------------------------------
    1      C      -0.5517180000     1.2122290000    -0.3737850000
    2      C      -1.4320750000     0.1506710000    -0.8330040000
    3      C      -1.2149010000    -1.1982220000    -0.6576990000
    4      C      -0.0339470000    -1.7035390000     0.0324930000
    5      C       0.8323790000    -0.6954400000     0.4857340000
    6      C       0.6427460000     0.7284230000     0.3233020000
    7      O      -0.8596910000     2.4259140000    -0.5955140000
    8      O       0.1477480000    -2.9865750000     0.1850350000
    9      C       1.6345560000     1.6400410000     0.8516380000
   10      C       2.8657810000     1.0242770000     1.5729870000
   11      O       1.6252830000     2.8867560000     0.7997670000
   12      H      -2.3274350000     0.4941710000    -1.3547160000
   13      H       3.4416370000     0.3658750000     0.9117310000
   14      H       2.5735850000     0.4256650000     2.4440110000
   15      H       3.4966180000     1.8554620000     1.8980320000
   16      C      -2.1952550000    -2.2198050000    -1.1753080000
   17      H       1.7165690000    -1.0561320000     1.0017700000
   18      H      -3.0463340000    -1.7396900000    -1.6748380000
   19      H      -2.5645680000    -2.8538540000    -0.3582500000
   20      H      -1.7056790000    -2.9095090000    -1.8758260000
 ----------------------------------------------------------------

    9    -573.8654384434      6.37e-06  Convergence criterion met
 Total energy in the final basis set =     -573.8654384434

                    Orbital Energies (a.u.)
 --------------------------------------------------------------

 Alpha MOs
 -- Occupied --
-19.0690 -19.0351 -19.0187 -10.2224 -10.1924 -10.1714 -10.1491 -10.1446
-10.1445 -10.1341 -10.1287 -10.1213  -0.9938  -0.9542  -0.9284  -0.7911
 -0.7476  -0.7011  -0.6658  -0.6493  -0.5690  -0.5468  -0.4849  -0.4484
 -0.4402  -0.4124  -0.4122  -0.3983  -0.3982  -0.3893  -0.3681  -0.3655
 -0.3561  -0.3500  -0.3350  -0.3267  -0.3158  -0.3157  -0.2373  -0.2336
 -0.2189  -0.2011  -0.1913  -0.1303

          Ground-State Mulliken Net Atomic Charges

     Atom                 Charge (a.u.)
  ----------------------------------------
      1 C                    -0.422780
      2 C                    -0.728514
      3 C                     1.026449
      4 C                    -0.678710
      5 C                    -1.119809
      6 C                     1.632721
      7 O                    -0.630460
      8 O                    -0.749623
      9 C                    -0.159057
     10 C                    -0.505543
     11 O                    -0.491514
     12 H                     0.126883
     13 H                     0.163825
     14 H                     0.163602
     15 H                     0.169521
     16 C                    -0.378152
     17 H                     0.118459
     18 H                     0.146147
     19 H                     0.158299
     20 H                     0.158255
  ----------------------------------------
  Sum of atomic charges =    -2.000000

                    Cartesian Multipole Moments
 -----------------------------------------------------------------
    Charge (ESU x 10^10)
                -9.6064
    Dipole Moment (Debye)
         X      -0.8017      Y      -3.3862      Z      -0.1990
       Tot       3.4854
    Quadrupole Moments (Debye-Ang)
        XX     -84.3299     XY      -0.8374     YY    -157.0693
        XZ      -3.3978     YZ       2.5866     ZZ     -80.3045

 Total job time:  23.50s(wall), 145.44s(cpu)
        *  Thank you very much for using Q-Chem.  Have a nice day.  *
