 Gaussian 16, Revision A.03,
 Gaussian 16:  ES64L-G16RevA.03 25-Dec-2016

 --------------------------------------
 #P UB3LYP/6-311++G(d,p) nosym opt freq
 --------------------------------------

 -------
 Reduced
 -------
 Symbolic Z-matrix:
 Charge = -2 Multiplicity = 1

 SCF Done:  E(UB3LYP) =  -573.568816870     A.U. after   23 cycles
 SCF Done:  E(UB3LYP) =  -573.568815621     A.U. after   15 cycles
 SCF Done:  E(UB3LYP) =  -573.568817377     A.U. after   14 cycles
 SCF Done:  E(UB3LYP) =  -573.568817493     A.U. after   15 cycles
 SCF Done:  E(UB3LYP) =  -573.568817923     A.U. after   15 cycles
 SCF Done:  E(UB3LYP) =  -573.568465803     A.U. after   22 cycles
 SCF Done:  E(UB3LYP) =  -573.569035487     A.U. after   22 cycles
 SCF Done:  E(UB3LYP) =  -573.569335339     A.U. after   22 cycles
 SCF Done:  E(UB3LYP) =  -573.557320221     A.U. after   23 cycles
 SCF Done:  E(UB3LYP) =  -573.569870483     A.U. after   22 cycles
 SCF Done:  E(UB3LYP) =  -573.570385880     A.U. after   22 cycles
 SCF Done:  E(UB3LYP) =  -573.570500266     A.U. after   22 cycles
 SCF Done:  E(UB3LYP) =  -573.570708839     A.U. after   20 cycles
 SCF Done:  E(UB3LYP) =  -573.570791913     A.U. after   22 cycles
 SCF Done:  E(UB3LYP) =  -573.570842929     A.U. after   17 cycles
 SCF Done:  E(UB3LYP) =  -573.570854033     A.U. after   20 cycles
 SCF Done:  E(UB3LYP) =  -573.570859591     A.U. after   16 cycles
 SCF Done:  E(UB3LYP) =  -573.570859658     A.U. after   17 cycles
 SCF Done:  E(UB3LYP) =  -573.570860157     A.U. after   15 cycles
 Optimization completed.
    -- Stationary point found.
 Normal termination of Gaussian 16 at Sat Jan  6 06:51:59 2024.

 ----------------------------------------------------------------------
 #P Geom=AllCheck Guess=TCheck SCRF=Check GenChk UB3LYP/6-311++G(d,p) F
 req
 ----------------------------------------------------------------------

 Structure from the checkpoint file:  "058-an.chk"
 -------
 Reduced
 -------
 Charge = -2 Multiplicity = 1

                          Input orientation:
 ---------------------------------------------------------------------
 Center     Atomic      Atomic             Coordinates (Angstroms)
 Number     Number       Type             X           Y           Z
 ---------------------------------------------------------------------
      1          6           0       -0.551718    1.212229   -0.373785
      2          6           0       -1.432075    0.150671   -0.833004
      3          6           0       -1.214901   -1.198222   -0.657699
      4          6           0       -0.033947   -1.703539    0.032493
      5          6           0        0.832379   -0.695440    0.485734
      6          6           0        0.642746    0.728423    0.323302
      7          8           0       -0.859691    2.425914   -0.595514
      8          8           0        0.147748   -2.986575    0.185035
      9          6           0        1.634556    1.640041    0.851638
     10          6           0        2.865781    1.024277    1.572987
     11          8           0        1.625283    2.886756    0.799767
     12          1           0       -2.327435    0.494171   -1.354716
     13          1           0        3.441637    0.365875    0.911731
     14          1           0        2.573585    0.425665    2.444011
     15          1           0        3.496618    1.855462    1.898032
     16          6           0       -2.195255   -2.219805   -1.175308
     17          1           0        1.716569   -1.056132    1.001770
     18          1           0       -3.046334   -1.739690   -1.674838
     19          1           0       -2.564568   -2.853854   -0.358250
     20          1           0       -1.705679   -2.909509   -1.875826
 ---------------------------------------------------------------------

 SCF Done:  E(UB3LYP) =  -573.570860157     A.U. after    2 cycles

 Alpha  occ. eigenvalues --  -18.80322 -18.75930 -18.74412  -9.96010  -9.92371
 Alpha  occ. eigenvalues --   -9.91508  -9.91376  -9.90453  -9.89077  -9.87058
 Alpha  occ. eigenvalues --   -9.86933  -9.85595  -0.72698  -0.67697  -0.65335
 Alpha  occ. eigenvalues --   -0.53055  -0.49573  -0.46066  -0.41542  -0.38527
 Alpha  occ. eigenvalues --   -0.31246  -0.28798  -0.22653  -0.19079  -0.18385
 Alpha  occ. eigenvalues --   -0.17447  -0.16049  -0.15579  -0.14857  -0.13822
 Alpha  occ. eigenvalues --   -0.11661  -0.10149  -0.09366  -0.08842  -0.07099
 Alpha  occ. eigenvalues --   -0.06315  -0.05156  -0.04123   0.03204   0.03933
 Alpha  occ. eigenvalues --    0.04485   0.07612   0.08192   0.14296
 Alpha virt. eigenvalues --    0.17679   0.17849   0.20478   0.20968   0.21570
 Alpha virt. eigenvalues --    0.22122   0.22644   0.24366   0.24710   0.25400
 Alpha virt. eigenvalues --    0.26986   0.28512   0.28598   0.29241   0.30317

  Beta  occ. eigenvalues --  -18.80322 -18.75930 -18.74412  -9.96010  -9.92371
  Beta  occ. eigenvalues --   -9.91508  -9.91376  -9.90453  -9.89077  -9.87058
  Beta  occ. eigenvalues --   -9.86933  -9.85595  -0.72698  -0.67697  -0.65335
  Beta  occ. eigenvalues --   -0.53055  -0.49573  -0.46066  -0.41542  -0.38527
  Beta  occ. eigenvalues --   -0.31246  -0.28798  -0.22653  -0.19079  -0.18385
  Beta  occ. eigenvalues --   -0.17447  -0.16049  -0.15579  -0.14857  -0.13822
  Beta  occ. eigenvalues --   -0.11661  -0.10149  -0.09366  -0.08842  -0.07099
  Beta  occ. eigenvalues --   -0.06315  -0.05156  -0.04123   0.03204   0.03933
  Beta  occ. eigenvalues --    0.04485   0.07612   0.08192   0.14296
  Beta virt. eigenvalues --    0.17679   0.17849   0.20478   0.20968   0.21570
  Beta virt. eigenvalues --    0.22122   0.22644   0.24366   0.24710   0.25400
  Beta virt. eigenvalues --    0.26986   0.28512   0.28598   0.29241   0.30317

 Mulliken charges and spin densities:
               1          2
     1  C   -0.913091   0.000000
     2  C   -0.488510  -0.000000
     3  C    1.526372   0.000000
     4  C   -1.423401  -0.000000
     5  C   -0.839852   0.000000
     6  C    2.123393  -0.000000
     7  O   -0.458917  -0.000000
     8  O   -0.583425  -0.000000
     9  C   -0.419761   0.000000
    10  C   -0.376145  -0.000000
    11  O   -0.379515  -0.000000
    12  H    0.021770  -0.000000
    13  H    0.102230  -0.000000
    14  H    0.102141  -0.000000
    15  H    0.099124  -0.000000
    16  C   -0.448274  -0.000000
    17  H    0.039566   0.000000
    18  H    0.087835   0.000000
    19  H    0.114444   0.000000
    20  H    0.114013   0.000000
 Sum of Mulliken charges =  -2.00000  -0.00000

 Dipole moment (field-independent basis, Debye):
    X=             -1.1507    Y=             -1.9662    Z=             -0.4482  Tot=              2.3218
 Quadrupole moment (field-independent basis, Debye-Ang):
   XX=            -97.1164   YY=           -153.9438   ZZ=            -85.3616
   XY=             -5.3658   XZ=             -9.5266   YZ=             -0.1861

  Exact polarizability: 224.032  39.737 210.699  58.054  19.052 151.418
 Approx polarizability: 319.295  46.911 325.036  93.725  19.995 203.678

                      1                      2                      3
                      A                      A                      A
 Frequencies --     39.7075                61.4926               121.6684
 Red. masses --      3.9517                 6.0684                 1.1002
 Frc consts  --      0.0037                 0.0135                 0.0096
 IR Inten    --      7.6271                 2.3068                 0.4159

                      4                      5                      6
                      A                      A                      A
 Frequencies --    152.9586               163.3704               193.3235
 Red. masses --      5.1249                 1.0626                 5.4465
 Frc consts  --      0.0706                 0.0167                 0.1199
 IR Inten    --      4.8377                 0.0023                 3.1732

                      7                      8                      9
                      A                      A                      A
 Frequencies --    196.0850               286.5505               322.3008
 Red. masses --      3.6654                 3.2345                 7.1917
 Frc consts  --      0.0830                 0.1565                 0.4402
 IR Inten    --      0.9324                 2.4661                 0.2414

                     10                     11                     12
                      A                      A                      A
 Frequencies --    354.1530               384.7205               400.4526
 Red. masses --      6.1417                 7.2875                 4.6548
 Frc consts  --      0.4539                 0.6355                 0.4398
 IR Inten    --      0.5414                 2.7767                27.3055

                     13                     14                     15
                      A                      A                      A
 Frequencies --    428.4029               477.6961               547.5165
 Red. masses --      3.3342                10.0963                 4.7136
 Frc consts  --      0.3605                 1.3574                 0.8325
 IR Inten    --      0.6418                 7.9926                 9.0111

                     16                     17                     18
                      A                      A                      A
 Frequencies --    571.5959               641.9685               666.4825
 Red. masses --      2.6592                 4.0436                 2.5972
 Frc consts  --      0.5119                 0.9819                 0.6797
 IR Inten    --      4.4324                 4.2234                 0.5512

                     19                     20                     21
                      A                      A                      A
 Frequencies --    669.7120               715.0061               716.9215
 Red. masses --      5.0404                 6.2665                 2.0438
 Frc consts  --      1.3319                 1.8875                 0.6189
 IR Inten    --      9.1696                31.7883                 1.1471

                     22                     23                     24
                      A                      A                      A
 Frequencies --    797.2755               841.6476               848.0551
 Red. masses --      2.1600                 1.8500                 3.2448
 Frc consts  --      0.8089                 0.7721                 1.3749
 IR Inten    --      8.9446                40.8519                36.4297

                     25                     26                     27
                      A                      A                      A
 Frequencies --    898.9611              1000.5018              1004.5194
 Red. masses --      3.8139                 1.7909                 1.5320
 Frc consts  --      1.8159                 1.0562                 0.9108
 IR Inten    --    101.9623                 0.4877                23.6330

                     28                     29                     30
                      A                      A                      A
 Frequencies --   1017.1680              1037.1306              1140.5179
 Red. masses --      1.9168                 1.4971                 3.5524
 Frc consts  --      1.1685                 0.9488                 2.7226
 IR Inten    --     79.1913                 0.9370                20.3091

                     31                     32                     33
                      A                      A                      A
 Frequencies --   1169.3574              1222.1605              1249.0358
 Red. masses --      4.2790                 2.1754                 1.9715
 Frc consts  --      3.4473                 1.9144                 1.8122
 IR Inten    --    162.2702               186.0561                79.3843

                     34                     35                     36
                      A                      A                      A
 Frequencies --   1288.3811              1333.0447              1354.0368
 Red. masses --      3.9358                 1.2928                 2.9335
 Frc consts  --      3.8492                 1.3535                 3.1688
 IR Inten    --     11.9436                20.4433               125.7169

                     37                     38                     39
                      A                      A                      A
 Frequencies --   1376.0824              1414.5505              1446.9515
 Red. masses --      1.5880                 6.2290                 1.0507
 Frc consts  --      1.7717                 7.3436                 1.2961
 IR Inten    --     66.2194               379.4652                 0.4789

                     40                     41                     42
                      A                      A                      A
 Frequencies --   1456.2526              1469.5107              1470.8040
 Red. masses --      2.2780                 1.1525                 1.0532
 Frc consts  --      2.8463                 1.4663                 1.3424
 IR Inten    --    103.8202                33.0107                 1.5457

                     43                     44                     45
                      A                      A                      A
 Frequencies --   1473.6161              1492.3106              1592.0416
 Red. masses --      2.7946                 1.8941                 6.3656
 Frc consts  --      3.5755                 2.4852                 9.5060
 IR Inten    --    470.9114                17.0534               676.7695

                     46                     47                     48
                      A                      A                      A
 Frequencies --   1632.0909              2970.2552              2988.0931
 Red. masses --      7.5789                 1.0326                 1.0342
 Frc consts  --     11.8945                 5.3677                 5.4407
 IR Inten    --    258.7021               246.5031               116.4928

                     49                     50                     51
                      A                      A                      A
 Frequencies --   3002.1516              3032.2019              3040.7312
 Red. masses --      1.0977                 1.1020                 1.0998
 Frc consts  --      5.8291                 5.9698                 5.9912
 IR Inten    --    135.0401                49.2366                87.9924

                     52                     53                     54
                      A                      A                      A
 Frequencies --   3074.8248              3077.3512              3148.1288
 Red. masses --      1.0872                 1.1011                 1.0848
 Frc consts  --      6.0563                 6.1435                 6.3344
 IR Inten    --    124.4460                40.6094                36.7018

 - Thermochemistry -
 -------------------
 Temperature   298.150 Kelvin.  Pressure   1.00000 Atm.
 Atom     1 has atomic number  6 and mass  12.00000

 Molecular mass:   164.04734 amu.
 Principal axes and moments of inertia in atomic units:
                           1         2         3
     Eigenvalues --  1112.329342634.666953724.86638
           X            0.53761   0.68368  -0.49352
           Y            0.79719  -0.60281   0.03333
           Z            0.27471   0.41135   0.86910
 This molecule is an asymmetric top.
 Rotational symmetry number  1.
 Warning -- assumption of classical behavior for rotation
           may cause significant error
 Rotational temperatures (Kelvin)      0.07787     0.03287     0.02325
 Rotational constants (GHZ):           1.62249     0.68500     0.48451
 Zero-point vibrational energy     379645.8 (Joules/Mol)
                                   90.73753 (Kcal/Mol)
 Warning -- explicit consideration of  16 degrees of freedom as
           vibrations may cause significant error
 Vibrational temperatures:     57.13    88.47   175.05   220.07   235.05
          (Kelvin)            278.15   282.12   412.28   463.72   509.55
                              553.53   576.16   616.38   687.30   787.75
                              822.40   923.65   958.92   963.57  1028.73
                             1031.49  1147.10  1210.94  1220.16  1293.40
                             1439.50  1445.28  1463.48  1492.20  1640.95
                             1682.44  1758.42  1797.08  1853.69  1917.95
                             1948.16  1979.88  2035.22  2081.84  2095.22
                             2114.30  2116.16  2120.20  2147.10  2290.59
                             2348.21  4273.53  4299.20  4319.43  4362.66
                             4374.93  4423.99  4427.62  4529.46

 Zero-point correction=                           0.144599 (Hartree/Particle)
 Thermal correction to Energy=                    0.156066
 Thermal correction to Enthalpy=                  0.157010
 Thermal correction to Gibbs Free Energy=         0.106713
 Sum of electronic and zero-point Energies=           -573.426261
 Sum of electronic and thermal Energies=              -573.414794
 Sum of electronic and thermal Enthalpies=            -573.413850
 Sum of electronic and thermal Free Energies=         -573.464148

                     E (Thermal)             CV                S
                      KCal/Mol        Cal/Mol-Kelvin    Cal/Mol-Kelvin
 Total                   97.933             42.298            105.860
 Electronic               0.000              0.000              0.000
 Translational            0.889              2.981             41.193
 Rotational               0.889              2.981             30.769
 Vibrational             96.155             36.337             33.898
 Vibration     1          0.594              1.981              5.274
 Vibration     2          0.597              1.973              4.409
 Vibration     3          0.609              1.931              3.074
 Vibration     4          0.619              1.899              2.635
 Vibration     5          0.623              1.887              2.510
 Vibration     6          0.635              1.849              2.196
 Vibration     7          0.636              1.845              2.170
 Vibration     8          0.684              1.699              1.494
 Vibration     9          0.707              1.631              1.298
 Vibration    10          0.730              1.567              1.148
 Vibration    11          0.754              1.503              1.021
 Vibration    12          0.766              1.469              0.961
 Vibration    13          0.790              1.408              0.864
 Vibration    14          0.834              1.300              0.716
 Vibration    15          0.903              1.145              0.549
 Vibration    16          0.928              1.093              0.501

                           ! Non-Optimized Parameters !
 Normal termination of Gaussian 16 at Sat Jan  6 07:04:48 2024.
