 Q-Chem 5.4, Q-Chem, Inc., Pleasanton, CA (2021)
 Q-Chem 5.4.0 for Intel X86 EM64T Linux

User input:
--------------------------------------------------------------
$molecule
0 1
C                  3.3234690000     -0.9581070000     -0.0974500000
O                  1.9235980000     -1.1375320000      0.0929460000
C                  1.0866860000     -0.0989330000     -0.0876530000
C                  1.5354490000      1.1767980000     -0.4621950000
C                  0.6360260000      2.2218020000     -0.6375860000
C                 -0.7247290000      2.0223570000     -0.4451050000
C                 -1.1876560000      0.7618460000     -0.0731140000
C                 -2.6655010000      0.6004400000      0.1220080000
O                 -3.4399300000      1.5306530000     -0.0372700000
C                 -3.1600160000     -0.7321050000      0.5170690000
C                 -2.3204900000     -1.7581620000      0.6932030000
C                 -0.8456730000     -1.6527370000      0.5112720000
O                 -0.1683800000     -2.6506140000      0.6954410000
C                 -0.3009210000     -0.3226920000      0.1135140000
H                  3.7668320000     -1.9304680000      0.1070670000
H                  3.5522940000     -0.6627250000     -1.1264250000
H                  3.7301070000     -0.2185560000      0.5997880000
H                  2.5900620000      1.3554420000     -0.6175510000
H                  1.0072530000      3.1984200000     -0.9271980000
H                 -1.4416370000      2.8221010000     -0.5762330000
H                 -4.2323530000     -0.8219720000      0.6523850000
H                 -2.6644920000     -2.7452560000      0.9830880000
$end

$rem
BASIS  =  6-311++G(d,p)
GUI  =  2
JOB_TYPE  =  SP
METHOD  =  B3LYP
SCF_CONVERGENCE  = 8
SOLVENT_METHOD = sm12
$end

$smx
solvent dimethylformamide
charges CM5
$end

--------------------------------------------------------------

             Standard Nuclear Orientation (Angstroms)
    I     Atom           X                Y                Z
 ----------------------------------------------------------------
    1      C       3.3234690000    -0.9581070000    -0.0974500000
    2      O       1.9235980000    -1.1375320000     0.0929460000
    3      C       1.0866860000    -0.0989330000    -0.0876530000
    4      C       1.5354490000     1.1767980000    -0.4621950000
    5      C       0.6360260000     2.2218020000    -0.6375860000
    6      C      -0.7247290000     2.0223570000    -0.4451050000
    7      C      -1.1876560000     0.7618460000    -0.0731140000
    8      C      -2.6655010000     0.6004400000     0.1220080000
    9      O      -3.4399300000     1.5306530000    -0.0372700000
   10      C      -3.1600160000    -0.7321050000     0.5170690000
   11      C      -2.3204900000    -1.7581620000     0.6932030000
   12      C      -0.8456730000    -1.6527370000     0.5112720000
   13      O      -0.1683800000    -2.6506140000     0.6954410000
   14      C      -0.3009210000    -0.3226920000     0.1135140000
   15      H       3.7668320000    -1.9304680000     0.1070670000
   16      H       3.5522940000    -0.6627250000    -1.1264250000
   17      H       3.7301070000    -0.2185560000     0.5997880000
   18      H       2.5900620000     1.3554420000    -0.6175510000
   19      H       1.0072530000     3.1984200000    -0.9271980000
   20      H      -1.4416370000     2.8221010000    -0.5762330000
   21      H      -4.2323530000    -0.8219720000     0.6523850000
   22      H      -2.6644920000    -2.7452560000     0.9830880000
 ----------------------------------------------------------------

   15    -649.8046455390      3.06e-09  Convergence criterion met
 Total energy in the final basis set =     -649.8251103975

                    Orbital Energies (a.u.)
 --------------------------------------------------------------

 Alpha MOs
 -- Occupied --
-19.1658 -19.1308 -19.1239 -10.2800 -10.2778 -10.2650 -10.2204 -10.2092
-10.2079 -10.2075 -10.2053 -10.1992 -10.1946 -10.1899  -1.0872  -1.0635
 -1.0563  -0.8861  -0.8376  -0.7825  -0.7761  -0.7136  -0.6960  -0.6462
 -0.6386  -0.5826  -0.5438  -0.5375  -0.5137  -0.5018  -0.4843  -0.4790
 -0.4659  -0.4547  -0.4461  -0.4345  -0.4244  -0.4179  -0.4140  -0.3916
 -0.3866  -0.3827  -0.3463  -0.3390  -0.3045  -0.2821  -0.2814  -0.2647
 -0.2464

          Ground-State Mulliken Net Atomic Charges

     Atom                 Charge (a.u.)
  ----------------------------------------
      1 C                    -0.141196
      2 O                    -0.185766
      3 C                     0.114723
      4 C                     1.315624
      5 C                     0.250675
      6 C                    -0.210941
      7 C                    -0.900722
      8 C                    -0.944693
      9 O                    -0.320668
     10 C                     0.207509
     11 C                     0.431435
     12 C                    -1.296794
     13 O                    -0.305218
     14 C                    -0.165682
     15 H                     0.215404
     16 H                     0.230767
     17 H                     0.230435
     18 H                     0.370630
     19 H                     0.336015
     20 H                     0.152159
     21 H                     0.317282
     22 H                     0.299022
  ----------------------------------------
  Sum of atomic charges =     0.000000

                    Cartesian Multipole Moments
 -----------------------------------------------------------------
    Charge (ESU x 10^10)
                 0.0000
    Dipole Moment (Debye)
         X       4.1331      Y       1.3970      Z      -0.7788
       Tot       4.4318
    Quadrupole Moments (Debye-Ang)
        XX     -70.7256     XY      12.3809     YY     -86.1899
        XZ      -4.3437     YZ      -0.1917     ZZ     -81.3608

 Total job time:  297.17s(wall), 2313.90s(cpu)
        *  Thank you very much for using Q-Chem.  Have a nice day.  *
