 Gaussian 16, Revision A.03,
 Gaussian 16:  ES64L-G16RevA.03 25-Dec-2016

 --------------------------------------
 #P UB3LYP/6-311++G(d,p) nosym opt freq
 --------------------------------------

 --------
 Oxidized
 --------
 Symbolic Z-matrix:
 Charge =  0 Multiplicity = 1

 SCF Done:  E(UB3LYP) =  -649.806659025     A.U. after   16 cycles
 Optimization completed.
    -- Stationary point found.
 Normal termination of Gaussian 16 at Sun Jan  7 20:15:03 2024.

 ----------------------------------------------------------------------
 #P Geom=AllCheck Guess=TCheck SCRF=Check GenChk UB3LYP/6-311++G(d,p) F
 req
 ----------------------------------------------------------------------

 Structure from the checkpoint file:  "258.chk"
 --------
 Oxidized
 --------
 Charge =  0 Multiplicity = 1

                          Input orientation:
 ---------------------------------------------------------------------
 Center     Atomic      Atomic             Coordinates (Angstroms)
 Number     Number       Type             X           Y           Z
 ---------------------------------------------------------------------
      1          6           0        3.323469   -0.958107   -0.097450
      2          8           0        1.923598   -1.137532    0.092946
      3          6           0        1.086686   -0.098933   -0.087653
      4          6           0        1.535449    1.176798   -0.462195
      5          6           0        0.636026    2.221802   -0.637586
      6          6           0       -0.724729    2.022357   -0.445105
      7          6           0       -1.187656    0.761846   -0.073114
      8          6           0       -2.665501    0.600440    0.122008
      9          8           0       -3.439930    1.530653   -0.037270
     10          6           0       -3.160016   -0.732105    0.517069
     11          6           0       -2.320490   -1.758162    0.693203
     12          6           0       -0.845673   -1.652737    0.511272
     13          8           0       -0.168380   -2.650614    0.695441
     14          6           0       -0.300921   -0.322692    0.113514
     15          1           0        3.766832   -1.930468    0.107067
     16          1           0        3.552294   -0.662725   -1.126425
     17          1           0        3.730107   -0.218556    0.599788
     18          1           0        2.590062    1.355442   -0.617551
     19          1           0        1.007253    3.198420   -0.927198
     20          1           0       -1.441637    2.822101   -0.576233
     21          1           0       -4.232353   -0.821972    0.652385
     22          1           0       -2.664492   -2.745256    0.983088
 ---------------------------------------------------------------------

 SCF Done:  E(UB3LYP) =  -649.806659025     A.U. after    1 cycles

 Alpha  occ. eigenvalues --  -19.17552 -19.12980 -19.12301 -10.27930 -10.27715
 Alpha  occ. eigenvalues --  -10.27013 -10.24190 -10.21178 -10.21078 -10.21062
 Alpha  occ. eigenvalues --  -10.20824 -10.20596 -10.20218 -10.19340  -1.09683
 Alpha  occ. eigenvalues --   -1.06192  -1.05490  -0.89037  -0.84025  -0.78944
 Alpha  occ. eigenvalues --   -0.78098  -0.72615  -0.69832  -0.65041  -0.64468
 Alpha  occ. eigenvalues --   -0.58990  -0.55097  -0.54194  -0.51914  -0.50602
 Alpha  occ. eigenvalues --   -0.49349  -0.49109  -0.47072  -0.45470  -0.44792
 Alpha  occ. eigenvalues --   -0.44379  -0.42829  -0.42648  -0.41249  -0.39646
 Alpha  occ. eigenvalues --   -0.39420  -0.38776  -0.35758  -0.34782  -0.30530
 Alpha  occ. eigenvalues --   -0.28612  -0.27913  -0.26343  -0.25172
 Alpha virt. eigenvalues --   -0.12215  -0.04812  -0.03838  -0.01745   0.00053
 Alpha virt. eigenvalues --    0.00299   0.01631   0.02234   0.02526   0.02954
 Alpha virt. eigenvalues --    0.02957   0.04180   0.05220   0.05305   0.05767

  Beta  occ. eigenvalues --  -19.17552 -19.12980 -19.12301 -10.27930 -10.27715
  Beta  occ. eigenvalues --  -10.27013 -10.24190 -10.21178 -10.21078 -10.21062
  Beta  occ. eigenvalues --  -10.20824 -10.20596 -10.20218 -10.19340  -1.09683
  Beta  occ. eigenvalues --   -1.06192  -1.05490  -0.89037  -0.84025  -0.78944
  Beta  occ. eigenvalues --   -0.78098  -0.72615  -0.69832  -0.65041  -0.64468
  Beta  occ. eigenvalues --   -0.58990  -0.55097  -0.54194  -0.51914  -0.50602
  Beta  occ. eigenvalues --   -0.49349  -0.49109  -0.47072  -0.45470  -0.44792
  Beta  occ. eigenvalues --   -0.44379  -0.42829  -0.42648  -0.41249  -0.39646
  Beta  occ. eigenvalues --   -0.39420  -0.38776  -0.35758  -0.34782  -0.30530
  Beta  occ. eigenvalues --   -0.28612  -0.27913  -0.26343  -0.25172
  Beta virt. eigenvalues --   -0.12215  -0.04812  -0.03838  -0.01745   0.00053
  Beta virt. eigenvalues --    0.00299   0.01631   0.02234   0.02526   0.02954
  Beta virt. eigenvalues --    0.02957   0.04180   0.05220   0.05305   0.05767

 Mulliken charges and spin densities:
               1          2
     1  C   -0.273699   0.000000
     2  O   -0.101200   0.000000
     3  C    0.322051  -0.000000
     4  C   -0.003650  -0.000000
     5  C   -0.367573   0.000000
     6  C    0.055843  -0.000000
     7  C   -0.037942   0.000000
     8  C   -0.358903  -0.000000
     9  O   -0.235803   0.000000
    10  C   -0.146596  -0.000000
    11  C    0.054876  -0.000000
    12  C   -0.439721   0.000000
    13  O   -0.225037   0.000000
    14  C    0.286182   0.000000
    15  H    0.200410  -0.000000
    16  H    0.153116   0.000000
    17  H    0.153058  -0.000000
    18  H    0.168474  -0.000000
    19  H    0.189547   0.000000
    20  H    0.178248  -0.000000
    21  H    0.214537  -0.000000
    22  H    0.213782   0.000000
 Sum of Mulliken charges =  -0.00000  -0.00000

 Dipole moment (field-independent basis, Debye):
    X=              3.2485    Y=              1.0888    Z=             -0.6101  Tot=              3.4800
 Quadrupole moment (field-independent basis, Debye-Ang):
   XX=            -72.7112   YY=            -86.2300   ZZ=            -81.4225
   XY=             10.9983   XZ=             -3.7765   YZ=             -0.0252

  Exact polarizability: 181.847  -9.702 161.256  -8.887 -21.861  78.783
 Approx polarizability: 282.375 -43.687 294.949  -6.376 -42.194 124.472

                      1                      2                      3
                      A                      A                      A
 Frequencies --     44.7235                64.6127                98.9611
 Red. masses --      5.9324                 6.2242                 3.8780
 Frc consts  --      0.0070                 0.0153                 0.0224
 IR Inten    --      6.2235                 5.8078                 3.7887

                      4                      5                      6
                      A                      A                      A
 Frequencies --    170.3400               195.4554               228.0606
 Red. masses --      3.3703                 4.5476                 1.9110
 Frc consts  --      0.0576                 0.1024                 0.0586
 IR Inten    --      0.0735                 2.2625                 0.0132

                      7                      8                      9
                      A                      A                      A
 Frequencies --    249.2919               277.4920               318.1635
 Red. masses --      3.2103                 2.2005                 4.3756
 Frc consts  --      0.1175                 0.0998                 0.2610
 IR Inten    --      0.0369                 0.2329                 0.7823

                     10                     11                     12
                      A                      A                      A
 Frequencies --    345.4160               384.8301               446.3338
 Red. masses --      7.3987                10.0993                11.4969
 Frc consts  --      0.5201                 0.8812                 1.3494
 IR Inten    --      4.0598                 6.9664                13.2036

                     13                     14                     15
                      A                      A                      A
 Frequencies --    466.7095               498.1578               525.1121
 Red. masses --      4.2231                 5.9480                 7.2805
 Frc consts  --      0.5420                 0.8697                 1.1828
 IR Inten    --      0.1887                 0.1040                12.5524

                     16                     17                     18
                      A                      A                      A
 Frequencies --    529.6038               617.6371               634.7569
 Red. masses --      3.7262                 4.8718                 2.4675
 Frc consts  --      0.6158                 1.0950                 0.5858
 IR Inten    --      0.2239                 1.9250                 0.1332

                     19                     20                     21
                      A                      A                      A
 Frequencies --    650.0443               711.0267               762.8863
 Red. masses --      5.3669                 3.2665                 6.3914
 Frc consts  --      1.3362                 0.9730                 2.1916
 IR Inten    --     15.6769                 7.4165                 2.0904

                     22                     23                     24
                      A                      A                      A
 Frequencies --    773.8646               776.6867               819.9058
 Red. masses --      2.3081                 5.6410                 2.7942
 Frc consts  --      0.8144                 2.0049                 1.1067
 IR Inten    --     32.9967                 0.7843                32.0189

                     25                     26                     27
                      A                      A                      A
 Frequencies --    871.0454               898.4530               915.5593
 Red. masses --      1.9677                 6.6891                 1.4382
 Frc consts  --      0.8796                 3.1813                 0.7103
 IR Inten    --     32.4843                 3.2430                 0.7186

                     28                     29                     30
                      A                      A                      A
 Frequencies --    998.2008              1016.1792              1037.3175
 Red. masses --      1.3153                 1.2529                 4.6137
 Frc consts  --      0.7722                 0.7623                 2.9250
 IR Inten    --      0.2829                 0.0000                84.2758

                     31                     32                     33
                      A                      A                      A
 Frequencies --   1071.7922              1112.6177              1128.7647
 Red. masses --      5.7583                 1.8224                 1.9178
 Frc consts  --      3.8973                 1.3292                 1.4397
 IR Inten    --     43.8779                 7.6815                42.7918

                     34                     35                     36
                      A                      A                      A
 Frequencies --   1164.0998              1181.7416              1198.1240
 Red. masses --      1.2728                 1.5013                 1.4556
 Frc consts  --      1.0162                 1.2353                 1.2311
 IR Inten    --      0.8124                46.2261                13.7133

                     37                     38                     39
                      A                      A                      A
 Frequencies --   1211.5945              1268.0617              1299.7343
 Red. masses --      1.3327                 2.7595                 2.6011
 Frc consts  --      1.1526                 2.6143                 2.5889
 IR Inten    --      2.2790               108.7097               104.6818

                     40                     41                     42
                      A                      A                      A
 Frequencies --   1317.3574              1355.3875              1392.1197
 Red. masses --      4.6072                 7.4109                 1.9017
 Frc consts  --      4.7108                 8.0214                 2.1714
 IR Inten    --    328.3476                 6.2264                 8.1212

                     43                     44                     45
                      A                      A                      A
 Frequencies --   1464.5616              1469.4102              1496.1786
 Red. masses --      2.5928                 1.5877                 1.0460
 Frc consts  --      3.2767                 2.0197                 1.3796
 IR Inten    --     40.8685                12.5071                10.0154

                     46                     47                     48
                      A                      A                      A
 Frequencies --   1498.0951              1502.6357              1606.5108
 Red. masses --      1.6471                 1.1906                 6.2688
 Frc consts  --      2.1780                 1.5839                 9.5323
 IR Inten    --     59.8877                 5.0081                28.5729

                     49                     50                     51
                      A                      A                      A
 Frequencies --   1620.4109              1672.1404              1716.4271
 Red. masses --      5.7816                 8.4606                10.3554
 Frc consts  --      8.9444                13.9379                17.9749
 IR Inten    --    141.7021                35.8768               151.5659

                     52                     53                     54
                      A                      A                      A
 Frequencies --   1724.4372              3010.2938              3073.5293
 Red. masses --     11.0954                 1.0345                 1.1066
 Frc consts  --     19.4396                 5.5232                 6.1590
 IR Inten    --    306.3094                57.8491                31.6239

                     55                     56                     57
                      A                      A                      A
 Frequencies --   3143.1469              3172.0410              3175.4883
 Red. masses --      1.0994                 1.0870                 1.0891
 Frc consts  --      6.3995                 6.4442                 6.4704
 IR Inten    --     13.5785                 1.1972                 8.1375

                     58                     59                     60
                      A                      A                      A
 Frequencies --   3190.3841              3208.4948              3214.8885
 Red. masses --      1.0990                 1.0920                 1.0922
 Frc consts  --      6.5908                 6.6234                 6.6508
 IR Inten    --      6.4220                 1.1883                 6.3357

 - Thermochemistry -
 -------------------
 Temperature   298.150 Kelvin.  Pressure   1.00000 Atm.
 Atom     1 has atomic number  6 and mass  12.00000

 Molecular mass:   188.04734 amu.
 Principal axes and moments of inertia in atomic units:
                           1         2         3
     Eigenvalues --  1585.652122837.362654411.46509
           X            0.98303   0.15386   0.09993
           Y           -0.17434   0.95306   0.24757
           Z           -0.05715  -0.26079   0.96370
 This molecule is an asymmetric top.
 Rotational symmetry number  1.
 Warning -- assumption of classical behavior for rotation
           may cause significant error
 Rotational temperatures (Kelvin)      0.05462     0.03053     0.01963
 Rotational constants (GHZ):           1.13817     0.63606     0.40910
 Zero-point vibrational energy     430579.7 (Joules/Mol)
                                  102.91101 (Kcal/Mol)
 Warning -- explicit consideration of  17 degrees of freedom as
           vibrations may cause significant error
 Vibrational temperatures:     64.35    92.96   142.38   245.08   281.22
          (Kelvin)            328.13   358.68   399.25   457.77   496.98
                              553.68   642.17   671.49   716.74   755.52
                              761.98   888.64   913.27   935.27  1023.01
                             1097.62  1113.42  1117.48  1179.66  1253.24
                             1292.67  1317.29  1436.19  1462.06  1492.47
                             1542.07  1600.81  1624.04  1674.88  1700.26
                             1723.83  1743.21  1824.46  1870.03  1895.38
                             1950.10  2002.95  2107.18  2114.15  2152.67
                             2155.42  2161.96  2311.41  2331.41  2405.84
                             2469.56  2481.08  4331.14  4422.12  4522.29
                             4563.86  4568.82  4590.25  4616.31  4625.51

 Zero-point correction=                           0.163999 (Hartree/Particle)
 Thermal correction to Energy=                    0.175462
 Thermal correction to Enthalpy=                  0.176407
 Thermal correction to Gibbs Free Energy=         0.125979
 Sum of electronic and zero-point Energies=           -649.642660
 Sum of electronic and thermal Energies=              -649.631197
 Sum of electronic and thermal Enthalpies=            -649.630252
 Sum of electronic and thermal Free Energies=         -649.680680

                     E (Thermal)             CV                S
                      KCal/Mol        Cal/Mol-Kelvin    Cal/Mol-Kelvin
 Total                  110.104             43.891            106.134
 Electronic               0.000              0.000              0.000
 Translational            0.889              2.981             41.600
 Rotational               0.889              2.981             31.363
 Vibrational            108.327             37.929             33.171
 Vibration     1          0.595              1.980              5.038
 Vibration     2          0.597              1.971              4.311
 Vibration     3          0.604              1.950              3.475
 Vibration     4          0.625              1.879              2.432
 Vibration     5          0.636              1.846              2.175
 Vibration     6          0.651              1.798              1.894
 Vibration     7          0.662              1.764              1.736
 Vibration     8          0.678              1.715              1.549
 Vibration     9          0.705              1.639              1.320
 Vibration    10          0.724              1.585              1.187
 Vibration    11          0.754              1.503              1.020
 Vibration    12          0.806              1.369              0.807
 Vibration    13          0.824              1.324              0.747
 Vibration    14          0.854              1.254              0.663
 Vibration    15          0.880              1.194              0.598
 Vibration    16          0.885              1.184              0.588
 Vibration    17          0.977              0.995              0.420

                           ! Non-Optimized Parameters !
 Normal termination of Gaussian 16 at Sun Jan  7 20:43:35 2024.
