 Q-Chem 5.4, Q-Chem, Inc., Pleasanton, CA (2021)
 Q-Chem 5.4.0 for Intel X86 EM64T Linux

User input:
--------------------------------------------------------------
$molecule
-1 2
C                  3.5783890000     -1.4362960000      0.3361760000
C                  2.5744380000     -0.5397370000     -0.3365460000
O                  2.4018770000     -0.4421830000     -1.5232360000
O                  1.9101730000      0.1999920000      0.5965760000
C                  0.7001170000      0.8116620000      0.2448320000
C                  0.7145690000      2.1884070000      0.1511340000
C                 -0.4793410000      2.8827040000     -0.0992720000
C                 -1.6594690000      2.1802160000     -0.2429850000
C                 -1.6876890000      0.7770110000     -0.1430840000
C                 -2.9934850000      0.0963580000     -0.2812580000
O                 -4.0533250000      0.7416700000     -0.4981320000
C                 -2.9666510000     -1.3314050000     -0.1441920000
C                 -1.8086850000     -2.0332610000      0.0896660000
C                 -0.5119730000     -1.4259880000      0.2162920000
O                  0.5220380000     -2.1256480000      0.4076640000
C                 -0.4830990000      0.0477850000      0.1027090000
H                  4.0882370000     -0.9118960000      1.1470480000
H                  4.2957090000     -1.8036480000     -0.3967350000
H                  3.0150050000     -2.2691480000      0.7627240000
H                  1.6574670000      2.7082890000      0.2768610000
H                 -0.4675980000      3.9653630000     -0.1770120000
H                 -2.6021950000      2.6800530000     -0.4314950000
H                 -3.9194250000     -1.8446730000     -0.2384930000
H                 -1.8250840000     -3.1156290000      0.1807580000
$end
$rem
MAX_SCF_CYCLES=200
BASIS  =  6-311++G(d,p)
GUI  =  2
JOB_TYPE  =  SP
METHOD  =  B3LYP
SOLVENT_METHOD = COSMO
$end
$solvent
dielectric 37.219
opticaldielectric 1.43
$end

--------------------------------------------------------------

             Standard Nuclear Orientation (Angstroms)
    I     Atom           X                Y                Z
 ----------------------------------------------------------------
    1      C      -3.9803654332     0.6411213072     0.2363415052
    2      C      -2.7901070715    -0.0543949145    -0.3668440035
    3      O      -2.5586552289    -0.1612142446    -1.5426615544
    4      O      -2.0219905863    -0.6030610411     0.6170900376
    5      C      -0.7002315506    -0.9646959241     0.3267922312
    6      C      -0.4281159933    -2.3172691922     0.2965656095
    7      C       0.8911883145    -2.7589911274     0.1108495561
    8      C       1.9061795080    -1.8338729885    -0.0333524514
    9      C       1.6418694077    -0.4523390596     0.0022147320
   10      C       2.7840517372     0.4776471690    -0.1320569889
   11      O       3.9609651974     0.0574124950    -0.2901716970
   12      C       2.4595172001     1.8732773506    -0.0619993958
   13      C       1.1744076991     2.3291659526     0.1078117318
   14      C       0.0264469641     1.4723337880     0.2274003768
   15      O      -1.1354562771     1.9500266181     0.3582305112
   16      C       0.3051088523     0.0211360118     0.1814196432
   17      H      -4.4003862791     0.0552429480     1.0565748749
   18      H      -4.7310510677     0.8227440119    -0.5318630767
   19      H      -3.6158294493     1.5887675316     0.6389173756
   20      H      -1.2479696679    -3.0155234210     0.4207517402
   21      H       1.1049533718    -3.8228810873     0.0830184664
   22      H       2.9376448375    -2.1349930272    -0.1730354999
   23      H       3.2892593767     2.5683572332    -0.1542322027
   24      H       0.9647762312     3.3942649539     0.1491146655
 ----------------------------------------------------------------

   10    -763.2770294955      8.88e-06  Convergence criterion met
 Total energy in the final basis set =     -763.2770294955
    5    -763.3637165411      4.59e-06  Convergence criterion met
 Total energy in the final basis set =     -763.3637165411

                    Orbital Energies (a.u.)
 --------------------------------------------------------------

 Alpha MOs
 -- Occupied --
-19.1741 -19.1225 -19.0836 -19.0825 -10.3139 -10.2426 -10.2311 -10.2281
-10.1884 -10.1827 -10.1793 -10.1782 -10.1728 -10.1694 -10.1666 -10.1656
 -1.1181  -1.0385  -1.0084  -1.0057  -0.8671  -0.8098  -0.7768  -0.7491
 -0.7347  -0.6836  -0.6429  -0.6248  -0.6023  -0.5366  -0.5156  -0.5102
 -0.4973  -0.4870  -0.4762  -0.4707  -0.4534  -0.4304  -0.4259  -0.4192
 -0.4096  -0.4014  -0.3996  -0.3916  -0.3854  -0.3799  -0.3605  -0.3598
 -0.3528  -0.3270  -0.2937  -0.2840  -0.2594  -0.2579  -0.2516  -0.2433
 -0.1605

 Beta MOs
 -- Occupied --
-19.1741 -19.1225 -19.0774 -19.0760 -10.3139 -10.2425 -10.2296 -10.2265
-10.1880 -10.1821 -10.1788 -10.1779 -10.1727 -10.1694 -10.1651 -10.1641
 -1.1180  -1.0384  -0.9975  -0.9943  -0.8652  -0.8044  -0.7760  -0.7469
 -0.7337  -0.6744  -0.6419  -0.6215  -0.6000  -0.5344  -0.5140  -0.5078
 -0.4967  -0.4860  -0.4743  -0.4694  -0.4522  -0.4276  -0.4198  -0.4137
 -0.4037  -0.3991  -0.3966  -0.3891  -0.3806  -0.3603  -0.3579  -0.3547
 -0.3468  -0.3255  -0.2936  -0.2559  -0.2532  -0.2511  -0.2457  -0.2376

          Ground-State Mulliken Net Atomic Charges

     Atom                 Charge (a.u.)    Spin (a.u.)
  --------------------------------------------------------
      1 C                    -0.504511       0.002680
      2 C                     0.104194      -0.000465
      3 O                    -0.322428      -0.000306
      4 O                    -0.017267      -0.002269
      5 C                    -0.310697       0.047484
      6 C                     0.105157       0.025091
      7 C                    -0.592087       0.029937
      8 C                     0.011352       0.035664
      9 C                     0.317159       0.030552
     10 C                    -0.337703       0.102876
     11 O                    -0.521772       0.219079
     12 C                    -0.116199       0.094534
     13 C                    -0.194204       0.093146
     14 C                    -0.253476       0.092263
     15 O                    -0.498948       0.234906
     16 C                     0.533492       0.021346
     17 H                     0.184744       0.000334
     18 H                     0.172058      -0.000266
     19 H                     0.210259      -0.000803
     20 H                     0.220633      -0.002125
     21 H                     0.219072      -0.002404
     22 H                     0.184067      -0.001885
     23 H                     0.203720      -0.009278
     24 H                     0.203385      -0.010092
  --------------------------------------------------------
  Sum of atomic charges =    -1.000000

                    Cartesian Multipole Moments
 -----------------------------------------------------------------
    Charge (ESU x 10^10)
                -4.8032
    Dipole Moment (Debye)
         X      -6.3304      Y      -3.9422      Z       2.4994
       Tot       7.8652
    Quadrupole Moments (Debye-Ang)
        XX    -131.2615     XY       3.6950     YY     -94.0850
        XZ      -3.2003     YZ      -2.0877     ZZ    -104.3614

 Total job time:  59.95s(wall), 457.11s(cpu)
        *  Thank you very much for using Q-Chem.  Have a nice day.  *
