 Gaussian 16, Revision A.03,
 Gaussian 16:  ES64L-G16RevA.03 25-Dec-2016

 ----------------------------------------------------------------------
 #P UB3LYP/6-311++G(d,p) nosym opt freq SCRF=(PCM,Solvent=n,n-DiMethylF
 ormamide)
 ----------------------------------------------------------------------

 -------
 Reduced
 -------
 Symbolic Z-matrix:
 Charge = -2 Multiplicity = 1

 SCF Done:  E(UB3LYP) =  -764.615148272     A.U. after   18 cycles
 SCF Done:  E(UB3LYP) =  -764.615338001     A.U. after   12 cycles
 SCF Done:  E(UB3LYP) =  -764.615345675     A.U. after   11 cycles
 SCF Done:  E(UB3LYP) =  -764.615347121     A.U. after   11 cycles
 SCF Done:  E(UB3LYP) =  -764.615347479     A.U. after    9 cycles
 SCF Done:  E(UB3LYP) =  -764.615347769     A.U. after   10 cycles
 SCF Done:  E(UB3LYP) =  -764.615348022     A.U. after   11 cycles
 SCF Done:  E(UB3LYP) =  -764.615348069     A.U. after   10 cycles
 Optimization completed.
    -- Stationary point found.
 Normal termination of Gaussian 16 at Sun Feb 11 15:30:17 2024.

 ----------------------------------------------------------------------
 #P Geom=AllCheck Guess=TCheck SCRF=Check GenChk UB3LYP/6-311++G(d,p) F
 req
 ----------------------------------------------------------------------

 Structure from the checkpoint file:  "260-an.chk"
 -------
 Reduced
 -------
 Charge = -2 Multiplicity = 1

                          Input orientation:
 ---------------------------------------------------------------------
 Center     Atomic      Atomic             Coordinates (Angstroms)
 Number     Number       Type             X           Y           Z
 ---------------------------------------------------------------------
      1          6           0       -2.754869   -2.158602    0.587737
      2          8           0       -2.317352   -1.374156   -0.519320
      3          6           0       -1.076450   -0.759689   -0.327546
      4          6           0       -1.059452    0.497322    0.339160
      5          8           0       -2.279082    0.959778    0.841338
      6          6           0       -2.827077    2.050271    0.102191
      7          6           0        0.109059    1.255794    0.556107
      8          8           0        0.120629    2.403645    1.184030
      9          6           0        1.314318    0.650787    0.019503
     10          6           0        2.559706    1.316259    0.163413
     11          6           0        3.737568    0.789840   -0.327706
     12          6           0        3.721217   -0.457589   -0.998294
     13          6           0        2.527967   -1.135497   -1.149593
     14          6           0        1.298650   -0.625378   -0.656748
     15          6           0        0.075782   -1.386528   -0.846797
     16          8           0        0.065523   -2.541784   -1.458979
     17          1           0       -2.028074   -2.942632    0.828609
     18          1           0       -2.916742   -1.532518    1.471787
     19          1           0       -3.700305   -2.624473    0.300121
     20          1           0       -2.127836    2.890422    0.078166
     21          1           0       -3.745894    2.353161    0.609738
     22          1           0       -3.069881    1.742586   -0.922702
     23          1           0        2.556884    2.270218    0.679119
     24          1           0        4.672153    1.328579   -0.202691
     25          1           0        4.643047   -0.877356   -1.389794
     26          1           0        2.500508   -2.092461   -1.659349
 ---------------------------------------------------------------------

 SCF Done:  E(UB3LYP) =  -764.615348069     A.U. after    2 cycles

 Alpha  occ. eigenvalues --  -19.11012 -19.10962 -19.01343 -19.01336 -10.19552
 Alpha  occ. eigenvalues --  -10.19338 -10.17231 -10.17180 -10.16889 -10.16813
 Alpha  occ. eigenvalues --  -10.14851 -10.14801 -10.14539 -10.14533 -10.13903
 Alpha  occ. eigenvalues --  -10.13862  -1.02851  -1.00882  -0.92122  -0.91772
 Alpha  occ. eigenvalues --   -0.82463  -0.76519  -0.72190  -0.71178  -0.68650
 Alpha  occ. eigenvalues --   -0.65220  -0.63322  -0.57710  -0.57078  -0.53092
 Alpha  occ. eigenvalues --   -0.49294  -0.49173  -0.46996  -0.44435  -0.43287
 Alpha  occ. eigenvalues --   -0.43250  -0.42597  -0.41686  -0.41368  -0.39661
 Alpha  occ. eigenvalues --   -0.39175  -0.36746  -0.35762  -0.35720  -0.33932
 Alpha  occ. eigenvalues --   -0.32927  -0.32416  -0.30986  -0.30529  -0.30338
 Alpha  occ. eigenvalues --   -0.25532  -0.25232  -0.22756  -0.22016  -0.20174
 Alpha  occ. eigenvalues --   -0.19397  -0.19290  -0.11356
 Alpha virt. eigenvalues --   -0.00530  -0.00132   0.00698   0.01446   0.01558
 Alpha virt. eigenvalues --    0.02177   0.02857   0.03127   0.04160   0.04699
 Alpha virt. eigenvalues --    0.04829   0.05634   0.06045   0.06688   0.07047

  Beta  occ. eigenvalues --  -19.11012 -19.10962 -19.01343 -19.01336 -10.19552
  Beta  occ. eigenvalues --  -10.19338 -10.17231 -10.17180 -10.16889 -10.16813
  Beta  occ. eigenvalues --  -10.14851 -10.14801 -10.14539 -10.14533 -10.13903
  Beta  occ. eigenvalues --  -10.13862  -1.02851  -1.00882  -0.92122  -0.91772
  Beta  occ. eigenvalues --   -0.82463  -0.76519  -0.72190  -0.71178  -0.68650
  Beta  occ. eigenvalues --   -0.65220  -0.63322  -0.57710  -0.57078  -0.53092
  Beta  occ. eigenvalues --   -0.49294  -0.49173  -0.46996  -0.44435  -0.43287
  Beta  occ. eigenvalues --   -0.43250  -0.42597  -0.41686  -0.41368  -0.39661
  Beta  occ. eigenvalues --   -0.39175  -0.36746  -0.35762  -0.35720  -0.33932
  Beta  occ. eigenvalues --   -0.32927  -0.32416  -0.30986  -0.30529  -0.30338
  Beta  occ. eigenvalues --   -0.25532  -0.25232  -0.22756  -0.22016  -0.20174
  Beta  occ. eigenvalues --   -0.19397  -0.19290  -0.11356
  Beta virt. eigenvalues --   -0.00530  -0.00132   0.00698   0.01446   0.01558
  Beta virt. eigenvalues --    0.02177   0.02857   0.03127   0.04160   0.04699
  Beta virt. eigenvalues --    0.04829   0.05634   0.06045   0.06688   0.07047

 Mulliken charges and spin densities:
               1          2
     1  C   -0.252518   0.000000
     2  O   -0.197483   0.000000
     3  C    0.426460   0.000000
     4  C   -0.084616  -0.000000
     5  O   -0.200961   0.000000
     6  C   -0.252097   0.000000
     7  C   -0.963028  -0.000000
     8  O   -0.710867  -0.000000
     9  C    0.594448   0.000000
    10  C   -0.044794  -0.000000
    11  C   -0.459497   0.000000
    12  C   -0.470683  -0.000000
    13  C   -0.040396  -0.000000
    14  C    0.639553   0.000000
    15  C   -0.753670  -0.000000
    16  O   -0.718762  -0.000000
    17  H    0.140848  -0.000000
    18  H    0.166337   0.000000
    19  H    0.140732   0.000000
    20  H    0.167545   0.000000
    21  H    0.138359  -0.000000
    22  H    0.131275  -0.000000
    23  H    0.142992   0.000000
    24  H    0.159447   0.000000
    25  H    0.159076   0.000000
    26  H    0.142303   0.000000
 Sum of Mulliken charges =  -2.00000   0.00000

 Dipole moment (field-independent basis, Debye):
    X=             -1.5219    Y=              1.1684    Z=              1.8209  Tot=              2.6452
 Quadrupole moment (field-independent basis, Debye-Ang):
   XX=           -114.6104   YY=           -144.7571   ZZ=           -120.2535
   XY=             -2.5140   XZ=              0.1998   YZ=            -27.5912

  Exact polarizability: 369.050  12.347 277.821 -30.383  58.481 191.527
 Approx polarizability: 403.331  15.103 310.060 -32.598  71.046 213.271

                      1                      2                      3
                      A                      A                      A
 Frequencies --     44.5822                66.9829                80.4040
 Red. masses --      2.8539                 2.9485                 5.4190
 Frc consts  --      0.0033                 0.0078                 0.0206
 IR Inten    --      8.8543                20.9582                21.7810

                      4                      5                      6
                      A                      A                      A
 Frequencies --     92.7162               145.8268               153.2620
 Red. masses --      3.9886                 4.0755                 4.1008
 Frc consts  --      0.0202                 0.0511                 0.0568
 IR Inten    --      4.8997                 1.7444                 8.0763

                      7                      8                      9
                      A                      A                      A
 Frequencies --    173.9152               184.5067               223.4372
 Red. masses --      1.1081                 1.1178                 4.7672
 Frc consts  --      0.0197                 0.0224                 0.1402
 IR Inten    --      1.5824                 1.5516                 3.5922

                     10                     11                     12
                      A                      A                      A
 Frequencies --    249.8283               274.7328               339.9204
 Red. masses --      4.7545                 4.9184                 7.7522
 Frc consts  --      0.1748                 0.2187                 0.5278
 IR Inten    --      9.9746                 8.1777                 1.8464

                     13                     14                     15
                      A                      A                      A
 Frequencies --    344.2469               360.4783               398.0070
 Red. masses --      8.5558                11.0939                 6.3642
 Frc consts  --      0.5974                 0.8494                 0.5940
 IR Inten    --      6.6334                 6.5310                 5.2224

                     16                     17                     18
                      A                      A                      A
 Frequencies --    401.5749               443.9239               445.4118
 Red. masses --      8.2923                 4.1569                 6.7695
 Frc consts  --      0.7879                 0.4827                 0.7913
 IR Inten    --      2.5153                 1.0619                 4.7947

                     19                     20                     21
                      A                      A                      A
 Frequencies --    512.4248               519.6836               587.7921
 Red. masses --     10.0269                 4.5066                 4.4842
 Frc consts  --      1.5512                 0.7171                 0.9128
 IR Inten    --      8.8569                11.5896                 2.3544

                     22                     23                     24
                      A                      A                      A
 Frequencies --    607.3150               661.5584               712.9643
 Red. masses --      5.9773                 6.3941                 5.0278
 Frc consts  --      1.2989                 1.6488                 1.5058
 IR Inten    --     48.4325                14.5664                23.7451

                     25                     26                     27
                      A                      A                      A
 Frequencies --    716.6058               723.6551               776.4599
 Red. masses --      2.7667                 6.1654                 2.1268
 Frc consts  --      0.8371                 1.9023                 0.7555
 IR Inten    --     82.6234                 5.8244                41.7120

                     28                     29                     30
                      A                      A                      A
 Frequencies --    790.3543               858.6964               892.0781
 Red. masses --      4.5909                 1.5908                 7.3862
 Frc consts  --      1.6896                 0.6911                 3.4632
 IR Inten    --      0.8343                 0.0908                66.3358

                     31                     32                     33
                      A                      A                      A
 Frequencies --    902.6739               963.7249               969.8038
 Red. masses --      6.5384                 6.6968                 1.3597
 Frc consts  --      3.1390                 3.6646                 0.7535
 IR Inten    --     91.1209               198.3769                 4.0378

                     34                     35                     36
                      A                      A                      A
 Frequencies --    979.6836              1021.2506              1044.3604
 Red. masses --      1.2497                 2.5541                 4.4372
 Frc consts  --      0.7067                 1.5695                 2.8514
 IR Inten    --      0.2187               138.3646               143.7185

                     37                     38                     39
                      A                      A                      A
 Frequencies --   1073.8976              1100.2172              1127.5849
 Red. masses --      9.0931                 2.4728                 1.6468
 Frc consts  --      6.1786                 1.7636                 1.2336
 IR Inten    --    505.4894                29.6441                42.4650

                     40                     41                     42
                      A                      A                      A
 Frequencies --   1150.4410              1158.5853              1168.2498
 Red. masses --      1.2719                 1.2672                 3.1121
 Frc consts  --      0.9918                 1.0022                 2.5025
 IR Inten    --      3.6599                 6.2102               136.5030

                     43                     44                     45
                      A                      A                      A
 Frequencies --   1181.1199              1207.0180              1209.8593
 Red. masses --      1.7383                 1.5204                 1.5924
 Frc consts  --      1.4288                 1.3051                 1.3734
 IR Inten    --    136.4708                 3.2931                17.5384

                     46                     47                     48
                      A                      A                      A
 Frequencies --   1224.1594              1267.7942              1331.9358
 Red. masses --      3.1033                 2.4217                 7.0694
 Frc consts  --      2.7400                 2.2933                 7.3892
 IR Inten    --    359.1432                59.3460               578.5455

                     49                     50                     51
                      A                      A                      A
 Frequencies --   1358.7410              1384.7896              1423.4085
 Red. masses --      8.4214                 6.3108                 2.0661
 Frc consts  --      9.1603                 7.1302                 2.4664
 IR Inten    --   1838.8955                53.8433               260.3364

                     52                     53                     54
                      A                      A                      A
 Frequencies --   1429.5683              1456.1621              1456.7717
 Red. masses --      3.5672                 1.3101                 1.2931
 Frc consts  --      4.2952                 1.6367                 1.6168
 IR Inten    --     28.7773                 0.3612                19.5033

                     55                     56                     57
                      A                      A                      A
 Frequencies --   1472.3526              1473.4038              1493.8592
 Red. masses --      1.0538                 1.0638                 1.0493
 Frc consts  --      1.3460                 1.3606                 1.3796
 IR Inten    --     12.2288                 8.2509                13.6750

                     58                     59                     60
                      A                      A                      A
 Frequencies --   1497.6393              1503.7711              1520.2801
 Red. masses --      1.0640                 3.2873                 6.2798
 Frc consts  --      1.4061                 4.3798                 8.5515
 IR Inten    --      6.1335                20.9379               344.7127

                     61                     62                     63
                      A                      A                      A
 Frequencies --   1585.6941              1608.4643              2988.3590
 Red. masses --      8.2859                 5.4058                 1.0379
 Frc consts  --     12.2752                 8.2402                 5.4608
 IR Inten    --      0.6211                 1.6344               156.9144

                     64                     65                     66
                      A                      A                      A
 Frequencies --   2996.0650              3053.1605              3059.2276
 Red. masses --      1.0298                 1.1052                 1.0939
 Frc consts  --      5.4464                 6.0698                 6.0317
 IR Inten    --    132.3102                71.8828                70.5746

                     67                     68                     69
                      A                      A                      A
 Frequencies --   3087.9785              3092.6960              3137.0676
 Red. masses --      1.1024                 1.1050                 1.0845
 Frc consts  --      6.1933                 6.2269                 6.2880
 IR Inten    --     90.7413                72.3261                16.2582

                     70                     71                     72
                      A                      A                      A
 Frequencies --   3152.2337              3167.5783              3173.5620
 Red. masses --      1.0889                 1.0920                 1.0934
 Frc consts  --      6.3748                 6.4552                 6.4884
 IR Inten    --     30.5744                47.7483                64.5759

 - Thermochemistry -
 -------------------
 Temperature   298.150 Kelvin.  Pressure   1.00000 Atm.
 Atom     1 has atomic number  6 and mass  12.00000

 Molecular mass:   218.05791 amu.
 Principal axes and moments of inertia in atomic units:
                           1         2         3
     Eigenvalues --  2174.116453891.364795769.44411
           X            0.98773   0.01604   0.15536
           Y            0.04064   0.93404  -0.35484
           Z           -0.15080   0.35680   0.92193
 This molecule is an asymmetric top.
 Rotational symmetry number  1.
 Warning -- assumption of classical behavior for rotation
           may cause significant error
 Rotational temperatures (Kelvin)      0.03984     0.02226     0.01501
 Rotational constants (GHZ):           0.83010     0.46378     0.31281
 Zero-point vibrational energy     505054.6 (Joules/Mol)
                                  120.71095 (Kcal/Mol)
 Warning -- explicit consideration of  22 degrees of freedom as
           vibrations may cause significant error
 Vibrational temperatures:     64.14    96.37   115.68   133.40   209.81
          (Kelvin)            220.51   250.23   265.46   321.48   359.45
                              395.28   489.07   495.29   518.65   572.64
                              577.78   638.71   640.85   737.27   747.71
                              845.70   873.79   951.84  1025.80  1031.04
                             1041.18  1117.15  1137.14  1235.47  1283.50
                             1298.75  1386.59  1395.33  1409.55  1469.35
                             1502.60  1545.10  1582.97  1622.34  1655.23
                             1666.95  1680.85  1699.37  1736.63  1740.72
                             1761.29  1824.07  1916.36  1954.93  1992.40
                             2047.97  2056.83  2095.09  2095.97  2118.39
                             2119.90  2149.33  2154.77  2163.59  2187.34
                             2281.46  2314.22  4299.58  4310.67  4392.82
                             4401.55  4442.91  4449.70  4513.54  4535.36
                             4557.44  4566.05

 Zero-point correction=                           0.192365 (Hartree/Particle)
 Thermal correction to Energy=                    0.206575
 Thermal correction to Enthalpy=                  0.207519
 Thermal correction to Gibbs Free Energy=         0.151039
 Sum of electronic and zero-point Energies=           -764.422983
 Sum of electronic and thermal Energies=              -764.408773
 Sum of electronic and thermal Enthalpies=            -764.407829
 Sum of electronic and thermal Free Energies=         -764.464309

                     E (Thermal)             CV                S
                      KCal/Mol        Cal/Mol-Kelvin    Cal/Mol-Kelvin
 Total                  129.628             53.527            118.872
 Electronic               0.000              0.000              0.000
 Translational            0.889              2.981             42.042
 Rotational               0.889              2.981             32.257
 Vibrational            127.850             47.565             44.574
 Vibration     1          0.595              1.980              5.044
 Vibration     2          0.598              1.970              4.240
 Vibration     3          0.600              1.962              3.881
 Vibration     4          0.602              1.954              3.602
 Vibration     5          0.617              1.907              2.726
 Vibration     6          0.619              1.899              2.631
 Vibration     7          0.627              1.875              2.393
 Vibration     8          0.631              1.861              2.282
 Vibration     9          0.649              1.805              1.931
 Vibration    10          0.663              1.763              1.732
 Vibration    11          0.677              1.720              1.566
 Vibration    12          0.720              1.596              1.213
 Vibration    13          0.723              1.587              1.192
 Vibration    14          0.735              1.554              1.120
 Vibration    15          0.764              1.474              0.970
 Vibration    16          0.767              1.467              0.957
 Vibration    17          0.803              1.374              0.814
 Vibration    18          0.805              1.371              0.810
 Vibration    19          0.868              1.222              0.628
 Vibration    20          0.875              1.206              0.611
 Vibration    21          0.945              1.058              0.471
 Vibration    22          0.966              1.016              0.437

                           ! Non-Optimized Parameters !
 Normal termination of Gaussian 16 at Sun Feb 11 16:24:08 2024.
