 Q-Chem 5.4, Q-Chem, Inc., Pleasanton, CA (2021)
 Q-Chem 5.4.0 for Intel X86 EM64T Linux

User input:
--------------------------------------------------------------
$molecule
-2 1
N                 -2.0478470000      2.9224050000     -0.2256380000
C                 -2.0760680000      1.5149820000     -0.0235010000
C                 -3.2904090000      0.8666780000      0.0700240000
C                 -3.3620600000     -0.5443900000      0.1845350000
C                 -2.2198750000     -1.3181260000      0.2062760000
N                 -2.3349100000     -2.7352380000      0.2333800000
C                 -0.9131020000     -0.6958840000      0.1623130000
C                  0.2793490000     -1.5044140000      0.2943170000
O                  0.2656950000     -2.8039430000      0.4404740000
C                  1.5302090000     -0.7985140000      0.2769970000
C                  2.7459710000     -1.5249880000      0.3927830000
C                  3.9769680000     -0.9044130000      0.3933610000
C                  4.0490450000      0.5153780000      0.2787770000
C                  2.8868000000      1.2485530000      0.1688560000
C                  1.6031780000      0.6389630000      0.1608870000
C                  0.4298790000      1.4606940000      0.0546450000
O                  0.5481720000      2.7615420000     -0.0094120000
C                 -0.8389050000      0.7655550000      0.0440100000
H                 -1.0655060000      3.2372790000     -0.1092330000
H                 -2.6900030000      3.3970190000      0.3976350000
H                 -4.2060130000      1.4517700000     -0.0086840000
H                 -4.3324950000     -1.0393940000      0.1937370000
H                 -3.0168440000     -3.0366640000      0.9190610000
H                 -1.3883190000     -3.1246240000      0.4065920000
H                  2.6552200000     -2.6029180000      0.4810090000
H                  4.8894040000     -1.4928130000      0.4798980000
H                  5.0167340000      1.0152040000      0.2774660000
H                  2.9057310000      2.3303020000      0.0827600000
$end
$rem
MAX_SCF_CYCLES=200
BASIS  =  6-311++G(d,p)
GUI  =  2
JOB_TYPE  =  SP
METHOD  =  B3LYP
SOLVENT_METHOD = COSMO
$end
$solvent
dielectric 37.219
opticaldielectric 1.43
$end

--------------------------------------------------------------

             Standard Nuclear Orientation (Angstroms)
    I     Atom           X                Y                Z
 ----------------------------------------------------------------
    1      N      -2.2257470043    -2.8417448490     0.1067047872
    2      C      -2.1797051952    -1.4229878536     0.0200789692
    3      C      -3.3577967151    -0.7087123914    -0.0546204359
    4      C      -3.3577966880     0.7088063773    -0.0548958751
    5      C      -2.1796575138     1.4230582962     0.0196623281
    6      N      -2.2255309422     2.8417422834     0.1057173782
    7      C      -0.9064201730     0.7340491795     0.0497727339
    8      C       0.3271708759     1.4892828084     0.0187808951
    9      O       0.3807442594     2.7953874673    -0.0205184019
   10      C       1.5414400687     0.7219681116     0.0138803367
   11      C       2.7938311517     1.3930326863    -0.0070247564
   12      C       3.9929543801     0.7131023429    -0.0233186173
   13      C       3.9929581697    -0.7131272824    -0.0236744445
   14      C       2.7938632409    -1.3930946293    -0.0076305772
   15      C       1.5414348492    -0.7220353731     0.0136181903
   16      C       0.3271701515    -1.4893019667     0.0184099136
   17      O       0.3806755885    -2.7953918606    -0.0211932359
   18      C      -0.9064222601    -0.7340464390     0.0497630819
   19      H      -1.2563923860    -3.1954587061    -0.0069953954
   20      H      -2.8692765071    -3.2315221892    -0.5715543181
   21      H      -4.3025338116    -1.2512183755    -0.0504541105
   22      H      -4.3025114112     1.2513541969    -0.0511970489
   23      H      -2.8694507379     3.2315255970    -0.5721368190
   24      H      -1.2561767845     3.1954796279    -0.0077761606
   25      H       2.7579004190     2.4777712195    -0.0090129754
   26      H       4.9349433000     1.2596923729    -0.0351033693
   27      H       4.9349574362    -1.2597005201    -0.0357088801
   28      H       2.7579812707    -2.4778333181    -0.0101334333
 ----------------------------------------------------------------

   10    -799.6840147285      9.81e-06  Convergence criterion met
 Total energy in the final basis set =     -799.6840147285
    5    -799.9559497859      8.37e-06  Convergence criterion met
 Total energy in the final basis set =     -799.9559497859

                    Orbital Energies (a.u.)
 --------------------------------------------------------------

 Alpha MOs
 -- Occupied --
-19.0319 -19.0319 -14.2722 -14.2722 -10.1840 -10.1840 -10.1789 -10.1789
-10.1520 -10.1515 -10.1488 -10.1488 -10.1485 -10.1482 -10.1408 -10.1404
-10.1364 -10.1360  -0.9512  -0.9477  -0.8788  -0.8690  -0.8291  -0.7914
 -0.7519  -0.7268  -0.7082  -0.6868  -0.6392  -0.6072  -0.5987  -0.5515
 -0.5297  -0.5183  -0.4994  -0.4781  -0.4529  -0.4451  -0.4448  -0.4333
 -0.4171  -0.4098  -0.3998  -0.3890  -0.3811  -0.3724  -0.3592  -0.3563
 -0.3514  -0.3407  -0.3389  -0.3211  -0.3117  -0.3069  -0.3049  -0.2516
 -0.2338  -0.2307  -0.2190  -0.2114  -0.2077  -0.1760  -0.1114

          Ground-State Mulliken Net Atomic Charges

     Atom                 Charge (a.u.)
  ----------------------------------------
      1 N                    -0.520374
      2 C                    -0.218752
      3 C                    -0.390316
      4 C                    -0.390465
      5 C                    -0.216603
      6 N                    -0.519951
      7 C                     0.537825
      8 C                    -0.264754
      9 O                    -0.667666
     10 C                    -0.038659
     11 C                     0.014974
     12 C                    -0.536883
     13 C                    -0.536667
     14 C                     0.014301
     15 C                    -0.038280
     16 C                    -0.265719
     17 O                    -0.667381
     18 C                     0.541039
     19 H                     0.314981
     20 H                     0.259899
     21 H                     0.168502
     22 H                     0.167946
     23 H                     0.259796
     24 H                     0.314950
     25 H                     0.159062
     26 H                     0.179971
     27 H                     0.180031
     28 H                     0.159192
  ----------------------------------------
  Sum of atomic charges =    -2.000000

                    Cartesian Multipole Moments
 -----------------------------------------------------------------
    Charge (ESU x 10^10)
                -9.6064
    Dipole Moment (Debye)
         X      -0.8344      Y       0.0011      Z      -2.9462
       Tot       3.0621
    Quadrupole Moments (Debye-Ang)
        XX    -133.2871     XY      -0.0010     YY    -165.8390
        XZ       8.5143     YZ       0.0021     ZZ    -119.2936

 Total job time:  78.09s(wall), 540.97s(cpu)
        *  Thank you very much for using Q-Chem.  Have a nice day.  *
