 Gaussian 16, Revision A.03,
 Gaussian 16:  ES64L-G16RevA.03 25-Dec-2016

 --------------------------------------
 #P UB3LYP/6-311++G(d,p) nosym opt freq
 --------------------------------------

 -------
 Reduced
 -------
 Symbolic Z-matrix:
 Charge = -2 Multiplicity = 1

 SCF Done:  E(UB3LYP) =  -769.980366440     A.U. after   46 cycles
 Optimization completed.
    -- Stationary point found.
 Normal termination of Gaussian 16 at Sun Jan  7 20:41:24 2024.

 ----------------------------------------------------------------------
 #P Geom=AllCheck Guess=TCheck SCRF=Check GenChk UB3LYP/6-311++G(d,p) F
 req
 ----------------------------------------------------------------------

 Structure from the checkpoint file:  "240-an.chk"
 -------
 Reduced
 -------
 Charge = -2 Multiplicity = 1

                          Input orientation:
 ---------------------------------------------------------------------
 Center     Atomic      Atomic             Coordinates (Angstroms)
 Number     Number       Type             X           Y           Z
 ---------------------------------------------------------------------
      1          8           0        2.801679   -2.812095   -1.337463
      2          6           0        2.230543   -1.792955   -0.800479
      3          6           0        0.820411   -1.614450   -0.740671
      4          6           0        0.157264   -0.512469   -0.170591
      5          6           0       -1.364518   -0.493630   -0.187046
      6          6           0       -1.947989    0.724157   -0.938130
      7          6           0       -3.484739    0.716984   -0.952181
      8          6           0       -4.062356    0.647290    0.467475
      9          6           0       -3.506510   -0.565364    1.227852
     10          6           0       -1.969543   -0.577231    1.236165
     11          6           0        0.876519    0.569259    0.435053
     12          8           0        0.308372    1.592159    0.979981
     13          6           0        2.330895    0.438646    0.393652
     14          6           0        3.134337    1.456142    0.959981
     15          6           0        4.515969    1.388764    0.954792
     16          6           0        5.162938    0.271703    0.368723
     17          6           0        4.401865   -0.740040   -0.190173
     18          6           0        2.990144   -0.697572   -0.198585
     19          1           0        0.222832   -2.406952   -1.192038
     20          1           0       -1.692680   -1.394681   -0.729647
     21          1           0       -1.570371    1.625851   -0.445218
     22          1           0       -1.559740    0.730652   -1.964232
     23          1           0       -3.867212    1.606693   -1.470888
     24          1           0       -3.847003   -0.152183   -1.523961
     25          1           0       -3.778400    1.560952    1.007243
     26          1           0       -5.160793    0.622680    0.446330
     27          1           0       -3.878888   -1.482926    0.747580
     28          1           0       -3.901529   -0.577634    2.254852
     29          1           0       -1.605006   -1.490740    1.721112
     30          1           0       -1.583774    0.271343    1.809994
     31          1           0        2.609181    2.297463    1.401751
     32          1           0        5.105197    2.189881    1.398267
     33          1           0        6.250014    0.211255    0.360745
     34          1           0        4.862889   -1.610953   -0.646840
 ---------------------------------------------------------------------

 SCF Done:  E(UB3LYP) =  -769.980366440     A.U. after    3 cycles

 Alpha  occ. eigenvalues --  -18.79014 -18.78959  -9.96511  -9.96410  -9.96152
 Alpha  occ. eigenvalues --   -9.94747  -9.94736  -9.94288  -9.93995  -9.93944
 Alpha  occ. eigenvalues --   -9.93807  -9.93806  -9.93035  -9.92942  -9.91646
 Alpha  occ. eigenvalues --   -9.91583  -9.90878  -9.89738  -0.70652  -0.70222
 Alpha  occ. eigenvalues --   -0.61920  -0.60745  -0.55655  -0.52840  -0.52380
 Alpha  occ. eigenvalues --   -0.50475  -0.47852  -0.41840  -0.39638  -0.39571
 Alpha  occ. eigenvalues --   -0.36710  -0.35218  -0.33384  -0.30334  -0.26891
 Alpha  occ. eigenvalues --   -0.26088  -0.24641  -0.22952  -0.22549  -0.21661
 Alpha  occ. eigenvalues --   -0.20987  -0.18360  -0.17964  -0.17278  -0.16837
 Alpha  occ. eigenvalues --   -0.15965  -0.15669  -0.14378  -0.13189  -0.13007
 Alpha  occ. eigenvalues --   -0.12873  -0.12439  -0.10641  -0.09854  -0.09572
 Alpha  occ. eigenvalues --   -0.08858  -0.08431  -0.08014  -0.07527  -0.00905
 Alpha  occ. eigenvalues --    0.00329   0.01322   0.03409   0.03803   0.12248
 Alpha virt. eigenvalues --    0.13536   0.15569   0.15811   0.16526   0.17046
 Alpha virt. eigenvalues --    0.17398   0.19391   0.19514   0.20022   0.20362
 Alpha virt. eigenvalues --    0.20428   0.21057   0.21269   0.21922   0.22684

  Beta  occ. eigenvalues --  -18.79014 -18.78959  -9.96511  -9.96410  -9.96152
  Beta  occ. eigenvalues --   -9.94747  -9.94736  -9.94288  -9.93995  -9.93944
  Beta  occ. eigenvalues --   -9.93807  -9.93806  -9.93035  -9.92942  -9.91646
  Beta  occ. eigenvalues --   -9.91583  -9.90878  -9.89738  -0.70652  -0.70222
  Beta  occ. eigenvalues --   -0.61920  -0.60745  -0.55655  -0.52840  -0.52380
  Beta  occ. eigenvalues --   -0.50475  -0.47852  -0.41840  -0.39638  -0.39571
  Beta  occ. eigenvalues --   -0.36710  -0.35218  -0.33384  -0.30334  -0.26891
  Beta  occ. eigenvalues --   -0.26088  -0.24641  -0.22952  -0.22549  -0.21661
  Beta  occ. eigenvalues --   -0.20987  -0.18360  -0.17964  -0.17278  -0.16837
  Beta  occ. eigenvalues --   -0.15965  -0.15669  -0.14378  -0.13189  -0.13007
  Beta  occ. eigenvalues --   -0.12873  -0.12439  -0.10641  -0.09854  -0.09572
  Beta  occ. eigenvalues --   -0.08858  -0.08431  -0.08014  -0.07527  -0.00905
  Beta  occ. eigenvalues --    0.00329   0.01322   0.03409   0.03803   0.12248
  Beta virt. eigenvalues --    0.13536   0.15569   0.15811   0.16526   0.17046
  Beta virt. eigenvalues --    0.17398   0.19391   0.19514   0.20022   0.20362
  Beta virt. eigenvalues --    0.20428   0.21057   0.21269   0.21922   0.22684

 Mulliken charges and spin densities:
               1          2
     1  O   -0.516966   0.000000
     2  C   -1.067323  -0.000000
     3  C   -0.250194  -0.000000
     4  C    0.837964   0.000000
     5  C    0.659861  -0.000000
     6  C   -0.422939   0.000000
     7  C   -0.411776   0.000000
     8  C    0.568619   0.000000
     9  C    0.068706   0.000000
    10  C   -0.696525  -0.000000
    11  C   -0.793772   0.000000
    12  O   -0.475057   0.000000
    13  C    0.033058   0.000000
    14  C    0.045960   0.000000
    15  C   -0.477312   0.000000
    16  C   -0.298670   0.000000
    17  C   -0.049333  -0.000000
    18  C    0.901631  -0.000000
    19  H    0.088913  -0.000000
    20  H    0.110018  -0.000000
    21  H    0.208833  -0.000000
    22  H    0.158299   0.000000
    23  H   -0.008692  -0.000000
    24  H    0.096324   0.000000
    25  H    0.312666   0.000000
    26  H   -1.109917  -0.000000
    27  H    0.114200   0.000000
    28  H   -0.372782  -0.000000
    29  H    0.171299   0.000000
    30  H    0.156071  -0.000000
    31  H    0.133839  -0.000000
    32  H    0.079959  -0.000000
    33  H    0.079821   0.000000
    34  H    0.125219   0.000000
 Sum of Mulliken charges =  -2.00000   0.00000

 Dipole moment (field-independent basis, Debye):
    X=             -4.2558    Y=              3.4501    Z=             -0.9686  Tot=              5.5636
 Quadrupole moment (field-independent basis, Debye-Ang):
   XX=           -250.5110   YY=           -158.1722   ZZ=           -139.8043
   XY=             19.8786   XZ=             16.6587   YZ=            -14.8281

  Exact polarizability:2146.313-191.135 546.028 -52.590 -81.884 715.984
 Approx polarizability:********-918.828 667.515******** 148.201 742.436

                      1                      2                      3
                      A                      A                      A
 Frequencies --     45.8982                52.9167                72.0523
 Red. masses --      5.3312                 3.4540                 3.6377
 Frc consts  --      0.0066                 0.0057                 0.0111
 IR Inten    --      0.3839                 2.5154                 4.2544

                      4                      5                      6
                      A                      A                      A
 Frequencies --    133.9665               144.0629               195.2572
 Red. masses --      4.6097                 5.0755                 3.4911
 Frc consts  --      0.0487                 0.0621                 0.0784
 IR Inten    --      1.2675                 1.6273                 9.5205

                      7                      8                      9
                      A                      A                      A
 Frequencies --    199.8453               226.3797               231.1419
 Red. masses --      4.9866                 5.2062                 1.8195
 Frc consts  --      0.1173                 0.1572                 0.0573
 IR Inten    --      3.6552                11.3013                 4.1090

                     10                     11                     12
                      A                      A                      A
 Frequencies --    277.0239               278.5140               338.4538
 Red. masses --      6.2419                 4.6566                 1.8491
 Frc consts  --      0.2822                 0.2128                 0.1248
 IR Inten    --      4.2690                 0.5301                 9.7041

                     13                     14                     15
                      A                      A                      A
 Frequencies --    361.6586               412.1363               441.2568
 Red. masses --     10.4172                 5.1169                 3.1422
 Frc consts  --      0.8028                 0.5121                 0.3605
 IR Inten    --     21.1289                 1.5693                27.8509

                     16                     17                     18
                      A                      A                      A
 Frequencies --    441.7680               447.0191               461.7843
 Red. masses --      3.3957                 3.6520                 4.1793
 Frc consts  --      0.3904                 0.4300                 0.5251
 IR Inten    --    230.1119                 0.6267               483.1437

                     19                     20                     21
                      A                      A                      A
 Frequencies --    476.5656               503.7142               534.8702
 Red. masses --      3.3429                 2.8395                 4.0830
 Frc consts  --      0.4473                 0.4245                 0.6882
 IR Inten    --     32.2917                66.7743                 3.4663

                     22                     23                     24
                      A                      A                      A
 Frequencies --    569.9878               646.4174               646.6270
 Red. masses --      4.2713                 4.1917                 2.8699
 Frc consts  --      0.8176                 1.0320                 0.7070
 IR Inten    --     35.7180                 0.8981                13.7809

                     25                     26                     27
                      A                      A                      A
 Frequencies --    695.9855               698.9520               739.8354
 Red. masses --      5.0251                 2.4076                 4.8629
 Frc consts  --      1.4342                 0.6930                 1.5683
 IR Inten    --      1.1561                19.4790                18.3927

                     28                     29                     30
                      A                      A                      A
 Frequencies --    749.8176               776.5201               791.1029
 Red. masses --      1.9876                 2.4103                 1.6424
 Frc consts  --      0.6584                 0.8563                 0.6056
 IR Inten    --     41.9161                 0.2973                39.0350

                     31                     32                     33
                      A                      A                      A
 Frequencies --    792.6262               825.8862               831.5054
 Red. masses --      2.6388                 1.9590                 3.8102
 Frc consts  --      0.9768                 0.7873                 1.5521
 IR Inten    --     18.2222                 0.1577                13.8869

                     34                     35                     36
                      A                      A                      A
 Frequencies --    841.7281               844.7209               890.1987
 Red. masses --      2.1802                 1.7515                 1.9173
 Frc consts  --      0.9101                 0.7363                 0.8952
 IR Inten    --     23.0426                13.5517                 3.5019

                     37                     38                     39
                      A                      A                      A
 Frequencies --    896.2123               925.8138               948.5701
 Red. masses --      1.8028                 1.4922                 3.6247
 Frc consts  --      0.8532                 0.7536                 1.9216
 IR Inten    --    116.0570                77.1671                14.8386

                     40                     41                     42
                      A                      A                      A
 Frequencies --    954.6846               963.6143              1014.6413
 Red. masses --      1.2758                 1.3194                 2.4823
 Frc consts  --      0.6851                 0.7218                 1.5057
 IR Inten    --      2.7486                 1.5017               424.5024

                     43                     44                     45
                      A                      A                      A
 Frequencies --   1024.9686              1030.8522              1048.0550
 Red. masses --      1.8441                 2.3616                 1.5566
 Frc consts  --      1.1415                 1.4786                 1.0074
 IR Inten    --     50.8555                 9.2968                24.0109

                     46                     47                     48
                      A                      A                      A
 Frequencies --   1080.1775              1084.9038              1088.6658
 Red. masses --      1.3179                 1.9436                 2.5247
 Frc consts  --      0.9060                 1.3479                 1.7630
 IR Inten    --      3.2056                24.6407                39.6087

                     49                     50                     51
                      A                      A                      A
 Frequencies --   1112.9419              1139.4774              1153.2408
 Red. masses --      1.8463                 1.6203                 2.0783
 Frc consts  --      1.3474                 1.2395                 1.6285
 IR Inten    --    177.7006                28.9371                41.8870

                     52                     53                     54
                      A                      A                      A
 Frequencies --   1174.2052              1186.3668              1216.2314
 Red. masses --      1.9183                 1.4649                 2.0549
 Frc consts  --      1.5583                 1.2148                 1.7909
 IR Inten    --     45.5689                70.0769               355.4133

                     55                     56                     57
                      A                      A                      A
 Frequencies --   1223.7766              1239.8035              1274.2569
 Red. masses --      2.3321                 1.7626                 1.3039
 Frc consts  --      2.0578                 1.5963                 1.2474
 IR Inten    --     61.4997               281.5293               247.1078

                     58                     59                     60
                      A                      A                      A
 Frequencies --   1279.5495              1285.9455              1317.7329
 Red. masses --      1.2898                 1.7531                 1.3217
 Frc consts  --      1.2442                 1.7080                 1.3522
 IR Inten    --     32.1570                29.0620                33.7284

                     61                     62                     63
                      A                      A                      A
 Frequencies --   1319.7668              1332.9478              1353.6058
 Red. masses --      1.3557                 6.4207                 1.3239
 Frc consts  --      1.3912                 6.7214                 1.4292
 IR Inten    --     15.3481               601.2528                 1.8288

                     64                     65                     66
                      A                      A                      A
 Frequencies --   1359.0832              1363.5215              1371.1941
 Red. masses --      1.3130                 1.7320                 1.6880
 Frc consts  --      1.4289                 1.8972                 1.8699
 IR Inten    --      4.3961                58.3220                86.9967

                     67                     68                     69
                      A                      A                      A
 Frequencies --   1372.5520              1397.6224              1419.7344
 Red. masses --      1.4561                 2.9291                 2.9355
 Frc consts  --      1.6162                 3.3710                 3.4861
 IR Inten    --     24.1556               215.8339               904.8368

                     70                     71                     72
                      A                      A                      A
 Frequencies --   1423.0774              1452.1171              1473.3842
 Red. masses --      6.8556                 2.9059                 1.0926
 Frc consts  --      8.1800                 3.6102                 1.3975
 IR Inten    --    983.4870               120.5988               175.8342

                     73                     74                     75
                      A                      A                      A
 Frequencies --   1475.9834              1487.9842              1491.2435
 Red. masses --      1.0924                 1.0987                 3.4648
 Frc consts  --      1.4021                 1.4333                 4.5396
 IR Inten    --     88.6168                48.0418               839.9173

                     76                     77                     78
                      A                      A                      A
 Frequencies --   1494.6828              1508.1008              1520.0884
 Red. masses --      1.1078                 1.1031                 4.5718
 Frc consts  --      1.4581                 1.4782                 6.2240
 IR Inten    --     17.1572                 6.4442               381.2316

                     79                     80                     81
                      A                      A                      A
 Frequencies --   1573.1720              1591.5342              2942.1295
 Red. masses --      6.4521                 5.5991                 1.0811
 Frc consts  --      9.4081                 8.3560                 5.5136
 IR Inten    --   3438.0640               282.4163                31.0415

                     82                     83                     84
                      A                      A                      A
 Frequencies --   2951.8983              2954.5896              2971.0778
 Red. masses --      1.0651                 1.0615                 1.0687
 Frc consts  --      5.4681                 5.4596                 5.5582
 IR Inten    --     46.1919                12.9755                18.7280

                     85                     86                     87
                      A                      A                      A
 Frequencies --   2978.8083              2988.3344              3003.2198
 Red. masses --      1.0963                 1.0844                 1.0692
 Frc consts  --      5.7313                 5.7057                 5.6818
 IR Inten    --      7.0119                68.8930                55.8834

                     88                     89                     90
                      A                      A                      A
 Frequencies --   3006.9108              3011.8208              3055.5651
 Red. masses --      1.0691                 1.0969                 1.0988
 Frc consts  --      5.6951                 5.8625                 6.0442
 IR Inten    --     57.1385                54.3620                14.9173

                     91                     92                     93
                      A                      A                      A
 Frequencies --   3060.9239              3091.3029              3092.9394
 Red. masses --      1.0985                 1.0826                 1.0866
 Frc consts  --      6.0638                 6.0952                 6.1243
 IR Inten    --     39.0999                48.9799               148.5315

                     94                     95                     96
                      A                      A                      A
 Frequencies --   3115.0586              3154.4141              3159.3522
 Red. masses --      1.0907                 1.0906                 1.0910
 Frc consts  --      6.2357                 6.3935                 6.4160
 IR Inten    --    304.6513               102.1337               146.2282

 - Thermochemistry -
 -------------------
 Temperature   298.150 Kelvin.  Pressure   1.00000 Atm.
 Atom     1 has atomic number  8 and mass  15.99491

 Molecular mass:   240.11503 amu.
 Principal axes and moments of inertia in atomic units:
                           1         2         3
     Eigenvalues --  1915.796817537.820098721.60854
           X            0.99816   0.05961  -0.01146
           Y           -0.05809   0.88322  -0.46535
           Z           -0.01762   0.46515   0.88505
 This molecule is an asymmetric top.
 Rotational symmetry number  1.
 Warning -- assumption of classical behavior for rotation
           may cause significant error
 Rotational temperatures (Kelvin)      0.04521     0.01149     0.00993
 Rotational constants (GHZ):           0.94203     0.23942     0.20693
 Zero-point vibrational energy     727345.2 (Joules/Mol)
                                  173.83968 (Kcal/Mol)
 Warning -- explicit consideration of  22 degrees of freedom as
           vibrations may cause significant error
 Vibrational temperatures:     66.04    76.14   103.67   192.75   207.27
          (Kelvin)            280.93   287.53   325.71   332.56   398.58
                              400.72   486.96   520.35   592.97   634.87
                              635.61   643.16   664.40   685.67   724.73
                              769.56   820.09   930.05   930.35  1001.37
                             1005.64  1064.46  1078.82  1117.24  1138.22
                             1140.41  1188.27  1196.35  1211.06  1215.36
                             1280.80  1289.45  1332.04  1364.78  1373.58
                             1386.43  1459.84  1474.70  1483.17  1507.92
                             1554.13  1560.93  1566.35  1601.28  1639.45
                             1659.26  1689.42  1706.92  1749.89  1760.74
                             1783.80  1833.37  1840.99  1850.19  1895.92
                             1898.85  1917.81  1947.54  1955.42  1961.80
                             1972.84  1974.80  2010.87  2042.68  2047.49
                             2089.27  2119.87  2123.61  2140.88  2145.57
                             2150.52  2169.82  2187.07  2263.44  2289.86
                             4233.07  4247.12  4251.00  4274.72  4285.84
                             4299.55  4320.96  4326.27  4333.34  4396.28
                             4403.99  4447.70  4450.05  4481.87  4538.50
                             4545.60

 Zero-point correction=                           0.277031 (Hartree/Particle)
 Thermal correction to Energy=                    0.291676
 Thermal correction to Enthalpy=                  0.292620
 Thermal correction to Gibbs Free Energy=         0.235420
 Sum of electronic and zero-point Energies=           -769.703335
 Sum of electronic and thermal Energies=              -769.688690
 Sum of electronic and thermal Enthalpies=            -769.687746
 Sum of electronic and thermal Free Energies=         -769.744947

                     E (Thermal)             CV                S
                      KCal/Mol        Cal/Mol-Kelvin    Cal/Mol-Kelvin
 Total                  183.030             60.031            120.389
 Electronic               0.000              0.000              0.000
 Translational            0.889              2.981             42.329
 Rotational               0.889              2.981             33.199
 Vibrational            181.252             54.070             44.861
 Vibration     1          0.595              1.979              4.987
 Vibration     2          0.596              1.976              4.705
 Vibration     3          0.598              1.967              4.096
 Vibration     4          0.613              1.919              2.888
 Vibration     5          0.616              1.909              2.749
 Vibration     6          0.636              1.846              2.177
 Vibration     7          0.638              1.840              2.135
 Vibration     8          0.650              1.801              1.907
 Vibration     9          0.653              1.793              1.870
 Vibration    10          0.678              1.716              1.552
 Vibration    11          0.679              1.713              1.543
 Vibration    12          0.719              1.599              1.219
 Vibration    13          0.736              1.551              1.115
 Vibration    14          0.776              1.444              0.919
 Vibration    15          0.801              1.380              0.823
 Vibration    16          0.802              1.379              0.821
 Vibration    17          0.806              1.367              0.805
 Vibration    18          0.820              1.335              0.761
 Vibration    19          0.833              1.302              0.719
 Vibration    20          0.859              1.242              0.649
 Vibration    21          0.890              1.173              0.576
 Vibration    22          0.926              1.096              0.504

 Optimization completed.
    -- Stationary point found.
 Normal termination of Gaussian 16 at Sun Jan  7 21:34:41 2024.
