 Q-Chem 5.4, Q-Chem, Inc., Pleasanton, CA (2021)
 Q-Chem 5.4.0 for Intel X86 EM64T Linux

User input:
--------------------------------------------------------------
$molecule
-2 1
O                  2.8016790000     -2.8120950000     -1.3374630000
C                  2.2305430000     -1.7929550000     -0.8004790000
C                  0.8204110000     -1.6144500000     -0.7406710000
C                  0.1572640000     -0.5124690000     -0.1705910000
C                 -1.3645180000     -0.4936300000     -0.1870460000
C                 -1.9479890000      0.7241570000     -0.9381300000
C                 -3.4847390000      0.7169840000     -0.9521810000
C                 -4.0623560000      0.6472900000      0.4674750000
C                 -3.5065100000     -0.5653640000      1.2278520000
C                 -1.9695430000     -0.5772310000      1.2361650000
C                  0.8765190000      0.5692590000      0.4350530000
O                  0.3083720000      1.5921590000      0.9799810000
C                  2.3308950000      0.4386460000      0.3936520000
C                  3.1343370000      1.4561420000      0.9599810000
C                  4.5159690000      1.3887640000      0.9547920000
C                  5.1629380000      0.2717030000      0.3687230000
C                  4.4018650000     -0.7400400000     -0.1901730000
C                  2.9901440000     -0.6975720000     -0.1985850000
H                  0.2228320000     -2.4069520000     -1.1920380000
H                 -1.6926800000     -1.3946810000     -0.7296470000
H                 -1.5703710000      1.6258510000     -0.4452180000
H                 -1.5597400000      0.7306520000     -1.9642320000
H                 -3.8672120000      1.6066930000     -1.4708880000
H                 -3.8470030000     -0.1521830000     -1.5239610000
H                 -3.7784000000      1.5609520000      1.0072430000
H                 -5.1607930000      0.6226800000      0.4463300000
H                 -3.8788880000     -1.4829260000      0.7475800000
H                 -3.9015290000     -0.5776340000      2.2548520000
H                 -1.6050060000     -1.4907400000      1.7211120000
H                 -1.5837740000      0.2713430000      1.8099940000
H                  2.6091810000      2.2974630000      1.4017510000
H                  5.1051970000      2.1898810000      1.3982670000
H                  6.2500140000      0.2112550000      0.3607450000
H                  4.8628890000     -1.6109530000     -0.6468400000
$end

$rem
BASIS  =  6-311++G(d,p)
GUI  =  2
JOB_TYPE  =  SP
METHOD  =  B3LYP
SCF_CONVERGENCE  = 8
SOLVENT_METHOD = sm12
$end

$smx
solvent dimethylformamide
charges CM5
$end

--------------------------------------------------------------

             Standard Nuclear Orientation (Angstroms)
    I     Atom           X                Y                Z
 ----------------------------------------------------------------
    1      O       2.8016790000    -2.8120950000    -1.3374630000
    2      C       2.2305430000    -1.7929550000    -0.8004790000
    3      C       0.8204110000    -1.6144500000    -0.7406710000
    4      C       0.1572640000    -0.5124690000    -0.1705910000
    5      C      -1.3645180000    -0.4936300000    -0.1870460000
    6      C      -1.9479890000     0.7241570000    -0.9381300000
    7      C      -3.4847390000     0.7169840000    -0.9521810000
    8      C      -4.0623560000     0.6472900000     0.4674750000
    9      C      -3.5065100000    -0.5653640000     1.2278520000
   10      C      -1.9695430000    -0.5772310000     1.2361650000
   11      C       0.8765190000     0.5692590000     0.4350530000
   12      O       0.3083720000     1.5921590000     0.9799810000
   13      C       2.3308950000     0.4386460000     0.3936520000
   14      C       3.1343370000     1.4561420000     0.9599810000
   15      C       4.5159690000     1.3887640000     0.9547920000
   16      C       5.1629380000     0.2717030000     0.3687230000
   17      C       4.4018650000    -0.7400400000    -0.1901730000
   18      C       2.9901440000    -0.6975720000    -0.1985850000
   19      H       0.2228320000    -2.4069520000    -1.1920380000
   20      H      -1.6926800000    -1.3946810000    -0.7296470000
   21      H      -1.5703710000     1.6258510000    -0.4452180000
   22      H      -1.5597400000     0.7306520000    -1.9642320000
   23      H      -3.8672120000     1.6066930000    -1.4708880000
   24      H      -3.8470030000    -0.1521830000    -1.5239610000
   25      H      -3.7784000000     1.5609520000     1.0072430000
   26      H      -5.1607930000     0.6226800000     0.4463300000
   27      H      -3.8788880000    -1.4829260000     0.7475800000
   28      H      -3.9015290000    -0.5776340000     2.2548520000
   29      H      -1.6050060000    -1.4907400000     1.7211120000
   30      H      -1.5837740000     0.2713430000     1.8099940000
   31      H       2.6091810000     2.2974630000     1.4017510000
   32      H       5.1051970000     2.1898810000     1.3982670000
   33      H       6.2500140000     0.2112550000     0.3607450000
   34      H       4.8628890000    -1.6109530000    -0.6468400000
 ----------------------------------------------------------------

   17    -769.9635334142      7.33e-09  Convergence criterion met
 Total energy in the final basis set =     -770.2531674606

                    Orbital Energies (a.u.)
 --------------------------------------------------------------

 Alpha MOs
 -- Occupied --
-19.0226 -19.0175 -10.1820 -10.1783 -10.1745 -10.1739 -10.1702 -10.1698
-10.1698 -10.1696 -10.1695 -10.1679 -10.1592 -10.1575 -10.1528 -10.1523
-10.1402 -10.1343  -0.9392  -0.9351  -0.8440  -0.8346  -0.7844  -0.7505
 -0.7422  -0.7412  -0.7091  -0.6501  -0.6201  -0.6100  -0.6013  -0.5782
 -0.5564  -0.5377  -0.4938  -0.4894  -0.4665  -0.4476  -0.4453  -0.4386
 -0.4371  -0.4226  -0.4081  -0.3940  -0.3917  -0.3839  -0.3797  -0.3765
 -0.3610  -0.3579  -0.3465  -0.3418  -0.3351  -0.3299  -0.3213  -0.3203
 -0.3160  -0.3015  -0.2989  -0.2477  -0.2346  -0.2231  -0.1993  -0.1941
 -0.1177

          Ground-State Mulliken Net Atomic Charges

     Atom                 Charge (a.u.)
  ----------------------------------------
      1 O                    -0.396265
      2 C                    -2.456718
      3 C                    -1.643398
      4 C                     0.715064
      5 C                     1.966640
      6 C                    -0.284370
      7 C                     1.124568
      8 C                     0.610983
      9 C                     1.087371
     10 C                    -0.322786
     11 C                    -3.228925
     12 O                    -0.145128
     13 C                    -2.480407
     14 C                    -0.146914
     15 C                     1.524782
     16 C                     1.715452
     17 C                    -0.159807
     18 C                    -2.102377
     19 H                    -0.107046
     20 H                     0.216582
     21 H                    -0.047780
     22 H                     0.066146
     23 H                     0.353597
     24 H                     0.145367
     25 H                     0.071466
     26 H                     0.406922
     27 H                     0.149280
     28 H                     0.348509
     29 H                     0.084848
     30 H                    -0.047598
     31 H                     0.083045
     32 H                     0.410901
     33 H                     0.410984
     34 H                     0.077013
  ----------------------------------------
  Sum of atomic charges =    -2.000000

                    Cartesian Multipole Moments
 -----------------------------------------------------------------
    Charge (ESU x 10^10)
                -9.6064
    Dipole Moment (Debye)
         X     -17.1954      Y       5.0140      Z       1.2416
       Tot      17.9545
    Quadrupole Moments (Debye-Ang)
        XX    -187.0978     XY      21.2784     YY    -160.0867
        XZ       8.1777     YZ     -18.4415     ZZ    -133.4110

 Total job time:  1178.62s(wall), 8652.73s(cpu)
        *  Thank you very much for using Q-Chem.  Have a nice day.  *
