 Gaussian 16, Revision A.03,
 Gaussian 16:  ES64L-G16RevA.03 25-Dec-2016

 ----------------------------------------------------------------
 #P UB3LYP/6-311++G(d,p) SCRF=(PCM,Solvent=n,n-DiMethylFormamide)
 ----------------------------------------------------------------

 -------
 Reduced
 -------
 Symbolic Z-matrix:
 Charge = -2 Multiplicity = 1

                         Standard orientation:
 ---------------------------------------------------------------------
 Center     Atomic      Atomic             Coordinates (Angstroms)
 Number     Number       Type             X           Y           Z
 ---------------------------------------------------------------------
      1          6           0       -0.067552    1.812267   -0.016383
      2          6           0        0.984633    0.812846   -0.025752
      3          6           0        0.822577   -0.575315    0.009804
      4          6           0       -0.507718   -1.143729    0.005077
      5          6           0       -1.570802   -0.149369   -0.023420
      6          6           0       -1.384386    1.245529   -0.013486
      7          8           0        0.155959    3.070257    0.020460
      8          8           0       -0.704921   -2.401415    0.070858
      9          6           0       -2.523647    2.230268   -0.094846
     10          6           0        2.010962   -1.532147   -0.032576
     11          6           0        2.119248   -2.365137    1.261618
     12          6           0        1.976900   -2.443831   -1.277843
     13          7           0        2.346156    1.358744   -0.004180
     14          7           0       -2.926531   -0.653271    0.020024
     15          1           0       -3.355760    1.856596   -0.699448
     16          1           0       -2.135282    3.159118   -0.519374
     17          1           0       -2.935200    2.464731    0.895678
     18          1           0        2.927181   -0.941792   -0.099751
     19          1           0        2.983627   -3.044175    1.215731
     20          1           0        1.207998   -2.951246    1.396758
     21          1           0        2.251367   -1.703863    2.123142
     22          1           0        2.855860   -3.105282   -1.293126
     23          1           0        1.991195   -1.841094   -2.192173
     24          1           0        1.068105   -3.048134   -1.271918
     25          8           0        2.740494    2.012267   -0.971079
     26          8           0        3.062367    1.144711    0.988441
     27          8           0       -3.727432   -0.168064    0.851707
     28          8           0       -3.271185   -1.549189   -0.762834
 ---------------------------------------------------------------------

 SCF Done:  E(UB3LYP) =  -948.279837350     A.U. after   23 cycles

 The electronic state is 1-A.
 Alpha  occ. eigenvalues --  -19.15465 -19.15176 -19.13601 -19.13227 -19.03656
 Alpha  occ. eigenvalues --  -19.03430 -14.53660 -14.51868 -10.20692 -10.20132
 Alpha  occ. eigenvalues --  -10.19859 -10.19140 -10.16534 -10.16182 -10.15700
 Alpha  occ. eigenvalues --  -10.14593 -10.14115 -10.14087  -1.21909  -1.19795
 Alpha  occ. eigenvalues --   -1.04372  -1.02224  -0.96310  -0.95794  -0.83711
 Alpha  occ. eigenvalues --   -0.81042  -0.77318  -0.73286  -0.70775  -0.66749
 Alpha  occ. eigenvalues --   -0.65525  -0.61288  -0.58355  -0.56614  -0.53881
 Alpha  occ. eigenvalues --   -0.53476  -0.52896  -0.51453  -0.50187  -0.49397
 Alpha  occ. eigenvalues --   -0.48292  -0.45591  -0.42284  -0.41926  -0.40909
 Alpha  occ. eigenvalues --   -0.39583  -0.39028  -0.38159  -0.37827  -0.36488
 Alpha  occ. eigenvalues --   -0.35727  -0.35648  -0.33501  -0.32757  -0.32607
 Alpha  occ. eigenvalues --   -0.32502  -0.31027  -0.30688  -0.29997  -0.29835
 Alpha  occ. eigenvalues --   -0.29698  -0.28070  -0.24418  -0.23080  -0.21764
 Alpha  occ. eigenvalues --   -0.20952  -0.13884
 Alpha virt. eigenvalues --   -0.08390  -0.06369   0.00067   0.00974   0.01028
 Alpha virt. eigenvalues --    0.02122   0.02540   0.03281   0.04045   0.04380
 Alpha virt. eigenvalues --    0.05050   0.05427   0.05732   0.05812   0.06523

  Beta  occ. eigenvalues --  -19.15465 -19.15176 -19.13601 -19.13227 -19.03656
  Beta  occ. eigenvalues --  -19.03430 -14.53660 -14.51868 -10.20692 -10.20132
  Beta  occ. eigenvalues --  -10.19859 -10.19140 -10.16534 -10.16182 -10.15700
  Beta  occ. eigenvalues --  -10.14593 -10.14115 -10.14087  -1.21909  -1.19795
  Beta  occ. eigenvalues --   -1.04372  -1.02224  -0.96310  -0.95794  -0.83711
  Beta  occ. eigenvalues --   -0.81042  -0.77318  -0.73286  -0.70775  -0.66749
  Beta  occ. eigenvalues --   -0.65525  -0.61288  -0.58355  -0.56614  -0.53881
  Beta  occ. eigenvalues --   -0.53476  -0.52896  -0.51453  -0.50187  -0.49397
  Beta  occ. eigenvalues --   -0.48292  -0.45591  -0.42284  -0.41926  -0.40909
  Beta  occ. eigenvalues --   -0.39583  -0.39028  -0.38159  -0.37827  -0.36488
  Beta  occ. eigenvalues --   -0.35727  -0.35648  -0.33501  -0.32757  -0.32607
  Beta  occ. eigenvalues --   -0.32502  -0.31027  -0.30688  -0.29997  -0.29835
  Beta  occ. eigenvalues --   -0.29698  -0.28070  -0.24418  -0.23080  -0.21764
  Beta  occ. eigenvalues --   -0.20952  -0.13884
  Beta virt. eigenvalues --   -0.08390  -0.06369   0.00067   0.00974   0.01028
  Beta virt. eigenvalues --    0.02122   0.02540   0.03281   0.04045   0.04380
  Beta virt. eigenvalues --    0.05050   0.05427   0.05732   0.05812   0.06523

 Mulliken charges and spin densities:
               1          2
     1  C   -0.508821  -0.000000
     2  C   -0.676331  -0.000000
     3  C    1.603468   0.000000
     4  C   -1.117673  -0.000000
     5  C   -1.656374  -0.000000
     6  C    2.271207   0.000000
     7  O   -0.597304  -0.000000
     8  O   -0.510488  -0.000000
     9  C   -0.303651   0.000000
    10  C    0.031493  -0.000000
    11  C   -0.670950   0.000000
    12  C   -0.688468   0.000000
    13  N   -0.226359   0.000000
    14  N   -0.275218   0.000000
    15  H    0.166272   0.000000
    16  H    0.160694   0.000000
    17  H    0.178791  -0.000000
    18  H    0.164526  -0.000000
    19  H    0.134722  -0.000000
    20  H    0.188419  -0.000000
    21  H    0.129137   0.000000
    22  H    0.136824  -0.000000
    23  H    0.132241   0.000000
    24  H    0.180269  -0.000000
    25  O   -0.019563   0.000000
    26  O   -0.062268   0.000000
    27  O   -0.117204   0.000000
    28  O   -0.047392  -0.000000
 Sum of Mulliken charges =  -2.00000  -0.00000

 Dipole moment (field-independent basis, Debye):
    X=              4.1351    Y=             -3.5009    Z=             -0.6330  Tot=              5.4549
 Quadrupole moment (field-independent basis, Debye-Ang):
   XX=           -168.0598   YY=           -169.8983   ZZ=           -118.3460
   XY=            -26.6092   XZ=              0.8851   YZ=             -0.5513

 Normal termination of Gaussian 16 at Sun Jan 21 07:45:42 2024.
