 Gaussian 16, Revision A.03,
 Gaussian 16:  ES64L-G16RevA.03 25-Dec-2016

 ----------------------------------------------------------------------
 #P UB3LYP/6-311++G(d,p) nosym opt freq SCRF=(PCM,Solvent=n,n-DiMethylF
 ormamide)
 ----------------------------------------------------------------------

 -------
 Radical
 -------
 Symbolic Z-matrix:
 Charge = -1 Multiplicity = 2

 SCF Done:  E(UB3LYP) =  -685.934690347     A.U. after   18 cycles
 SCF Done:  E(UB3LYP) =  -685.934804860     A.U. after   13 cycles
 SCF Done:  E(UB3LYP) =  -685.934815801     A.U. after   11 cycles
 SCF Done:  E(UB3LYP) =  -685.934822566     A.U. after   11 cycles
 SCF Done:  E(UB3LYP) =  -685.934823001     A.U. after   10 cycles
 SCF Done:  E(UB3LYP) =  -685.934823519     A.U. after    9 cycles
 Optimization completed.
    -- Stationary point found.
 Normal termination of Gaussian 16 at Sun Feb 11 15:06:16 2024.

 ----------------------------------------------------------------------
 #P Geom=AllCheck Guess=TCheck SCRF=Check GenChk UB3LYP/6-311++G(d,p) F
 req
 ----------------------------------------------------------------------

 Structure from the checkpoint file:  "310-rad.chk"
 -------
 Radical
 -------
 Charge = -1 Multiplicity = 2

                          Input orientation:
 ---------------------------------------------------------------------
 Center     Atomic      Atomic             Coordinates (Angstroms)
 Number     Number       Type             X           Y           Z
 ---------------------------------------------------------------------
      1          8           0       -2.209017   -2.068517    0.205992
      2          6           0       -1.659866   -0.831062    0.099335
      3          6           0       -2.494960    0.282946    0.031557
      4          6           0       -1.960618    1.567160   -0.078553
      5          6           0       -0.581012    1.761586   -0.122714
      6          8           0       -0.089992    3.023211   -0.229902
      7          6           0        0.293451    0.648412   -0.055823
      8          6           0        1.736685    0.845210   -0.101640
      9          8           0        2.239090    2.024972   -0.202282
     10          6           0        2.559807   -0.319368   -0.030328
     11          6           0        2.032244   -1.587470    0.078177
     12          6           0        0.625214   -1.826019    0.126661
     13          8           0        0.142235   -3.013841    0.227894
     14          6           0       -0.253105   -0.665187    0.056578
     15          1           0       -1.424370   -2.695429    0.237324
     16          1           0       -3.568393    0.135611    0.065896
     17          1           0       -2.613349    2.431066   -0.131034
     18          1           0        0.908332    2.909686   -0.242329
     19          1           0        3.633922   -0.169250   -0.065118
     20          1           0        2.683704   -2.453721    0.130307
 ---------------------------------------------------------------------

 SCF Done:  E(UB3LYP) =  -685.934823519     A.U. after    1 cycles

 Alpha  occ. eigenvalues --  -19.13162 -19.13160 -19.09335 -19.09334 -10.23506
 Alpha  occ. eigenvalues --  -10.23503 -10.23334 -10.23333 -10.18062 -10.18019
 Alpha  occ. eigenvalues --  -10.17461 -10.17408 -10.17197 -10.17136  -1.05397
 Alpha  occ. eigenvalues --   -1.05235  -1.00560  -1.00374  -0.85884  -0.81165
 Alpha  occ. eigenvalues --   -0.75183  -0.73948  -0.68666  -0.63859  -0.62140
 Alpha  occ. eigenvalues --   -0.58801  -0.52419  -0.51334  -0.51284  -0.50367
 Alpha  occ. eigenvalues --   -0.47415  -0.44061  -0.43929  -0.42798  -0.41256
 Alpha  occ. eigenvalues --   -0.41117  -0.40374  -0.39842  -0.39101  -0.38500
 Alpha  occ. eigenvalues --   -0.37048  -0.36324  -0.35326  -0.31072  -0.28535
 Alpha  occ. eigenvalues --   -0.26301  -0.25973  -0.25244  -0.21896  -0.16113
 Alpha virt. eigenvalues --   -0.02536  -0.02411   0.00093   0.01059   0.01360
 Alpha virt. eigenvalues --    0.02484   0.03333   0.04282   0.04891   0.05387
 Alpha virt. eigenvalues --    0.05873   0.06613   0.07092   0.07336   0.07755

  Beta  occ. eigenvalues --  -19.13099 -19.13097 -19.08797 -19.08796 -10.23323
  Beta  occ. eigenvalues --  -10.23320 -10.23276 -10.23275 -10.18088 -10.18045
  Beta  occ. eigenvalues --  -10.17383 -10.17329 -10.17041 -10.16979  -1.05195
  Beta  occ. eigenvalues --   -1.05036  -0.99676  -0.99469  -0.85649  -0.80635
  Beta  occ. eigenvalues --   -0.74987  -0.73629  -0.67820  -0.63525  -0.61930
  Beta  occ. eigenvalues --   -0.58611  -0.52274  -0.51232  -0.51013  -0.50042
  Beta  occ. eigenvalues --   -0.47209  -0.43820  -0.43128  -0.42435  -0.41018
  Beta  occ. eigenvalues --   -0.40941  -0.39650  -0.39449  -0.38329  -0.37650
  Beta  occ. eigenvalues --   -0.36145  -0.35183  -0.35067  -0.30329  -0.26062
  Beta  occ. eigenvalues --   -0.25831  -0.25497  -0.24812  -0.20669
  Beta virt. eigenvalues --   -0.10035  -0.01407  -0.00977   0.00119   0.01071
  Beta virt. eigenvalues --    0.01393   0.02510   0.03353   0.04645   0.04932
  Beta virt. eigenvalues --    0.05404   0.06653   0.06808   0.07261   0.07903

 Mulliken charges and spin densities:
               1          2
     1  O   -0.410034   0.019473
     2  C   -0.255280   0.063778
     3  C   -0.009255   0.053913
     4  C   -0.009217   0.053917
     5  C   -0.255435   0.063773
     6  O   -0.410170   0.019474
     7  C    0.498025  -0.011131
     8  C   -0.378696   0.105230
     9  O   -0.521960   0.191729
    10  C   -0.169054   0.096070
    11  C   -0.169062   0.095997
    12  C   -0.378861   0.105304
    13  O   -0.522026   0.191700
    14  C    0.497720  -0.011133
    15  H    0.357471  -0.004601
    16  H    0.197936  -0.004554
    17  H    0.197973  -0.004553
    18  H    0.357630  -0.004600
    19  H    0.191120  -0.009898
    20  H    0.191177  -0.009886
 Sum of Mulliken charges =  -1.00000   1.00000

 Dipole moment (field-independent basis, Debye):
    X=             -1.4905    Y=              0.6204    Z=             -0.0171  Tot=              1.6145
 Quadrupole moment (field-independent basis, Debye-Ang):
   XX=            -93.9583   YY=           -120.8414   ZZ=            -85.7978
   XY=            -13.5317   XZ=              1.2106   YZ=              2.9893

  Exact polarizability: 290.820  -2.474 285.530  -3.926 -14.321  98.732
 Approx polarizability: 326.351   7.268 340.325  -5.138 -17.709 112.734

                      1                      2                      3
                      A                      A                      A
 Frequencies --    105.4699               115.0028               157.9574
 Red. masses --     12.1296                 5.4947                 8.3708
 Frc consts  --      0.0795                 0.0428                 0.1231
 IR Inten    --      0.0043                10.1488                 0.0135

                      4                      5                      6
                      A                      A                      A
 Frequencies --    197.2214               313.0713               340.3421
 Red. masses --      6.7889                 6.8456                 5.2732
 Frc consts  --      0.1556                 0.3953                 0.3599
 IR Inten    --      0.2489                 7.5693                 0.0007

                      7                      8                      9
                      A                      A                      A
 Frequencies --    374.8063               374.8798               405.9627
 Red. masses --      6.2896                 6.2332                10.7499
 Frc consts  --      0.5206                 0.5161                 1.0438
 IR Inten    --      9.3586                25.1366                 3.8167

                     10                     11                     12
                      A                      A                      A
 Frequencies --    431.1167               459.1265               465.0620
 Red. masses --     11.2007                 4.8456                11.1047
 Frc consts  --      1.2265                 0.6018                 1.4151
 IR Inten    --      9.7231                 0.0101                29.3482

                     13                     14                     15
                      A                      A                      A
 Frequencies --    471.1771               509.9083               538.7264
 Red. masses --      9.7869                 5.2583                 3.0902
 Frc consts  --      1.2802                 0.8055                 0.5284
 IR Inten    --      6.6458                11.2888                 0.4162

                     16                     17                     18
                      A                      A                      A
 Frequencies --    631.5913               654.4023               654.9467
 Red. masses --      7.9769                 4.2034                 5.8303
 Frc consts  --      1.8748                 1.0606                 1.4735
 IR Inten    --     23.9519                68.2755                 0.6534

                     19                     20                     21
                      A                      A                      A
 Frequencies --    665.7973               733.8344               744.8330
 Red. masses --      2.5381                 9.3130                 7.1431
 Frc consts  --      0.6629                 2.9548                 2.3348
 IR Inten    --     37.0550                 0.0001                 6.1218

                     22                     23                     24
                      A                      A                      A
 Frequencies --    763.3149               820.2122               831.6954
 Red. masses --      6.4056                 1.5669                 1.9884
 Frc consts  --      2.1990                 0.6211                 0.8104
 IR Inten    --     78.4203                15.6687               174.9528

                     25                     26                     27
                      A                      A                      A
 Frequencies --    879.3917               883.6524               928.6604
 Red. masses --      1.0563                 1.0584                 1.2965
 Frc consts  --      0.4813                 0.4869                 0.6588
 IR Inten    --     38.1894               192.5519                 0.0034

                     28                     29                     30
                      A                      A                      A
 Frequencies --    939.3878               942.5196               972.7565
 Red. masses --      1.2794                 7.7514                 5.4500
 Frc consts  --      0.6652                 4.0571                 3.0385
 IR Inten    --      0.2037               227.1838                23.9506

                     31                     32                     33
                      A                      A                      A
 Frequencies --   1104.8158              1139.5333              1156.6785
 Red. masses --      1.4173                 2.7728                 1.2657
 Frc consts  --      1.0192                 2.1214                 0.9977
 IR Inten    --     11.9027                31.4425                93.2081

                     34                     35                     36
                      A                      A                      A
 Frequencies --   1260.7089              1265.8392              1271.8339
 Red. masses --      1.8276                10.2701                 3.4248
 Frc consts  --      1.7114                 9.6957                 3.2640
 IR Inten    --    587.7955                43.5323                 3.0138

                     37                     38                     39
                      A                      A                      A
 Frequencies --   1289.5256              1295.8898              1383.4720
 Red. masses --      3.2033                 4.0818                 5.3927
 Frc consts  --      3.1384                 4.0387                 6.0813
 IR Inten    --    193.9325               163.1204                 5.3284

                     40                     41                     42
                      A                      A                      A
 Frequencies --   1404.5628              1411.5489              1427.3300
 Red. masses --      2.1266                 8.2760                 6.6440
 Frc consts  --      2.4719                 9.7154                 7.9749
 IR Inten    --    536.6782                17.6047               401.9482

                     43                     44                     45
                      A                      A                      A
 Frequencies --   1487.6224              1522.2422              1534.6843
 Red. masses --      2.0229                 3.0105                 3.9940
 Frc consts  --      2.6377                 4.1101                 5.5424
 IR Inten    --   1097.2913                50.0481               532.7849

                     46                     47                     48
                      A                      A                      A
 Frequencies --   1590.0549              1645.6224              1651.4356
 Red. masses --      2.0456                 6.1174                 2.8392
 Frc consts  --      3.0472                 9.7607                 4.5621
 IR Inten    --    231.2031                 6.3848                 7.2857

                     49                     50                     51
                      A                      A                      A
 Frequencies --   2982.5078              2986.1689              3159.9195
 Red. masses --      1.0725                 1.0732                 1.0862
 Frc consts  --      5.6211                 5.6382                 6.3904
 IR Inten    --     32.2287              1136.4192                31.2292

                     52                     53                     54
                      A                      A                      A
 Frequencies --   3173.9623              3176.7752              3188.1712
 Red. masses --      1.0875                 1.0945                 1.0945
 Frc consts  --      6.4551                 6.5077                 6.5545
 IR Inten    --     20.2640                28.6957                19.6122

 - Thermochemistry -
 -------------------
 Temperature   298.150 Kelvin.  Pressure   1.00000 Atm.
 Atom     1 has atomic number  8 and mass  15.99491

 Molecular mass:   190.02661 amu.
 Principal axes and moments of inertia in atomic units:
                           1         2         3
     Eigenvalues --  1826.720712295.598674122.31929
           X            0.38301   0.92350   0.02126
           Y            0.92038  -0.38348   0.07640
           Z           -0.07870   0.00970   0.99685
 This molecule is an asymmetric top.
 Rotational symmetry number  1.
 Warning -- assumption of classical behavior for rotation
           may cause significant error
 Rotational temperatures (Kelvin)      0.04741     0.03773     0.02101
 Rotational constants (GHZ):           0.98797     0.78617     0.43780
 Zero-point vibrational energy     363770.8 (Joules/Mol)
                                   86.94331 (Kcal/Mol)
 Warning -- explicit consideration of  15 degrees of freedom as
           vibrations may cause significant error
 Vibrational temperatures:    151.75   165.46   227.27   283.76   450.44
          (Kelvin)            489.68   539.26   539.37   584.09   620.28
                              660.58   669.12   677.92   733.64   775.11
                              908.72   941.54   942.32   957.93  1055.82
                             1071.65  1098.24  1180.10  1196.62  1265.25
                             1271.38  1336.14  1351.57  1356.08  1399.58
                             1589.58  1639.53  1664.20  1813.88  1821.26
                             1829.89  1855.34  1864.50  1990.51  2020.85
                             2030.90  2053.61  2140.36  2190.17  2208.07
                             2287.73  2367.68  2376.05  4291.16  4296.43
                             4546.42  4566.62  4570.67  4587.07

 Zero-point correction=                           0.138553 (Hartree/Particle)
 Thermal correction to Energy=                    0.148647
 Thermal correction to Enthalpy=                  0.149591
 Thermal correction to Gibbs Free Energy=         0.102434
 Sum of electronic and zero-point Energies=           -685.796271
 Sum of electronic and thermal Energies=              -685.786176
 Sum of electronic and thermal Enthalpies=            -685.785232
 Sum of electronic and thermal Free Energies=         -685.832389

                     E (Thermal)             CV                S
                      KCal/Mol        Cal/Mol-Kelvin    Cal/Mol-Kelvin
 Total                   93.277             41.392             99.250
 Electronic               0.000              0.000              1.377
 Translational            0.889              2.981             41.632
 Rotational               0.889              2.981             31.225
 Vibrational             91.500             35.431             25.016
 Vibration     1          0.605              1.945              3.351
 Vibration     2          0.608              1.937              3.183
 Vibration     3          0.621              1.894              2.574
 Vibration     4          0.637              1.844              2.159
 Vibration     5          0.701              1.649              1.346
 Vibration     6          0.720              1.595              1.211
 Vibration     7          0.746              1.524              1.060
 Vibration     8          0.746              1.524              1.060
 Vibration     9          0.771              1.457              0.941
 Vibration    10          0.792              1.402              0.855
 Vibration    11          0.817              1.341              0.769
 Vibration    12          0.823              1.328              0.752
 Vibration    13          0.828              1.314              0.734
 Vibration    14          0.865              1.228              0.634
 Vibration    15          0.894              1.164              0.568

 Optimization completed.
    -- Stationary point found.
 Normal termination of Gaussian 16 at Sun Feb 11 15:18:37 2024.
