 Gaussian 16, Revision A.03,
 Gaussian 16:  ES64L-G16RevA.03 25-Dec-2016

 --------------------------------------
 #P UB3LYP/6-311++G(d,p) nosym opt freq
 --------------------------------------

 -------
 Radical
 -------
 Symbolic Z-matrix:
 Charge = -1 Multiplicity = 2

 SCF Done:  E(UB3LYP) =  -1760.50485741     A.U. after   30 cycles
 SCF Done:  E(UB3LYP) =  -1760.52028748     A.U. after   27 cycles
 SCF Done:  E(UB3LYP) =  -1760.52106465     A.U. after   26 cycles
 SCF Done:  E(UB3LYP) =  -1760.52114471     A.U. after   23 cycles
 SCF Done:  E(UB3LYP) =  -1760.52115220     A.U. after   24 cycles
 Optimization completed.
    -- Stationary point found.
 Normal termination of Gaussian 16 at Sun Dec 17 20:56:39 2023.

 ----------------------------------------------------------------------
 #P Geom=AllCheck Guess=TCheck SCRF=Check GenChk UB3LYP/6-311++G(d,p) F
 req
 ----------------------------------------------------------------------

 Structure from the checkpoint file:  "026-rad.chk"
 -------
 Radical
 -------
 Charge = -1 Multiplicity = 2

                          Input orientation:
 ---------------------------------------------------------------------
 Center     Atomic      Atomic             Coordinates (Angstroms)
 Number     Number       Type             X           Y           Z
 ---------------------------------------------------------------------
      1         17           0       -2.662113   -1.738053   -0.011580
      2          6           0       -1.200195   -0.745247   -0.006105
      3          6           0       -1.315363    0.611406   -0.038180
      4          6           0       -0.166154    1.491117   -0.036056
      5          8           0       -0.282195    2.737353   -0.065634
      6          6           0        1.124119    0.806120    0.003307
      7          6           0        1.225661   -0.563599    0.035415
      8         17           0        2.786132   -1.362018    0.082379
      9          6           0        0.066778   -1.460474    0.033390
     10          8           0        0.164898   -2.701831    0.062663
     11         17           0        2.544373    1.834543    0.007328
     12          1           0       -2.285941    1.090681   -0.066927
 ---------------------------------------------------------------------

 SCF Done:  E(UB3LYP) =  -1760.52115220     A.U. after    4 cycles

 Alpha  occ. eigenvalues -- -101.43415-101.43380-101.43327 -18.96441 -18.96271
 Alpha  occ. eigenvalues --  -10.12146 -10.11792 -10.11691 -10.11556 -10.11262
 Alpha  occ. eigenvalues --  -10.06008  -9.34869  -9.34833  -9.34774  -7.11326
 Alpha  occ. eigenvalues --   -7.11285  -7.11209  -7.10395  -7.10362  -7.10294
 Alpha  occ. eigenvalues --   -7.10285  -7.10251  -7.10223  -0.89652  -0.88986
 Alpha  occ. eigenvalues --   -0.77638  -0.75336  -0.72738  -0.68151  -0.60425
 Alpha  occ. eigenvalues --   -0.56845  -0.47946  -0.45803  -0.39097  -0.36027
 Alpha  occ. eigenvalues --   -0.33685  -0.31880  -0.31824  -0.29383  -0.28090
 Alpha  occ. eigenvalues --   -0.27436  -0.27193  -0.25160  -0.22123  -0.21259
 Alpha  occ. eigenvalues --   -0.20664  -0.19614  -0.18365  -0.15910  -0.13247
 Alpha  occ. eigenvalues --   -0.12954  -0.12747  -0.04955
 Alpha virt. eigenvalues --    0.09458   0.09647   0.10650   0.11741   0.13243
 Alpha virt. eigenvalues --    0.14222   0.14236   0.15683   0.16056   0.16066
 Alpha virt. eigenvalues --    0.17302   0.17673   0.18799   0.18956   0.19257

  Beta  occ. eigenvalues -- -101.43412-101.43375-101.43325 -18.95711 -18.95529
  Beta  occ. eigenvalues --  -10.12053 -10.11678 -10.11612 -10.11418 -10.11137
  Beta  occ. eigenvalues --  -10.05892  -9.34865  -9.34828  -9.34772  -7.11330
  Beta  occ. eigenvalues --   -7.11289  -7.11215  -7.10376  -7.10339  -7.10283
  Beta  occ. eigenvalues --   -7.10280  -7.10249  -7.10222  -0.88450  -0.87724
  Beta  occ. eigenvalues --   -0.77325  -0.75157  -0.72615  -0.67790  -0.60169
  Beta  occ. eigenvalues --   -0.55885  -0.47543  -0.45406  -0.38885  -0.35674
  Beta  occ. eigenvalues --   -0.33450  -0.31744  -0.30493  -0.28625  -0.27545
  Beta  occ. eigenvalues --   -0.27253  -0.25402  -0.24180  -0.21088  -0.20593
  Beta  occ. eigenvalues --   -0.20250  -0.19580  -0.18329  -0.13111  -0.12554
  Beta  occ. eigenvalues --   -0.12233  -0.12052
  Beta virt. eigenvalues --    0.02235   0.09734   0.10673   0.10958   0.11796
  Beta virt. eigenvalues --    0.13279   0.14284   0.15764   0.16110   0.16137
  Beta virt. eigenvalues --    0.16652   0.17352   0.17787   0.18848   0.19051

 Mulliken charges and spin densities:
               1          2
     1  Cl   0.187050   0.003466
     2  C    1.364535   0.099444
     3  C   -0.533519   0.090424
     4  C   -1.354797   0.080097
     5  O   -0.333789   0.267116
     6  C    0.546031   0.084923
     7  C    0.709226   0.065102
     8  Cl   0.307029   0.003382
     9  C   -2.108880   0.039709
    10  O   -0.261207   0.267614
    11  Cl   0.307632   0.006703
    12  H    0.170691  -0.007981
 Sum of Mulliken charges =  -1.00000   1.00000

 Dipole moment (field-independent basis, Debye):
    X=             -1.3075    Y=              0.7045    Z=             -0.0402  Tot=              1.4857
 Quadrupole moment (field-independent basis, Debye-Ang):
   XX=            -99.3640   YY=           -122.8254   ZZ=            -85.8018
   XY=             -1.9621   XZ=             -0.2117   YZ=              0.7799

  Exact polarizability: 157.670  10.604 174.678   1.495  -2.205  65.691
 Approx polarizability: 215.771   5.816 316.100   2.060  -4.673  99.365

                      1                      2                      3
                      A                      A                      A
 Frequencies --     72.5714                91.5178               164.3673
 Red. masses --     21.3823                18.5889                11.2712
 Frc consts  --      0.0663                 0.0917                 0.1794
 IR Inten    --      2.6008                 1.4216                 5.7271

                      4                      5                      6
                      A                      A                      A
 Frequencies --    196.7449               210.4108               258.3455
 Red. masses --     24.5609                29.8803                 7.1873
 Frc consts  --      0.5601                 0.7794                 0.2826
 IR Inten    --      1.0857                 0.5363                 0.0486

                      7                      8                      9
                      A                      A                      A
 Frequencies --    267.8520               313.5092               345.3491
 Red. masses --     18.5276                23.7789                19.1208
 Frc consts  --      0.7832                 1.3770                 1.3436
 IR Inten    --      0.4058                 0.1299                 0.7393

                     10                     11                     12
                      A                      A                      A
 Frequencies --    376.8401               387.9176               492.3654
 Red. masses --     10.3176                18.6629                14.0105
 Frc consts  --      0.8633                 1.6547                 2.0011
 IR Inten    --      0.0358                 0.4405                 0.0066

                     13                     14                     15
                      A                      A                      A
 Frequencies --    505.4698               584.7503               670.5041
 Red. masses --      5.8741                 9.0242                 7.3218
 Frc consts  --      0.8843                 1.8180                 1.9394
 IR Inten    --      0.4511                42.5007                 9.7412

                     16                     17                     18
                      A                      A                      A
 Frequencies --    686.7218               765.4140               773.5818
 Red. masses --      5.3959                 7.5198                11.3889
 Frc consts  --      1.4992                 2.5957                 4.0155
 IR Inten    --      0.3531                 2.2146                74.7155

                     19                     20                     21
                      A                      A                      A
 Frequencies --    858.7498               872.1283               967.4996
 Red. masses --      1.5900                 9.3493                11.8015
 Frc consts  --      0.6909                 4.1898                 6.5086
 IR Inten    --     22.3396               102.8787                15.5379

                     22                     23                     24
                      A                      A                      A
 Frequencies --   1062.6685              1131.1383              1256.4221
 Red. masses --      3.4757                11.3556                 1.9312
 Frc consts  --      2.3125                 8.5604                 1.7962
 IR Inten    --    167.7668                48.4949                28.6461

                     25                     26                     27
                      A                      A                      A
 Frequencies --   1355.3089              1469.4241              1531.6058
 Red. masses --      5.7454                 9.2091                12.4390
 Frc consts  --      6.2180                11.7156                17.1922
 IR Inten    --     41.5813                 0.3623               120.0775

                     28                     29                     30
                      A                      A                      A
 Frequencies --   1552.2818              1614.9829              3192.0786
 Red. masses --     10.8976                 9.5262                 1.0909
 Frc consts  --     15.4712                14.6387                 6.5493
 IR Inten    --    331.1679                10.9171                 2.8247

 - Thermochemistry -
 -------------------
 Temperature   298.150 Kelvin.  Pressure   1.00000 Atm.
 Atom     1 has atomic number 17 and mass  34.96885

 Molecular mass:   209.90421 amu.
 Principal axes and moments of inertia in atomic units:
                           1         2         3
     Eigenvalues --  1716.542613220.575174937.11778
           X            0.85591  -0.51679  -0.01876
           Y            0.51711   0.85564   0.02205
           Z            0.00466  -0.02857   0.99958
 This molecule is an asymmetric top.
 Rotational symmetry number  1.
 Warning -- assumption of classical behavior for rotation
           may cause significant error
 Rotational temperatures (Kelvin)      0.05046     0.02689     0.01754
 Rotational constants (GHZ):           1.05138     0.56038     0.36555
 Zero-point vibrational energy     143722.5 (Joules/Mol)
                                   34.35050 (Kcal/Mol)
 Warning -- explicit consideration of  14 degrees of freedom as
           vibrations may cause significant error
 Vibrational temperatures:    104.41   131.67   236.49   283.07   302.73
          (Kelvin)            371.70   385.38   451.07   496.88   542.19
                              558.13   708.40   727.26   841.33   964.71
                              988.04  1101.26  1113.01  1235.55  1254.80
                             1392.02  1528.94  1627.46  1807.71  1949.99
                             2114.17  2203.64  2233.39  2323.60  4592.69

 Zero-point correction=                           0.054741 (Hartree/Particle)
 Thermal correction to Energy=                    0.064495
 Thermal correction to Enthalpy=                  0.065439
 Thermal correction to Gibbs Free Energy=         0.017521
 Sum of electronic and zero-point Energies=          -1760.466411
 Sum of electronic and thermal Energies=             -1760.456657
 Sum of electronic and thermal Enthalpies=           -1760.455713
 Sum of electronic and thermal Free Energies=        -1760.503631

                     E (Thermal)             CV                S
                      KCal/Mol        Cal/Mol-Kelvin    Cal/Mol-Kelvin
 Total                   40.471             34.520            100.851
 Electronic               0.000              0.000              1.377
 Translational            0.889              2.981             41.928
 Rotational               0.889              2.981             31.679
 Vibrational             38.694             28.559             25.867
 Vibration     1          0.599              1.967              4.082
 Vibration     2          0.602              1.955              3.627
 Vibration     3          0.623              1.886              2.499
 Vibration     4          0.636              1.844              2.163
 Vibration     5          0.643              1.825              2.040
 Vibration     6          0.667              1.749              1.673
 Vibration     7          0.673              1.732              1.610
 Vibration     8          0.701              1.648              1.344
 Vibration     9          0.724              1.585              1.187
 Vibration    10          0.747              1.519              1.052
 Vibration    11          0.756              1.496              1.008
 Vibration    12          0.848              1.267              0.677
 Vibration    13          0.861              1.238              0.645
 Vibration    14          0.942              1.064              0.477

 Optimization completed.
    -- Stationary point found.
 Normal termination of Gaussian 16 at Sun Dec 17 21:00:38 2023.
