 Gaussian 16, Revision A.03,
 Gaussian 16:  ES64L-G16RevA.03 25-Dec-2016

 --------------------------------------
 #P UB3LYP/6-311++G(d,p) nosym opt freq
 --------------------------------------

 -------
 Radical
 -------
 Symbolic Z-matrix:
 Charge = -1 Multiplicity = 2

 SCF Done:  E(UB3LYP) =  -1292.99980127     A.U. after   26 cycles
 SCF Done:  E(UB3LYP) =  -1293.03368281     A.U. after   19 cycles
 SCF Done:  E(UB3LYP) =  -1293.04302879     A.U. after   19 cycles
 SCF Done:  E(UB3LYP) =  -1293.04397526     A.U. after   15 cycles
 SCF Done:  E(UB3LYP) =  -1293.04456192     A.U. after   15 cycles
 SCF Done:  E(UB3LYP) =  -1293.04483501     A.U. after   17 cycles
 SCF Done:  E(UB3LYP) =  -1293.04569790     A.U. after   17 cycles
 SCF Done:  E(UB3LYP) =  -1293.04612610     A.U. after   16 cycles
 SCF Done:  E(UB3LYP) =  -1293.04626128     A.U. after   20 cycles
 SCF Done:  E(UB3LYP) =  -1293.04662217     A.U. after   16 cycles
 SCF Done:  E(UB3LYP) =  -1293.04729339     A.U. after   20 cycles
 SCF Done:  E(UB3LYP) =  -1293.04825222     A.U. after   17 cycles
 SCF Done:  E(UB3LYP) =  -1293.04799999     A.U. after   18 cycles
 SCF Done:  E(UB3LYP) =  -1293.04830101     A.U. after   19 cycles
 SCF Done:  E(UB3LYP) =  -1293.04860614     A.U. after   18 cycles
 SCF Done:  E(UB3LYP) =  -1293.04861839     A.U. after   16 cycles
 SCF Done:  E(UB3LYP) =  -1293.04862480     A.U. after   15 cycles
 SCF Done:  E(UB3LYP) =  -1293.04862596     A.U. after   13 cycles
 SCF Done:  E(UB3LYP) =  -1293.04862613     A.U. after   12 cycles
 Optimization completed.
    -- Stationary point found.
 Normal termination of Gaussian 16 at Fri Dec 22 02:52:35 2023.

 ----------------------------------------------------------------------
 #P Geom=AllCheck Guess=TCheck SCRF=Check GenChk UB3LYP/6-311++G(d,p) F
 req
 ----------------------------------------------------------------------

 Structure from the checkpoint file:  "218-rad.chk"
 -------
 Radical
 -------
 Charge = -1 Multiplicity = 2

                          Input orientation:
 ---------------------------------------------------------------------
 Center     Atomic      Atomic             Coordinates (Angstroms)
 Number     Number       Type             X           Y           Z
 ---------------------------------------------------------------------
      1          6           0        5.046829   -2.504740    0.093529
      2          6           0        5.763665   -1.546422   -0.596445
      3          6           0        5.083570   -0.509114   -1.267409
      4          6           0        3.637842   -2.466572    0.139957
      5          6           0        2.951362   -1.421403   -0.536341
      6          6           0        3.704036   -0.452798   -1.234534
      7          6           0        2.920627   -3.510010    0.886830
      8          6           0        1.459140   -3.407155    0.885508
      9          6           0        0.772319   -2.352493    0.208013
     10          6           0        1.486185   -1.317148   -0.529128
     11          6           0        0.712790   -4.377099    1.580093
     12          6           0       -0.642491   -2.316639    0.256241
     13          6           0       -1.366254   -3.263188    0.941799
     14          8           0        3.523043   -4.424770    1.489062
     15          8           0        0.886901   -0.388334   -1.124795
     16          1           0        5.541355   -3.313727    0.618527
     17          1           0       -2.448175   -3.237352    0.969201
     18          1           0        3.156214    0.333161   -1.741108
     19          1           0        1.246477   -5.176348    2.079122
     20          1           0       -1.137343   -1.510787   -0.272689
     21          6           0       -0.666003   -4.301012    1.606441
     22          1           0        5.646013    0.244669   -1.810180
     23          1           0        6.848135   -1.590587   -0.623138
     24         16           0       -1.584965   -5.491226    2.549286
     25          8           0       -0.734065   -6.652146    2.833400
     26          8           0       -2.919438   -5.693171    1.973665
     27          7           0       -1.896738   -4.640668    4.006663
     28          1           0       -1.087269   -4.707238    4.618616
     29          1           0       -2.702125   -5.077532    4.448632
 ---------------------------------------------------------------------

 SCF Done:  E(UB3LYP) =  -1293.04862613     A.U. after    2 cycles

 Alpha  occ. eigenvalues --  -88.97105 -19.02324 -19.02323 -18.96708 -18.96326
 Alpha  occ. eigenvalues --  -14.25482 -10.11879 -10.11265 -10.10584 -10.08424
 Alpha  occ. eigenvalues --  -10.08258 -10.07517 -10.07433 -10.07206 -10.07171
 Alpha  occ. eigenvalues --  -10.07112 -10.06909 -10.06863 -10.06808 -10.06721
 Alpha  occ. eigenvalues --   -8.03291  -5.99600  -5.99532  -5.99350  -1.02579
 Alpha  occ. eigenvalues --   -0.91499  -0.89543  -0.88905  -0.82042  -0.76672
 Alpha  occ. eigenvalues --   -0.75269  -0.69263  -0.66214  -0.64740  -0.64662
 Alpha  occ. eigenvalues --   -0.58883  -0.55853  -0.53214  -0.50957  -0.48917
 Alpha  occ. eigenvalues --   -0.46040  -0.45018  -0.43470  -0.43145  -0.41206
 Alpha  occ. eigenvalues --   -0.38852  -0.37409  -0.36540  -0.35770  -0.35196
 Alpha  occ. eigenvalues --   -0.33181  -0.32135  -0.31597  -0.31531  -0.30438
 Alpha  occ. eigenvalues --   -0.30133  -0.28783  -0.27257  -0.26897  -0.26748
 Alpha  occ. eigenvalues --   -0.25847  -0.24823  -0.24184  -0.23870  -0.23196
 Alpha  occ. eigenvalues --   -0.22499  -0.21499  -0.19972  -0.16413  -0.16188
 Alpha  occ. eigenvalues --   -0.15156  -0.14927  -0.13441  -0.12566  -0.03530
 Alpha virt. eigenvalues --    0.04438   0.06248   0.06799   0.07469   0.09440
 Alpha virt. eigenvalues --    0.09469   0.09823   0.10396   0.11362   0.12063
 Alpha virt. eigenvalues --    0.12981   0.13262   0.13744   0.14348   0.14461

  Beta  occ. eigenvalues --  -88.97104 -19.02320 -19.02315 -18.96165 -18.95680
  Beta  occ. eigenvalues --  -14.25475 -10.11785 -10.11142 -10.10505 -10.08471
  Beta  occ. eigenvalues --  -10.08159 -10.07490 -10.07386 -10.07225 -10.07057
  Beta  occ. eigenvalues --  -10.06952 -10.06855 -10.06839 -10.06772 -10.06716
  Beta  occ. eigenvalues --   -8.03291  -5.99596  -5.99531  -5.99351  -1.02561
  Beta  occ. eigenvalues --   -0.91486  -0.88617  -0.87796  -0.82022  -0.76433
  Beta  occ. eigenvalues --   -0.75137  -0.68847  -0.66015  -0.64578  -0.64488
  Beta  occ. eigenvalues --   -0.58570  -0.55333  -0.53030  -0.50753  -0.48858
  Beta  occ. eigenvalues --   -0.45934  -0.44839  -0.43365  -0.43011  -0.41124
  Beta  occ. eigenvalues --   -0.38727  -0.37266  -0.36345  -0.35640  -0.35148
  Beta  occ. eigenvalues --   -0.33155  -0.32101  -0.31454  -0.30392  -0.30209
  Beta  occ. eigenvalues --   -0.29718  -0.28360  -0.27052  -0.26551  -0.25752
  Beta  occ. eigenvalues --   -0.24727  -0.24637  -0.24043  -0.23137  -0.22852
  Beta  occ. eigenvalues --   -0.22424  -0.21431  -0.19809  -0.15796  -0.14459
  Beta  occ. eigenvalues --   -0.14352  -0.13850  -0.12905  -0.11994
  Beta virt. eigenvalues --    0.02352   0.05166   0.06318   0.07463   0.07815
  Beta virt. eigenvalues --    0.09464   0.09655   0.09832   0.10407   0.11365
  Beta virt. eigenvalues --    0.12123   0.13073   0.13483   0.13935   0.14369

 Mulliken charges and spin densities:
               1          2
     1  C    0.033381   0.005275
     2  C   -0.378888   0.038495
     3  C   -0.416816   0.019778
     4  C    0.379141   0.035285
     5  C    0.412940   0.020916
     6  C    0.056217   0.027759
     7  C   -0.858839   0.044223
     8  C    0.311769   0.086297
     9  C    0.662561   0.109272
    10  C   -0.607403   0.063692
    11  C   -0.116685  -0.027554
    12  C   -0.089382   0.010003
    13  C   -0.331498   0.090242
    14  O   -0.335293   0.202100
    15  O   -0.350239   0.241807
    16  H    0.158276  -0.000855
    17  H    0.222433  -0.005296
    18  H    0.161712  -0.002277
    19  H    0.239602   0.001229
    20  H    0.161436  -0.000532
    21  C   -0.410725   0.034108
    22  H    0.130397  -0.001869
    23  H    0.131494  -0.003087
    24  S    0.151038   0.009774
    25  O   -0.195812   0.002456
    26  O   -0.283760  -0.002600
    27  N   -0.386766  -0.000521
    28  H    0.266774  -0.000201
    29  H    0.282934   0.002079
 Sum of Mulliken charges =  -1.00000   1.00000

 Dipole moment (field-independent basis, Debye):
    X=             -5.8132    Y=             16.6130    Z=             -1.3606  Tot=             17.6532
 Quadrupole moment (field-independent basis, Debye-Ang):
   XX=           -163.3196   YY=           -222.4115   ZZ=           -127.4220
   XY=             10.7434   XZ=             -3.9732   YZ=             19.9644

  Exact polarizability: 354.621  59.259 230.826 -58.765 -83.453 183.808
 Approx polarizability: 550.457  32.127 389.121 -40.784-137.129 286.803

                      1                      2                      3
                      A                      A                      A
 Frequencies --     28.9307                38.2483                76.3877
 Red. masses --      7.0870                 7.4723                 6.1318
 Frc consts  --      0.0035                 0.0064                 0.0211
 IR Inten    --      2.0444                 2.4173                 6.7932

                      4                      5                      6
                      A                      A                      A
 Frequencies --    105.2706               122.3190               139.9892
 Red. masses --      6.4723                 3.5968                 2.9251
 Frc consts  --      0.0423                 0.0317                 0.0338
 IR Inten    --      2.1353                 5.4022                13.7705

                      7                      8                      9
                      A                      A                      A
 Frequencies --    162.6301               186.5681               217.3037
 Red. masses --      4.5251                 2.2988                 9.4737
 Frc consts  --      0.0705                 0.0471                 0.2636
 IR Inten    --      8.8620                16.2555                 2.3901

                     10                     11                     12
                      A                      A                      A
 Frequencies --    228.1852               241.1431               287.6813
 Red. masses --      6.8667                 4.4698                 7.8841
 Frc consts  --      0.2107                 0.1531                 0.3844
 IR Inten    --      1.9340                 7.0214                 0.9373

                     13                     14                     15
                      A                      A                      A
 Frequencies --    326.9644               354.3616               379.4060
 Red. masses --      3.8895                 5.1053                10.5953
 Frc consts  --      0.2450                 0.3777                 0.8986
 IR Inten    --     24.1564                 6.9900                 3.8526

                     16                     17                     18
                      A                      A                      A
 Frequencies --    405.0031               421.4497               427.9706
 Red. masses --      7.4771                 3.5548                 6.2777
 Frc consts  --      0.7226                 0.3720                 0.6775
 IR Inten    --      1.6659                 1.4905                 5.5510

                     19                     20                     21
                      A                      A                      A
 Frequencies --    436.5852               461.1542               468.1333
 Red. masses --      6.4758                 6.8494                 3.2942
 Frc consts  --      0.7272                 0.8582                 0.4253
 IR Inten    --     31.8841                 9.8836                 0.0228

                     22                     23                     24
                      A                      A                      A
 Frequencies --    479.0505               495.6850               536.6680
 Red. masses --      7.0785                10.7985                 5.5876
 Frc consts  --      0.9571                 1.5632                 0.9482
 IR Inten    --      8.8153                20.1029                32.9431

                     25                     26                     27
                      A                      A                      A
 Frequencies --    560.8370               636.6438               640.3292
 Red. masses --      6.8118                 7.0247                 4.6381
 Frc consts  --      1.2624                 1.6775                 1.1205
 IR Inten    --    144.7060                 5.9084                16.8374

                     28                     29                     30
                      A                      A                      A
 Frequencies --    652.7704               679.0348               695.1005
 Red. masses --      7.0006                 5.0762                 6.4646
 Frc consts  --      1.7575                 1.3790                 1.8403
 IR Inten    --     10.9104               265.4246                 7.0984

                     31                     32                     33
                      A                      A                      A
 Frequencies --    707.3676               712.2409               727.8631
 Red. masses --      2.7710                 4.5741                 4.8843
 Frc consts  --      0.8169                 1.3671                 1.5246
 IR Inten    --     63.3841                25.5457                 4.8246

                     34                     35                     36
                      A                      A                      A
 Frequencies --    782.0877               807.7652               823.7317
 Red. masses --      1.6203                 2.4157                 4.8017
 Frc consts  --      0.5839                 0.9287                 1.9196
 IR Inten    --     11.4882                10.7574                10.7691

                     37                     38                     39
                      A                      A                      A
 Frequencies --    828.1482               859.6313               881.1716
 Red. masses --      2.1284                 1.7580                 1.5420
 Frc consts  --      0.8601                 0.7654                 0.7055
 IR Inten    --     13.5487               156.2777                 0.1964

                     40                     41                     42
                      A                      A                      A
 Frequencies --    934.9693               959.8018               967.2769
 Red. masses --      6.6427                 1.5036                 4.4242
 Frc consts  --      3.4213                 0.8161                 2.4389
 IR Inten    --      9.4084                 7.7141                24.3324

                     43                     44                     45
                      A                      A                      A
 Frequencies --    986.2229               989.7657               990.8861
 Red. masses --      1.3371                 1.3021                 1.3135
 Frc consts  --      0.7662                 0.7516                 0.7598
 IR Inten    --      0.5603                 2.0562                 2.6001

                     46                     47                     48
                      A                      A                      A
 Frequencies --   1041.0831              1056.8437              1081.7733
 Red. masses --      2.0081                 2.5645                 2.6968
 Frc consts  --      1.2823                 1.6876                 1.8594
 IR Inten    --     34.4909                60.5668               273.3996

                     49                     50                     51
                      A                      A                      A
 Frequencies --   1110.3156              1111.3304              1134.9780
 Red. masses --      2.0910                 1.7051                 1.9537
 Frc consts  --      1.5188                 1.2407                 1.4828
 IR Inten    --     52.4571               236.4548                65.1236

                     52                     53                     54
                      A                      A                      A
 Frequencies --   1149.6710              1180.3793              1195.6304
 Red. masses --      1.4794                 3.0944                 2.3267
 Frc consts  --      1.1521                 2.5402                 1.9596
 IR Inten    --     23.3230                50.2200                 1.1011

                     55                     56                     57
                      A                      A                      A
 Frequencies --   1217.7659              1228.2838              1258.3096
 Red. masses --      1.9949                 2.0145                 1.8283
 Frc consts  --      1.7430                 1.7907                 1.7055
 IR Inten    --     35.9618                25.7757               120.5348

                     58                     59                     60
                      A                      A                      A
 Frequencies --   1279.0187              1327.8915              1358.0384
 Red. masses --      7.9721                 2.2896                10.5613
 Frc consts  --      7.6838                 2.3787                11.4760
 IR Inten    --    144.1105                13.8914                 5.3618

                     61                     62                     63
                      A                      A                      A
 Frequencies --   1368.4766              1405.1987              1460.2201
 Red. masses --     10.3052                 3.3286                 2.4687
 Frc consts  --     11.3706                 3.8724                 3.1013
 IR Inten    --    100.6060               210.2926                54.8743

                     64                     65                     66
                      A                      A                      A
 Frequencies --   1478.6334              1485.2968              1514.8529
 Red. masses --      3.2429                 2.6945                 6.0171
 Frc consts  --      4.1774                 3.5023                 8.1354
 IR Inten    --     60.0735                20.1536               406.3345

                     67                     68                     69
                      A                      A                      A
 Frequencies --   1538.0202              1557.8880              1583.8120
 Red. masses --      6.9776                 6.2951                 1.1235
 Frc consts  --      9.7247                 9.0017                 1.6604
 IR Inten    --    162.5775                32.9213                20.8287

                     70                     71                     72
                      A                      A                      A
 Frequencies --   1600.8569              1621.6352              1636.2167
 Red. masses --      6.1820                 7.6372                 6.8489
 Frc consts  --      9.3344                11.8328                10.8031
 IR Inten    --    117.3778                 6.3479                30.2702

                     73                     74                     75
                      A                      A                      A
 Frequencies --   3139.2511              3157.8210              3183.3365
 Red. masses --      1.0850                 1.0913                 1.0867
 Frc consts  --      6.3001                 6.4117                 6.4882
 IR Inten    --     15.4270                48.3787                 3.7505

                     76                     77                     78
                      A                      A                      A
 Frequencies --   3185.3984              3187.8734              3200.0461
 Red. masses --      1.0915                 1.0931                 1.0942
 Frc consts  --      6.5255                 6.5448                 6.6017
 IR Inten    --      7.9259                30.2224                 4.4924

                     79                     80                     81
                      A                      A                      A
 Frequencies --   3202.7797              3479.3585              3582.9678
 Red. masses --      1.0903                 1.0467                 1.0965
 Frc consts  --      6.5892                 7.4659                 8.2934
 IR Inten    --      4.4892                10.3058                12.7621

 - Thermochemistry -
 -------------------
 Temperature   298.150 Kelvin.  Pressure   1.00000 Atm.
 Atom     1 has atomic number  6 and mass  12.00000

 Molecular mass:   287.02523 amu.
 Principal axes and moments of inertia in atomic units:
                           1         2         3
     Eigenvalues --  2196.78037********************
           X            0.74952   0.65972   0.05471
           Y            0.51487  -0.63290   0.57823
           Z           -0.41609   0.40522   0.81404
 This molecule is an asymmetric top.
 Rotational symmetry number  1.
 Warning -- assumption of classical behavior for rotation
           may cause significant error
 Rotational temperatures (Kelvin)      0.03943     0.00803     0.00688
 Rotational constants (GHZ):           0.82154     0.16732     0.14337
 Zero-point vibrational energy     533247.3 (Joules/Mol)
                                  127.44916 (Kcal/Mol)
 Warning -- explicit consideration of  25 degrees of freedom as
           vibrations may cause significant error
 Vibrational temperatures:     41.62    55.03   109.90   151.46   175.99
          (Kelvin)            201.41   233.99   268.43   312.65   328.31
                              346.95   413.91   470.43   509.85   545.88
                              582.71   606.37   615.75   628.15   663.50
                              673.54   689.25   713.18   772.15   806.92
                              915.99   921.29   939.19   976.98  1000.09
                             1017.74  1024.76  1047.23  1125.25  1162.19
                             1185.17  1191.52  1236.82  1267.81  1345.21
                             1380.94  1391.70  1418.95  1424.05  1425.66
                             1497.89  1520.56  1556.43  1597.50  1598.96
                             1632.98  1654.12  1698.30  1720.25  1752.09
                             1767.23  1810.43  1840.22  1910.54  1953.91
                             1968.93  2021.77  2100.93  2127.42  2137.01
                             2179.54  2212.87  2241.45  2278.75  2303.28
                             2333.17  2354.15  4516.68  4543.40  4580.11
                             4583.08  4586.64  4604.15  4608.09  5006.02
                             5155.09

 Zero-point correction=                           0.203103 (Hartree/Particle)
 Thermal correction to Energy=                    0.219287
 Thermal correction to Enthalpy=                  0.220231
 Thermal correction to Gibbs Free Energy=         0.158032
 Sum of electronic and zero-point Energies=          -1292.845523
 Sum of electronic and thermal Energies=             -1292.829339
 Sum of electronic and thermal Enthalpies=           -1292.828395
 Sum of electronic and thermal Free Energies=        -1292.890594

                     E (Thermal)             CV                S
                      KCal/Mol        Cal/Mol-Kelvin    Cal/Mol-Kelvin
 Total                  137.605             63.652            130.910
 Electronic               0.000              0.000              1.377
 Translational            0.889              2.981             42.861
 Rotational               0.889              2.981             34.055
 Vibrational            135.827             57.690             52.617
 Vibration     1          0.593              1.984              5.901
 Vibration     2          0.594              1.982              5.348
 Vibration     3          0.599              1.965              3.982
 Vibration     4          0.605              1.945              3.354
 Vibration     5          0.610              1.930              3.063
 Vibration     6          0.615              1.913              2.804
 Vibration     7          0.623              1.888              2.519
 Vibration     8          0.632              1.858              2.262
 Vibration     9          0.646              1.815              1.981
 Vibration    10          0.651              1.798              1.893
 Vibration    11          0.658              1.777              1.794
 Vibration    12          0.685              1.697              1.488
 Vibration    13          0.711              1.622              1.275
 Vibration    14          0.730              1.566              1.147
 Vibration    15          0.749              1.514              1.042
 Vibration    16          0.770              1.459              0.944
 Vibration    17          0.784              1.424              0.887
 Vibration    18          0.789              1.409              0.865
 Vibration    19          0.797              1.390              0.837
 Vibration    20          0.819              1.336              0.763
 Vibration    21          0.825              1.321              0.743
 Vibration    22          0.835              1.297              0.713
 Vibration    23          0.851              1.260              0.669
 Vibration    24          0.892              1.169              0.572
 Vibration    25          0.916              1.116              0.522

                           ! Non-Optimized Parameters !
 Normal termination of Gaussian 16 at Fri Dec 22 04:24:00 2023.
