 Gaussian 16, Revision A.03,
 Gaussian 16:  ES64L-G16RevA.03 25-Dec-2016

 ----------------------------------------------------------------
 #P UB3LYP/6-311++G(d,p) SCRF=(PCM,Solvent=n,n-DiMethylFormamide)
 ----------------------------------------------------------------

 ------------------
 Radical PCM in DMF
 ------------------
 Symbolic Z-matrix:
 Charge = -1 Multiplicity = 2

                         Standard orientation:
 ---------------------------------------------------------------------
 Center     Atomic      Atomic             Coordinates (Angstroms)
 Number     Number       Type             X           Y           Z
 ---------------------------------------------------------------------
      1          6           0       -0.223857   -0.612528   -0.136876
      2          6           0       -1.458567    0.142303   -0.037727
      3          6           0       -1.405894    1.520946   -0.044537
      4          6           0       -0.178976    2.288996   -0.144137
      5          6           0        1.039503    1.528919   -0.255121
      6          6           0        1.025783    0.154013   -0.269609
      7          8           0       -0.149962   -1.885692   -0.107268
      8          8           0       -0.192899    3.554171   -0.134411
      9          7           0        2.146392   -0.652274   -0.427929
     10          6           0        3.490686   -0.230864   -0.078277
     11          6           0        3.688807   -0.030423    1.436937
     12          6           0        4.493370   -1.242849   -0.642183
     13          1           0        1.961693    2.094980   -0.339053
     14          1           0        1.899382   -1.620952   -0.236056
     15          1           0        3.672967    0.730768   -0.572097
     16          1           0        4.684314    0.372558    1.657233
     17          1           0        3.579499   -0.984553    1.963970
     18          1           0        2.942043    0.662977    1.829061
     19          1           0        5.521737   -0.943080   -0.417566
     20          1           0        4.381277   -1.333092   -1.725432
     21          1           0        4.329625   -2.233051   -0.201433
     22          6           0       -2.789692   -0.624580    0.082637
     23          6           0       -2.780502   -1.493826    1.363692
     24          6           0       -4.005629    0.317858    0.164489
     25          6           0       -2.982999   -1.536135   -1.153450
     26          1           0       -2.304423    2.121017    0.031923
     27          1           0       -1.947914   -2.196611    1.339366
     28          1           0       -3.720382   -2.054270    1.451007
     29          1           0       -2.679385   -0.861565    2.252106
     30          1           0       -4.921685   -0.278197    0.243958
     31          1           0       -4.091826    0.948691   -0.724961
     32          1           0       -3.955250    0.972636    1.039211
     33          1           0       -2.154584   -2.238899   -1.240794
     34          1           0       -3.028911   -0.934153   -2.067050
     35          1           0       -3.922228   -2.098101   -1.069480
 ---------------------------------------------------------------------

 SCF Done:  E(UB3LYP) =  -712.367249331     A.U. after   19 cycles

 The electronic state is 2-A.
 Alpha  occ. eigenvalues --  -19.07117 -19.06371 -14.30827 -10.21174 -10.20975
 Alpha  occ. eigenvalues --  -10.20356 -10.19775 -10.17884 -10.16383 -10.15752
 Alpha  occ. eigenvalues --  -10.15389 -10.14869 -10.14782 -10.14381 -10.14376
 Alpha  occ. eigenvalues --  -10.13931  -0.99558  -0.98474  -0.92070  -0.82537
 Alpha  occ. eigenvalues --   -0.79451  -0.76338  -0.71313  -0.68499  -0.67940
 Alpha  occ. eigenvalues --   -0.67315  -0.66394  -0.61514  -0.57622  -0.56855
 Alpha  occ. eigenvalues --   -0.51941  -0.48982  -0.48416  -0.45780  -0.44930
 Alpha  occ. eigenvalues --   -0.44033  -0.43861  -0.42978  -0.42075  -0.41382
 Alpha  occ. eigenvalues --   -0.40222  -0.39904  -0.38499  -0.38342  -0.37725
 Alpha  occ. eigenvalues --   -0.36956  -0.36704  -0.36405  -0.35809  -0.35426
 Alpha  occ. eigenvalues --   -0.34599  -0.33696  -0.32620  -0.32348  -0.31592
 Alpha  occ. eigenvalues --   -0.29705  -0.26071  -0.23720  -0.22842  -0.20459
 Alpha  occ. eigenvalues --   -0.14851
 Alpha virt. eigenvalues --   -0.00519   0.00250   0.00696   0.01174   0.01849
 Alpha virt. eigenvalues --    0.02186   0.02349   0.02651   0.03639   0.03797
 Alpha virt. eigenvalues --    0.04061   0.04222   0.04319   0.05105   0.05458

  Beta  occ. eigenvalues --  -19.06440 -19.05817 -14.30737 -10.20905 -10.20859
  Beta  occ. eigenvalues --  -10.20357 -10.19668 -10.17888 -10.16329 -10.15751
  Beta  occ. eigenvalues --  -10.15381 -10.14870 -10.14559 -10.14376 -10.14372
  Beta  occ. eigenvalues --  -10.13946  -0.98417  -0.97488  -0.91797  -0.82234
  Beta  occ. eigenvalues --   -0.79220  -0.76139  -0.71136  -0.68482  -0.67766
  Beta  occ. eigenvalues --   -0.67298  -0.65523  -0.61305  -0.57433  -0.56521
  Beta  occ. eigenvalues --   -0.51766  -0.48743  -0.48288  -0.45570  -0.44667
  Beta  occ. eigenvalues --   -0.43888  -0.43794  -0.42863  -0.41730  -0.41242
  Beta  occ. eigenvalues --   -0.39348  -0.39340  -0.38480  -0.38247  -0.37035
  Beta  occ. eigenvalues --   -0.36644  -0.36559  -0.35651  -0.35617  -0.34916
  Beta  occ. eigenvalues --   -0.33672  -0.33382  -0.32476  -0.32201  -0.31534
  Beta  occ. eigenvalues --   -0.28393  -0.23617  -0.23142  -0.22313  -0.19693
  Beta virt. eigenvalues --   -0.07758  -0.00505   0.00256   0.01196   0.01266
  Beta virt. eigenvalues --    0.02124   0.02311   0.02485   0.02815   0.03751
  Beta virt. eigenvalues --    0.04048   0.04145   0.04299   0.05105   0.05484

 Mulliken charges and spin densities:
               1          2
     1  C   -1.547257   0.188675
     2  C    1.117387   0.010603
     3  C   -0.590863   0.165313
     4  C   -0.420620   0.080980
     5  C    0.711888   0.004007
     6  C    0.003913   0.077862
     7  O   -0.444248   0.252818
     8  O   -0.538159   0.191668
     9  N   -0.004692   0.042200
    10  C   -0.040358  -0.005194
    11  C   -0.528824   0.005189
    12  C   -0.532158   0.002360
    13  H    0.194056  -0.000802
    14  H    0.298398  -0.002389
    15  H    0.129277   0.000501
    16  H    0.140906   0.000513
    17  H    0.156279   0.000300
    18  H    0.144944  -0.001340
    19  H    0.154079  -0.000116
    20  H    0.154071   0.000647
    21  H    0.142572  -0.000098
    22  C    0.602033  -0.015755
    23  C   -0.676479   0.007825
    24  C   -0.475626   0.001293
    25  C   -0.674930   0.006841
    26  H    0.179098  -0.012671
    27  H    0.185152  -0.000939
    28  H    0.141311   0.000238
    29  H    0.130749   0.000844
    30  H    0.168509   0.000145
    31  H    0.131753  -0.000640
    32  H    0.131484  -0.000611
    33  H    0.182092  -0.001237
    34  H    0.131449   0.000759
    35  H    0.142816   0.000211
 Sum of Mulliken charges =  -1.00000   1.00000

 Dipole moment (field-independent basis, Debye):
    X=              2.4262    Y=             -6.3579    Z=              1.2567  Tot=              6.9202
 Quadrupole moment (field-independent basis, Debye-Ang):
   XX=            -97.2456   YY=           -149.4623   ZZ=           -106.6517
   XY=              0.2194   XZ=              0.9215   YZ=              0.3187

 Normal termination of Gaussian 16 at Wed Jan 24 22:56:27 2024.
