 Gaussian 16, Revision A.03,
 Gaussian 16:  ES64L-G16RevA.03 25-Dec-2016

 --------------------------------------
 #P UB3LYP/6-311++G(d,p) nosym opt freq
 --------------------------------------

 -------
 Radical
 -------
 Symbolic Z-matrix:
 Charge = -1 Multiplicity = 2

 SCF Done:  E(UB3LYP) =  -712.288145552     A.U. after   21 cycles
 Optimization completed.
    -- Stationary point found.
 Normal termination of Gaussian 16 at Wed Jan 10 16:59:25 2024.

 ----------------------------------------------------------------------
 #P Geom=AllCheck Guess=TCheck SCRF=Check GenChk UB3LYP/6-311++G(d,p) F
 req
 ----------------------------------------------------------------------

 Structure from the checkpoint file:  "104-rad.chk"
 -------
 Radical
 -------
 Charge = -1 Multiplicity = 2

                          Input orientation:
 ---------------------------------------------------------------------
 Center     Atomic      Atomic             Coordinates (Angstroms)
 Number     Number       Type             X           Y           Z
 ---------------------------------------------------------------------
      1          6           0       -2.176719   -2.101492    4.981152
      2          6           0       -1.299142   -3.144191    4.484416
      3          6           0       -1.240399   -3.383021    3.126850
      4          6           0       -2.010108   -2.652980    2.137034
      5          6           0       -2.868157   -1.611452    2.640718
      6          6           0       -2.940285   -1.332199    3.985181
      7          8           0       -2.335783   -1.816496    6.214343
      8          8           0       -1.922019   -2.924949    0.904463
      9          7           0       -3.698026   -0.312104    4.547464
     10          6           0       -4.884024    0.242016    3.920305
     11          6           0       -6.053054   -0.759270    3.842231
     12          6           0       -5.291978    1.517838    4.664167
     13          1           0       -3.441228   -1.053923    1.906787
     14          1           0       -3.715339   -0.418382    5.559675
     15          1           0       -4.613247    0.524438    2.896225
     16          1           0       -6.898764   -0.339448    3.285022
     17          1           0       -6.398998   -1.018764    4.848741
     18          1           0       -5.734162   -1.677195    3.344292
     19          1           0       -6.171377    1.977196    4.202106
     20          1           0       -4.474089    2.242540    4.662625
     21          1           0       -5.541719    1.291733    5.707277
     22          6           0       -0.468050   -3.958528    5.494680
     23          6           0       -1.411168   -4.700093    6.473141
     24          6           0        0.420331   -5.014233    4.809365
     25          6           0        0.458534   -3.011502    6.295176
     26          1           0       -0.601320   -4.155183    2.716205
     27          1           0       -2.045063   -3.988468    7.001789
     28          1           0       -0.827217   -5.272925    7.205234
     29          1           0       -2.051251   -5.401196    5.927241
     30          1           0        0.990009   -5.558415    5.571001
     31          1           0        1.134834   -4.557797    4.118240
     32          1           0       -0.172078   -5.743660    4.249545
     33          1           0       -0.129129   -2.257226    6.818146
     34          1           0        1.158461   -2.505117    5.622248
     35          1           0        1.044205   -3.581183    7.028293
 ---------------------------------------------------------------------

 SCF Done:  E(UB3LYP) =  -712.288145552     A.U. after    3 cycles

 Alpha  occ. eigenvalues --  -18.93786 -18.92407 -14.18814 -10.10449 -10.08050
 Alpha  occ. eigenvalues --  -10.07322 -10.07064 -10.06856 -10.06654 -10.05966
 Alpha  occ. eigenvalues --  -10.04479 -10.03542 -10.03440 -10.03410 -10.01862
 Alpha  occ. eigenvalues --  -10.01166  -0.86333  -0.84399  -0.80310  -0.70646
 Alpha  occ. eigenvalues --   -0.68253  -0.65090  -0.59507  -0.58734  -0.57018
 Alpha  occ. eigenvalues --   -0.56332  -0.53849  -0.50270  -0.46274  -0.44561
 Alpha  occ. eigenvalues --   -0.40329  -0.37173  -0.37028  -0.34653  -0.33565
 Alpha  occ. eigenvalues --   -0.32908  -0.32102  -0.32048  -0.31295  -0.30033
 Alpha  occ. eigenvalues --   -0.29653  -0.28433  -0.28145  -0.26268  -0.26173
 Alpha  occ. eigenvalues --   -0.25665  -0.25206  -0.24971  -0.24591  -0.23475
 Alpha  occ. eigenvalues --   -0.22973  -0.22437  -0.21368  -0.21007  -0.20073
 Alpha  occ. eigenvalues --   -0.17413  -0.12910  -0.10526  -0.08792  -0.07868
 Alpha  occ. eigenvalues --   -0.01445
 Alpha virt. eigenvalues --    0.07112   0.08297   0.09308   0.09790   0.10590
 Alpha virt. eigenvalues --    0.10696   0.10884   0.11809   0.12384   0.12944
 Alpha virt. eigenvalues --    0.13107   0.13386   0.13607   0.14098   0.14673

  Beta  occ. eigenvalues --  -18.93117 -18.91746 -14.18762 -10.10450 -10.07790
  Beta  occ. eigenvalues --  -10.07259 -10.07064 -10.06767 -10.06658 -10.05961
  Beta  occ. eigenvalues --  -10.04479 -10.03504 -10.03437 -10.03407 -10.01610
  Beta  occ. eigenvalues --  -10.01141  -0.85256  -0.83254  -0.80067  -0.70461
  Beta  occ. eigenvalues --   -0.68079  -0.64740  -0.59470  -0.58560  -0.56972
  Beta  occ. eigenvalues --   -0.56319  -0.52991  -0.50018  -0.46045  -0.44255
  Beta  occ. eigenvalues --   -0.40167  -0.37107  -0.36817  -0.34567  -0.33491
  Beta  occ. eigenvalues --   -0.32720  -0.32009  -0.31818  -0.31172  -0.29955
  Beta  occ. eigenvalues --   -0.29621  -0.28080  -0.27855  -0.26130  -0.25885
  Beta  occ. eigenvalues --   -0.25043  -0.24893  -0.24814  -0.23997  -0.23351
  Beta  occ. eigenvalues --   -0.22622  -0.21324  -0.20921  -0.19991  -0.19830
  Beta  occ. eigenvalues --   -0.16159  -0.10182  -0.09928  -0.08165  -0.06991
  Beta virt. eigenvalues --    0.05733   0.07111   0.08295   0.09328   0.09792
  Beta virt. eigenvalues --    0.10590   0.10713   0.10888   0.11808   0.12385
  Beta virt. eigenvalues --    0.13054   0.13148   0.13421   0.13607   0.14308

 Mulliken charges and spin densities:
               1          2
     1  C   -1.667133   0.178300
     2  C    1.242895  -0.002182
     3  C   -0.550567   0.190444
     4  C   -0.681228   0.042146
     5  C    0.880920   0.039612
     6  C    0.079410   0.061858
     7  O   -0.388032   0.249446
     8  O   -0.411963   0.234826
     9  N    0.050153   0.025322
    10  C   -0.050666  -0.003233
    11  C   -0.505933   0.001775
    12  C   -0.547339   0.001313
    13  H    0.162963  -0.002892
    14  H    0.280895  -0.002344
    15  H    0.113077  -0.000086
    16  H    0.102766   0.000649
    17  H    0.135852   0.001217
    18  H    0.159064  -0.001151
    19  H    0.123741  -0.000178
    20  H    0.151672   0.001147
    21  H    0.125813  -0.000084
    22  C    0.675812  -0.018160
    23  C   -0.685574   0.008772
    24  C   -0.495992   0.001345
    25  C   -0.687597   0.007843
    26  H    0.159084  -0.014416
    27  H    0.202785  -0.001089
    28  H    0.105517   0.000393
    29  H    0.113195   0.000791
    30  H    0.140406   0.000139
    31  H    0.121975  -0.000619
    32  H    0.121731  -0.000565
    33  H    0.200535  -0.001478
    34  H    0.115351   0.000717
    35  H    0.106413   0.000423
 Sum of Mulliken charges =  -1.00000   1.00000

 Dipole moment (field-independent basis, Debye):
    X=              9.0837    Y=             12.1324    Z=            -16.7823  Tot=             22.6132
 Quadrupole moment (field-independent basis, Debye-Ang):
   XX=           -126.2730   YY=           -142.1442   ZZ=           -198.7609
   XY=            -20.6346   XZ=             31.3039   YZ=             37.6834

  Exact polarizability: 187.944 -48.277 186.455   5.597   6.642 219.628
 Approx polarizability: 243.685 -44.348 255.260  -9.531  34.817 379.232

                      1                      2                      3
                      A                      A                      A
 Frequencies --     35.7503                50.7333                69.6472
 Red. masses --      3.4067                 2.7405                 3.6715
 Frc consts  --      0.0026                 0.0042                 0.0105
 IR Inten    --      3.4978                 0.1265                 0.5837

                      4                      5                      6
                      A                      A                      A
 Frequencies --     94.8899               104.1917               162.3142
 Red. masses --      4.4554                 3.6689                 5.3870
 Frc consts  --      0.0236                 0.0235                 0.0836
 IR Inten    --      2.1150                 3.0254                 4.9013

                      7                      8                      9
                      A                      A                      A
 Frequencies --    196.4809               206.9955               228.0828
 Red. masses --      3.8197                 4.4229                 1.0269
 Frc consts  --      0.0869                 0.1117                 0.0315
 IR Inten    --      0.1688                 0.4249                 0.1828

                     10                     11                     12
                      A                      A                      A
 Frequencies --    234.8617               255.0444               260.8812
 Red. masses --      1.0848                 1.1446                 1.8401
 Frc consts  --      0.0353                 0.0439                 0.0738
 IR Inten    --      0.1364                 0.0703                 0.1800

                     13                     14                     15
                      A                      A                      A
 Frequencies --    277.3039               282.7465               295.5340
 Red. masses --      1.8342                 2.1074                 3.0912
 Frc consts  --      0.0831                 0.0993                 0.1591
 IR Inten    --      1.7506                 1.8577                 0.2483

                     16                     17                     18
                      A                      A                      A
 Frequencies --    322.7828               329.3533               360.7060
 Red. masses --      1.0446                 2.9317                 3.5670
 Frc consts  --      0.0641                 0.1874                 0.2734
 IR Inten    --      0.0404                 5.9586                 2.6732

                     19                     20                     21
                      A                      A                      A
 Frequencies --    377.8183               400.7799               415.9627
 Red. masses --      2.8433                 2.9762                 3.2061
 Frc consts  --      0.2391                 0.2817                 0.3268
 IR Inten    --      0.4908                 8.7318                 0.5618

                     22                     23                     24
                      A                      A                      A
 Frequencies --    419.4273               452.7985               466.5361
 Red. masses --      2.7212                 5.2374                 2.9596
 Frc consts  --      0.2820                 0.6327                 0.3795
 IR Inten    --      1.5318                 5.8891                19.1010

                     25                     26                     27
                      A                      A                      A
 Frequencies --    481.3212               528.3622               590.6637
 Red. masses --      6.4863                 3.0128                 3.2601
 Frc consts  --      0.8854                 0.4955                 0.6701
 IR Inten    --      1.5008                 4.3755                 1.5336

                     28                     29                     30
                      A                      A                      A
 Frequencies --    614.2078               664.4170               666.6002
 Red. masses --      3.4799                 2.8103                 2.6578
 Frc consts  --      0.7735                 0.7310                 0.6958
 IR Inten    --     28.1603                17.7480                13.0935

                     31                     32                     33
                      A                      A                      A
 Frequencies --    707.6379               779.7971               795.1018
 Red. masses --      1.9786                 6.9631                 3.3903
 Frc consts  --      0.5838                 2.4947                 1.2628
 IR Inten    --     54.9007                 3.5404                 9.6954

                     34                     35                     36
                      A                      A                      A
 Frequencies --    810.4698               820.4408               845.0681
 Red. masses --      5.1318                 1.4688                 2.4525
 Frc consts  --      1.9861                 0.5825                 1.0319
 IR Inten    --     24.3617                12.0326                 2.2998

                     37                     38                     39
                      A                      A                      A
 Frequencies --    858.9894               912.0296               923.5337
 Red. masses --      1.7514                 2.5621                 1.7938
 Frc consts  --      0.7614                 1.2557                 0.9014
 IR Inten    --     30.9497                 9.7870                 0.0784

                     40                     41                     42
                      A                      A                      A
 Frequencies --    925.9894               934.4027               942.1769
 Red. masses --      1.2994                 1.7662                 1.4368
 Frc consts  --      0.6565                 0.9086                 0.7515
 IR Inten    --      3.0755                 5.8244                 1.1999

                     43                     44                     45
                      A                      A                      A
 Frequencies --    957.3465               970.0436              1018.9178
 Red. masses --      1.2036                 2.1728                 2.0465
 Frc consts  --      0.6499                 1.2046                 1.2518
 IR Inten    --      0.2041                 1.9101                26.5368

                     46                     47                     48
                      A                      A                      A
 Frequencies --   1048.6586              1051.0574              1134.7801
 Red. masses --      1.3807                 1.4981                 2.1624
 Frc consts  --      0.8946                 0.9751                 1.6406
 IR Inten    --      0.0478                 2.0440                19.0856

                     49                     50                     51
                      A                      A                      A
 Frequencies --   1157.0973              1175.6714              1201.1096
 Red. masses --      2.2778                 1.9357                 2.9374
 Frc consts  --      1.7968                 1.5763                 2.4968
 IR Inten    --      8.0563                 4.6414                23.8554

                     52                     53                     54
                      A                      A                      A
 Frequencies --   1215.1606              1220.3544              1227.5412
 Red. masses --      2.6670                 3.0310                 2.7650
 Frc consts  --      2.3203                 2.6596                 2.4548
 IR Inten    --      5.1809               119.7201                34.3433

                     55                     56                     57
                      A                      A                      A
 Frequencies --   1262.5307              1268.5316              1309.3585
 Red. masses --      1.6407                 2.6009                 1.9876
 Frc consts  --      1.5409                 2.4659                 2.0077
 IR Inten    --      3.1494                56.7204                22.9650

                     58                     59                     60
                      A                      A                      A
 Frequencies --   1352.2295              1365.5556              1373.6308
 Red. masses --      1.4825                 1.4206                 1.2134
 Frc consts  --      1.5971                 1.5607                 1.3489
 IR Inten    --      4.9108                 7.9751                11.4531

                     61                     62                     63
                      A                      A                      A
 Frequencies --   1381.0648              1385.7976              1404.4545
 Red. masses --      1.2465                 1.2539                 1.6821
 Frc consts  --      1.4007                 1.4188                 1.9548
 IR Inten    --     13.8854                13.8402                 8.1535

                     64                     65                     66
                      A                      A                      A
 Frequencies --   1408.3457              1411.0861              1468.9672
 Red. masses --      1.4261                 1.6838                 2.8413
 Frc consts  --      1.6665                 1.9753                 3.6124
 IR Inten    --     18.4091                42.2368               167.9741

                     67                     68                     69
                      A                      A                      A
 Frequencies --   1470.6824              1482.2494              1485.9855
 Red. masses --      1.0545                 1.0600                 1.0711
 Frc consts  --      1.3438                 1.3721                 1.3936
 IR Inten    --      2.0692                 3.3922                 5.4462

                     70                     71                     72
                      A                      A                      A
 Frequencies --   1490.0663              1493.8734              1495.5337
 Red. masses --      1.1253                 1.0466                 1.0973
 Frc consts  --      1.4721                 1.3761                 1.4460
 IR Inten    --     39.0784                 1.0023                 3.6214

                     73                     74                     75
                      A                      A                      A
 Frequencies --   1498.7721              1508.6837              1510.3280
 Red. masses --      1.2167                 1.0647                 1.0517
 Frc consts  --      1.6104                 1.4278                 1.4135
 IR Inten    --     16.0874                 1.2838                 3.4502

                     76                     77                     78
                      A                      A                      A
 Frequencies --   1517.0874              1526.3617              1531.8673
 Red. masses --      3.0337                 2.0180                 1.3148
 Frc consts  --      4.1139                 2.7700                 1.8178
 IR Inten    --    417.0711               210.2431                67.0830

                     79                     80                     81
                      A                      A                      A
 Frequencies --   1539.4508              1633.5722              2989.5938
 Red. masses --      3.6442                 6.7253                 1.0436
 Frc consts  --      5.0885                10.5740                 5.4954
 IR Inten    --      6.0551                99.7899                47.2188

                     82                     83                     84
                      A                      A                      A
 Frequencies --   2994.8457              3002.9135              3006.8658
 Red. masses --      1.0426                 1.0376                 1.0717
 Frc consts  --      5.5096                 5.5128                 5.7091
 IR Inten    --    106.1122                42.1241                33.5824

                     85                     86                     87
                      A                      A                      A
 Frequencies --   3010.4269              3013.1359              3050.8924
 Red. masses --      1.0371                 1.0480                 1.0954
 Frc consts  --      5.5378                 5.6058                 6.0072
 IR Inten    --    105.5408                44.5267                35.3492

                     88                     89                     90
                      A                      A                      A
 Frequencies --   3053.2817              3059.6123              3065.9411
 Red. masses --      1.0955                 1.1003                 1.0984
 Frc consts  --      6.0172                 6.0687                 6.0831
 IR Inten    --     24.4227                 8.5348                91.3011

                     91                     92                     93
                      A                      A                      A
 Frequencies --   3071.6952              3081.8376              3091.1229
 Red. masses --      1.0994                 1.1015                 1.1009
 Frc consts  --      6.1115                 6.1641                 6.1978
 IR Inten    --     97.0374                42.5399                35.6204

                     94                     95                     96
                      A                      A                      A
 Frequencies --   3100.5739              3117.6541              3120.1616
 Red. masses --      1.0987                 1.0973                 1.0966
 Frc consts  --      6.2232                 6.2841                 6.2902
 IR Inten    --     17.1606                 0.0689                12.5614

                     97                     98                     99
                      A                      A                      A
 Frequencies --   3153.7624              3181.4657              3482.6889
 Red. masses --      1.0887                 1.0875                 1.0743
 Frc consts  --      6.3797                 6.4855                 7.6774
 IR Inten    --     36.6321                14.5010                47.5026

 - Thermochemistry -
 -------------------
 Temperature   298.150 Kelvin.  Pressure   1.00000 Atm.
 Atom     1 has atomic number  6 and mass  12.00000

 Molecular mass:   221.14158 amu.
 Principal axes and moments of inertia in atomic units:
                           1         2         3
     Eigenvalues --  2203.487825479.300126932.06465
           X            0.72356  -0.06796   0.68691
           Y           -0.66504   0.19792   0.72010
           Z            0.18489   0.97786  -0.09801
 This molecule is an asymmetric top.
 Rotational symmetry number  1.
 Warning -- assumption of classical behavior for rotation
           may cause significant error
 Rotational temperatures (Kelvin)      0.03931     0.01581     0.01249
 Rotational constants (GHZ):           0.81904     0.32937     0.26035
 Zero-point vibrational energy     775808.8 (Joules/Mol)
                                  185.42276 (Kcal/Mol)
 Warning -- explicit consideration of  28 degrees of freedom as
           vibrations may cause significant error
 Vibrational temperatures:     51.44    72.99   100.21   136.53   149.91
          (Kelvin)            233.53   282.69   297.82   328.16   337.91
                              366.95   375.35   398.98   406.81   425.21
                              464.41   473.87   518.98   543.60   576.63
                              598.48   603.46   651.48   671.24   692.51
                              760.20   849.83   883.71   955.95   959.09
                             1018.13  1121.95  1143.97  1166.09  1180.43
                             1215.86  1235.89  1312.21  1328.76  1332.29
                             1344.40  1355.58  1377.41  1395.68  1466.00
                             1508.79  1512.24  1632.70  1664.80  1691.53
                             1728.13  1748.35  1755.82  1766.16  1816.50
                             1825.13  1883.87  1945.56  1964.73  1976.35
                             1987.04  1993.85  2020.70  2026.30  2030.24
                             2113.52  2115.98  2132.63  2138.00  2143.87
                             2149.35  2151.74  2156.40  2170.66  2173.03
                             2182.75  2196.09  2204.02  2214.93  2350.35
                             4301.36  4308.91  4320.52  4326.21  4331.33
                             4335.23  4389.55  4392.99  4402.10  4411.21
                             4419.48  4434.08  4447.44  4461.03  4485.61
                             4489.22  4537.56  4577.42  5010.81

 Zero-point correction=                           0.295490 (Hartree/Particle)
 Thermal correction to Energy=                    0.312466
 Thermal correction to Enthalpy=                  0.313410
 Thermal correction to Gibbs Free Energy=         0.251100
 Sum of electronic and zero-point Energies=           -711.992656
 Sum of electronic and thermal Energies=              -711.975680
 Sum of electronic and thermal Enthalpies=            -711.974736
 Sum of electronic and thermal Free Energies=         -712.037046

                     E (Thermal)             CV                S
                      KCal/Mol        Cal/Mol-Kelvin    Cal/Mol-Kelvin
 Total                  196.075             65.853            131.143
 Electronic               0.000              0.000              1.377
 Translational            0.889              2.981             42.084
 Rotational               0.889              2.981             32.792
 Vibrational            194.298             59.891             54.889
 Vibration     1          0.594              1.982              5.482
 Vibration     2          0.595              1.977              4.789
 Vibration     3          0.598              1.969              4.163
 Vibration     4          0.603              1.953              3.557
 Vibration     5          0.605              1.946              3.374
 Vibration     6          0.622              1.889              2.523
 Vibration     7          0.636              1.845              2.166
 Vibration     8          0.641              1.830              2.070
 Vibration     9          0.651              1.798              1.894
 Vibration    10          0.655              1.787              1.841
 Vibration    11          0.665              1.754              1.695
 Vibration    12          0.669              1.744              1.656
 Vibration    13          0.678              1.715              1.550
 Vibration    14          0.682              1.706              1.517
 Vibration    15          0.690              1.682              1.442
 Vibration    16          0.708              1.630              1.296
 Vibration    17          0.712              1.617              1.263
 Vibration    18          0.735              1.553              1.119
 Vibration    19          0.748              1.517              1.048
 Vibration    20          0.767              1.468              0.960
 Vibration    21          0.779              1.436              0.906
 Vibration    22          0.782              1.428              0.894
 Vibration    23          0.811              1.355              0.787
 Vibration    24          0.824              1.324              0.747
 Vibration    25          0.838              1.291              0.707
 Vibration    26          0.883              1.187              0.591
 Vibration    27          0.948              1.052              0.466
 Vibration    28          0.974              1.002              0.426

 Optimization completed.
    -- Stationary point found.
 Normal termination of Gaussian 16 at Wed Jan 10 19:06:43 2024.
