 Gaussian 16, Revision A.03,
 Gaussian 16:  ES64L-G16RevA.03 25-Dec-2016

 ----------------------------------------------------------------
 #P UB3LYP/6-311++G(d,p) SCRF=(PCM,Solvent=n,n-DiMethylFormamide)
 ----------------------------------------------------------------

 ------------------
 Radical PCM in DMF
 ------------------
 Symbolic Z-matrix:
 Charge = -1 Multiplicity = 2

                         Standard orientation:
 ---------------------------------------------------------------------
 Center     Atomic      Atomic             Coordinates (Angstroms)
 Number     Number       Type             X           Y           Z
 ---------------------------------------------------------------------
      1          6           0        3.675116   -0.329256    0.139290
      2          6           0        4.196733   -1.605736    0.096024
      3          6           0        3.334847   -2.714437   -0.051879
      4          6           0        2.282629   -0.110743    0.035034
      5          6           0        1.414607   -1.223747   -0.115214
      6          6           0        1.971695   -2.519965   -0.153321
      7          6           0        1.758533    1.239994    0.083585
      8          6           0       -0.040695   -1.071545   -0.223632
      9          6           0        0.326361    1.417652   -0.044443
     10          6           0       -0.563630    0.300274   -0.202160
     11          6           0       -0.199815    2.749598   -0.027518
     12          6           0       -1.563143    2.965952   -0.171930
     13          6           0       -2.427146    1.877359   -0.333626
     14          6           0       -1.942547    0.586889   -0.345846
     15          8           0        2.546018    2.240311    0.227190
     16          8           0       -0.774650   -2.084298   -0.326157
     17          1           0        4.312511    0.539252    0.254161
     18          1           0        5.268570   -1.759169    0.177082
     19          1           0        3.745250   -3.719165   -0.083895
     20          1           0        1.287595   -3.352865   -0.263362
     21          1           0       -3.493433    2.030470   -0.455547
     22          8           0        0.616536    3.809869    0.121692
     23          8           0       -2.871757   -0.428571   -0.615188
     24          6           0       -3.258557   -1.253282    0.396105
     25          6           0       -3.930441   -2.477011   -0.167399
     26          8           0       -3.106929   -1.012221    1.565300
     27          1           0       -1.935450    3.983455   -0.157749
     28          1           0        1.545414    3.412147    0.198317
     29          1           0       -3.137591   -3.122681   -0.552000
     30          1           0       -4.590622   -2.213420   -0.996151
     31          1           0       -4.483275   -2.990716    0.618031
 ---------------------------------------------------------------------

 SCF Done:  E(UB3LYP) =  -992.301365244     A.U. after   19 cycles

 The electronic state is 2-A.
 Alpha  occ. eigenvalues --  -19.17078 -19.13243 -19.11889 -19.09441 -19.08096
 Alpha  occ. eigenvalues --  -10.31060 -10.23940 -10.23693 -10.23488 -10.23442
 Alpha  occ. eigenvalues --  -10.18909 -10.18472 -10.18020 -10.17902 -10.17814
 Alpha  occ. eigenvalues --  -10.17705 -10.17657 -10.17481 -10.17353 -10.17268
 Alpha  occ. eigenvalues --  -10.17177  -1.11456  -1.05877  -1.03454  -1.01050
 Alpha  occ. eigenvalues --   -1.00858  -0.86851  -0.85509  -0.79510  -0.77170
 Alpha  occ. eigenvalues --   -0.75579  -0.74860  -0.73095  -0.68084  -0.64850
 Alpha  occ. eigenvalues --   -0.63555  -0.62580  -0.57941  -0.56307  -0.54590
 Alpha  occ. eigenvalues --   -0.52886  -0.51195  -0.49720  -0.48747  -0.48243
 Alpha  occ. eigenvalues --   -0.47105  -0.46243  -0.46049  -0.43877  -0.43357
 Alpha  occ. eigenvalues --   -0.42844  -0.42621  -0.41730  -0.41391  -0.41080
 Alpha  occ. eigenvalues --   -0.40270  -0.40041  -0.38893  -0.38034  -0.37810
 Alpha  occ. eigenvalues --   -0.36388  -0.35844  -0.35484  -0.34237  -0.33292
 Alpha  occ. eigenvalues --   -0.32134  -0.28970  -0.27649  -0.26157  -0.26131
 Alpha  occ. eigenvalues --   -0.25578  -0.24289  -0.23169  -0.14910
 Alpha virt. eigenvalues --   -0.05578  -0.02858  -0.00563  -0.00286   0.00303
 Alpha virt. eigenvalues --    0.00416   0.00836   0.01842   0.02286   0.03198
 Alpha virt. eigenvalues --    0.03627   0.04128   0.04339   0.04643   0.04931

  Beta  occ. eigenvalues --  -19.17071 -19.13214 -19.11888 -19.08954 -19.07548
  Beta  occ. eigenvalues --  -10.31054 -10.23924 -10.23447 -10.23405 -10.23345
  Beta  occ. eigenvalues --  -10.18816 -10.18465 -10.17957 -10.17858 -10.17733
  Beta  occ. eigenvalues --  -10.17672 -10.17607 -10.17459 -10.17361 -10.17268
  Beta  occ. eigenvalues --  -10.17077  -1.11436  -1.05726  -1.03433  -1.00219
  Beta  occ. eigenvalues --   -0.99945  -0.86587  -0.85380  -0.79126  -0.77044
  Beta  occ. eigenvalues --   -0.75377  -0.74686  -0.72942  -0.67408  -0.64702
  Beta  occ. eigenvalues --   -0.63301  -0.62463  -0.57802  -0.56170  -0.54330
  Beta  occ. eigenvalues --   -0.52774  -0.51053  -0.49674  -0.48660  -0.48043
  Beta  occ. eigenvalues --   -0.46990  -0.46074  -0.45983  -0.43418  -0.42886
  Beta  occ. eigenvalues --   -0.42717  -0.42328  -0.41561  -0.41254  -0.40771
  Beta  occ. eigenvalues --   -0.39935  -0.39458  -0.38438  -0.37852  -0.36540
  Beta  occ. eigenvalues --   -0.36133  -0.35690  -0.34694  -0.34102  -0.32569
  Beta  occ. eigenvalues --   -0.31930  -0.28945  -0.25818  -0.25745  -0.25435
  Beta  occ. eigenvalues --   -0.25059  -0.23795  -0.22309
  Beta virt. eigenvalues --   -0.09238  -0.04488  -0.01842  -0.00450  -0.00227
  Beta virt. eigenvalues --    0.00412   0.00535   0.00855   0.01854   0.02291
  Beta virt. eigenvalues --    0.03217   0.03657   0.04134   0.04358   0.04933

 Mulliken charges and spin densities:
               1          2
     1  C   -0.065471   0.044193
     2  C   -0.513558   0.018953
     3  C   -0.415702   0.046473
     4  C    0.124145  -0.009429
     5  C   -0.048453   0.031428
     6  C    0.012317   0.023231
     7  C   -0.337934   0.141570
     8  C   -0.239201   0.069162
     9  C    0.766835  -0.007049
    10  C    0.586306   0.062454
    11  C   -0.391230   0.030354
    12  C   -0.172947   0.071186
    13  C    0.112523   0.046527
    14  C   -0.414783   0.057235
    15  O   -0.479272   0.176447
    16  O   -0.412549   0.207826
    17  H    0.171118  -0.001539
    18  H    0.184280  -0.001904
    19  H    0.189264  -0.003576
    20  H    0.159002  -0.000725
    21  H    0.205348  -0.004148
    22  O   -0.399387   0.009900
    23  O   -0.011353  -0.000167
    24  C    0.055332  -0.000498
    25  C   -0.472465   0.002505
    26  O   -0.295583  -0.000482
    27  H    0.200999  -0.005803
    28  H    0.367275  -0.003653
    29  H    0.199985  -0.000650
    30  H    0.173616   0.000408
    31  H    0.161544  -0.000227
 Sum of Mulliken charges =  -1.00000   1.00000

 Dipole moment (field-independent basis, Debye):
    X=             -1.5264    Y=             -3.3540    Z=             -2.2584  Tot=              4.3220
 Quadrupole moment (field-independent basis, Debye-Ang):
   XX=           -129.8164   YY=           -146.1199   ZZ=           -133.8273
   XY=            -14.0415   XZ=              6.8117   YZ=              0.0492

 Normal termination of Gaussian 16 at Sun Jan 14 01:24:18 2024.
