 Q-Chem 5.4, Q-Chem, Inc., Pleasanton, CA (2021)
 Q-Chem 5.4.0 for Intel X86 EM64T Linux

User input:
--------------------------------------------------------------
$molecule
-1 2
C                  4.7372900000      0.2259260000      0.9495670000
C                  3.9497170000     -0.6044050000     -0.0813110000
C                  4.5911080000     -0.4931160000     -1.4772550000
C                  2.4708950000     -0.2464200000     -0.0985240000
C                  2.0291190000      1.0465790000     -0.4560880000
C                  0.6798840000      1.3549570000     -0.4671600000
C                 -0.3117020000      0.4089070000     -0.1271420000
C                  0.1274140000     -0.8908140000      0.2328240000
C                  1.5099000000     -1.1823510000      0.2370320000
C                 -0.8078840000     -1.9591900000      0.6056460000
O                 -0.3909090000     -3.0951470000      0.9187190000
C                 -2.2619430000     -1.6515800000      0.5994070000
O                 -3.0800150000     -2.5433690000      0.9117450000
C                 -2.6991600000     -0.2877340000      0.2206460000
C                 -4.0921630000      0.0524410000      0.2019220000
C                 -5.1963850000     -0.9201910000      0.5554360000
C                 -4.4775290000      1.3385670000     -0.1567150000
C                 -3.5398980000      2.3191060000     -0.5026900000
C                 -2.1955500000      2.0051410000     -0.4889130000
C                 -1.7420970000      0.7188120000     -0.1343590000
H                  4.3073340000      0.1153840000      1.9484370000
H                  4.7201300000      1.2909080000      0.6965240000
H                  5.7857670000     -0.0911620000      0.9895780000
H                  4.0140710000     -1.6544660000      0.2259790000
H                  4.0579270000     -1.1148360000     -2.2011390000
H                  5.6388680000     -0.8142120000     -1.4540360000
H                  4.5661970000      0.5383420000     -1.8432540000
H                  2.7462570000      1.8158710000     -0.7275410000
H                  0.3953140000      2.3612020000     -0.7490780000
H                  1.7881500000     -2.1921180000      0.5203160000
H                 -5.0853830000     -1.3077990000      1.5693290000
H                 -6.1659200000     -0.4174880000      0.4638840000
H                 -5.1836450000     -1.7995060000     -0.0904800000
H                 -5.5359080000      1.5834460000     -0.1669130000
H                 -3.8667330000      3.3168450000     -0.7791360000
H                 -1.4825180000      2.7734720000     -0.7587110000
$end
$rem
MAX_SCF_CYCLES=200
BASIS  =  6-311++G(d,p)
GUI  =  2
JOB_TYPE  =  SP
METHOD  =  B3LYP
SOLVENT_METHOD = PCM
$end
$pcm
theory = CPCM
$end
$solvent
dielectric 37.219
opticaldielectric 1.43
$end

--------------------------------------------------------------

             Standard Nuclear Orientation (Angstroms)
    I     Atom           X                Y                Z
 ----------------------------------------------------------------
    1      C       4.7372900000     0.2259260000     0.9495670000
    2      C       3.9497170000    -0.6044050000    -0.0813110000
    3      C       4.5911080000    -0.4931160000    -1.4772550000
    4      C       2.4708950000    -0.2464200000    -0.0985240000
    5      C       2.0291190000     1.0465790000    -0.4560880000
    6      C       0.6798840000     1.3549570000    -0.4671600000
    7      C      -0.3117020000     0.4089070000    -0.1271420000
    8      C       0.1274140000    -0.8908140000     0.2328240000
    9      C       1.5099000000    -1.1823510000     0.2370320000
   10      C      -0.8078840000    -1.9591900000     0.6056460000
   11      O      -0.3909090000    -3.0951470000     0.9187190000
   12      C      -2.2619430000    -1.6515800000     0.5994070000
   13      O      -3.0800150000    -2.5433690000     0.9117450000
   14      C      -2.6991600000    -0.2877340000     0.2206460000
   15      C      -4.0921630000     0.0524410000     0.2019220000
   16      C      -5.1963850000    -0.9201910000     0.5554360000
   17      C      -4.4775290000     1.3385670000    -0.1567150000
   18      C      -3.5398980000     2.3191060000    -0.5026900000
   19      C      -2.1955500000     2.0051410000    -0.4889130000
   20      C      -1.7420970000     0.7188120000    -0.1343590000
   21      H       4.3073340000     0.1153840000     1.9484370000
   22      H       4.7201300000     1.2909080000     0.6965240000
   23      H       5.7857670000    -0.0911620000     0.9895780000
   24      H       4.0140710000    -1.6544660000     0.2259790000
   25      H       4.0579270000    -1.1148360000    -2.2011390000
   26      H       5.6388680000    -0.8142120000    -1.4540360000
   27      H       4.5661970000     0.5383420000    -1.8432540000
   28      H       2.7462570000     1.8158710000    -0.7275410000
   29      H       0.3953140000     2.3612020000    -0.7490780000
   30      H       1.7881500000    -2.1921180000     0.5203160000
   31      H      -5.0853830000    -1.3077990000     1.5693290000
   32      H      -6.1659200000    -0.4174880000     0.4638840000
   33      H      -5.1836450000    -1.7995060000    -0.0904800000
   34      H      -5.5359080000     1.5834460000    -0.1669130000
   35      H      -3.8667330000     3.3168450000    -0.7791360000
   36      H      -1.4825180000     2.7734720000    -0.7587110000
 ----------------------------------------------------------------

    8    -846.3896794026      7.19e-06  Convergence criterion met
 Total energy in the final basis set =     -846.3896794026

                    Orbital Energies (a.u.)
 --------------------------------------------------------------

 Alpha MOs
 -- Occupied --
-19.0750 -19.0724 -10.2169 -10.2141 -10.1836 -10.1813 -10.1801 -10.1753
-10.1733 -10.1731 -10.1698 -10.1685 -10.1684 -10.1669 -10.1667 -10.1631
-10.1613 -10.1526 -10.1525 -10.1507  -1.0158  -0.9864  -0.8708  -0.8483
 -0.8060  -0.7707  -0.7684  -0.7474  -0.7155  -0.6931  -0.6787  -0.6612
 -0.6277  -0.6042  -0.5906  -0.5720  -0.5583  -0.5183  -0.4979  -0.4820
 -0.4658  -0.4584  -0.4502  -0.4344  -0.4282  -0.4281  -0.4160  -0.4138
 -0.4102  -0.4080  -0.3991  -0.3949  -0.3876  -0.3815  -0.3709  -0.3700
 -0.3558  -0.3554  -0.3431  -0.3407  -0.3336  -0.3300  -0.3229  -0.3181
 -0.2809  -0.2571  -0.2544  -0.2475  -0.2229  -0.2180  -0.1484

 Beta MOs
 -- Occupied --
-19.0694 -19.0665 -10.2149 -10.2118 -10.1827 -10.1806 -10.1792 -10.1756
-10.1735 -10.1731 -10.1702 -10.1686 -10.1677 -10.1669 -10.1660 -10.1632
-10.1606 -10.1526 -10.1525 -10.1507  -1.0055  -0.9756  -0.8691  -0.8473
 -0.8049  -0.7696  -0.7656  -0.7456  -0.7144  -0.6891  -0.6787  -0.6566
 -0.6267  -0.6018  -0.5877  -0.5707  -0.5568  -0.5171  -0.4958  -0.4808
 -0.4634  -0.4569  -0.4494  -0.4336  -0.4275  -0.4180  -0.4147  -0.4123
 -0.4094  -0.4032  -0.3928  -0.3908  -0.3871  -0.3806  -0.3697  -0.3578
 -0.3549  -0.3501  -0.3423  -0.3354  -0.3331  -0.3224  -0.3178  -0.3114
 -0.2748  -0.2488  -0.2482  -0.2400  -0.2176  -0.2142

          Ground-State Mulliken Net Atomic Charges

     Atom                 Charge (a.u.)    Spin (a.u.)
  --------------------------------------------------------
      1 C                    -0.701253       0.000518
      2 C                     0.144120       0.006736
      3 C                    -0.701009       0.000507
      4 C                     0.679832      -0.027307
      5 C                    -0.830173       0.082606
      6 C                    -0.248096      -0.021575
      7 C                     0.391494       0.053853
      8 C                     0.911452       0.013820
      9 C                    -0.382962       0.072446
     10 C                    -0.717574       0.150258
     11 O                    -0.499318       0.219004
     12 C                    -0.853970       0.107641
     13 O                    -0.452622       0.226309
     14 C                     0.612667      -0.020183
     15 C                     0.516360       0.062368
     16 C                    -0.372900      -0.001089
     17 C                    -0.499054      -0.014193
     18 C                    -0.636996       0.074566
     19 C                    -0.419906      -0.022663
     20 C                     0.494152       0.046929
     21 H                     0.143749       0.000139
     22 H                     0.162014      -0.000231
     23 H                     0.160931      -0.000349
     24 H                     0.200352       0.000024
     25 H                     0.143872       0.000130
     26 H                     0.160993      -0.000349
     27 H                     0.161636      -0.000235
     28 H                     0.209000      -0.005192
     29 H                     0.127801       0.002123
     30 H                     0.158556      -0.006480
     31 H                     0.161237       0.001801
     32 H                     0.152855      -0.000312
     33 H                     0.161463       0.001815
     34 H                     0.135657      -0.000054
     35 H                     0.217846      -0.005029
     36 H                     0.107790       0.001649
  --------------------------------------------------------
  Sum of atomic charges =    -1.000001

                    Cartesian Multipole Moments
 -----------------------------------------------------------------
    Charge (ESU x 10^10)
                -4.8032
    Dipole Moment (Debye)
         X       8.4899      Y      13.3539      Z      -4.3513
       Tot      16.4115
    Quadrupole Moments (Debye-Ang)
        XX    -135.2371     XY     -21.3096     YY    -158.4785
        XZ       6.6257     YZ      10.4115     ZZ    -129.9472

 Total job time:  91.33s(wall), 643.12s(cpu)
        *  Thank you very much for using Q-Chem.  Have a nice day.  *
