 Q-Chem 5.4, Q-Chem, Inc., Pleasanton, CA (2021)
 Q-Chem 5.4.0 for Intel X86 EM64T Linux

User input:
--------------------------------------------------------------
$molecule
0 1
C                 -2.0260430000      0.3635840000      1.5090390000
C                 -2.9526580000      1.2245100000      0.6965350000
C                 -2.5700790000      1.5348240000     -0.5572100000
C                 -1.2845530000      1.0721450000     -1.1755790000
C                 -0.3580980000      0.2109700000     -0.3631980000
C                 -0.7406240000     -0.0992770000      0.8905940000
O                 -0.9941820000      1.3858630000     -2.3116360000
O                 -2.3161710000      0.0501620000      2.6452380000
Br                 0.3129650000     -1.1814940000      2.0610130000
Br                -3.6237640000      2.6169620000     -1.7275960000
C                  0.9367640000     -0.2450260000     -1.0117380000
C                  1.8688050000      0.9363430000     -1.3506710000
C                  0.6909370000     -1.1572050000     -2.2310310000
C                 -4.2477090000      1.6803440000      1.3448370000
C                 -4.0022870000      2.5933160000      2.5636360000
C                 -5.1794630000      0.4988870000      1.6842710000
H                  1.4477910000     -0.8481270000     -0.2611590000
H                  2.0521210000      1.5601510000     -0.4715200000
H                  1.4560890000      1.5609870000     -2.1426060000
H                  2.8333060000      0.5463570000     -1.6872800000
H                  0.0475450000     -2.0017830000     -1.9695350000
H                  1.6470400000     -1.5624250000     -2.5735220000
H                  0.2338820000     -0.6119740000     -3.0565390000
H                 -4.7588750000      2.2828910000      0.5939010000
H                 -4.9585520000      2.9984130000      2.9058200000
H                 -3.3591570000      3.4379580000      2.3017030000
H                 -3.5451250000      2.0487080000      3.3894890000
H                 -6.1441580000      0.8887910000      2.0204200000
H                 -4.7667600000     -0.1251630000      2.4766710000
H                 -5.3624050000     -0.1255020000      0.8054520000
$end
$rem
MAX_SCF_CYCLES=200
BASIS  =  6-311++G(d,p)
GUI  =  2
JOB_TYPE  =  SP
METHOD  =  B3LYP
SOLVENT_METHOD = COSMO
$end
$solvent
dielectric 37.219
opticaldielectric 1.43
$end

--------------------------------------------------------------

             Standard Nuclear Orientation (Angstroms)
    I     Atom           X                Y                Z
 ----------------------------------------------------------------
    1      C       0.1800344920    -1.4256194587     0.0000218037
    2      C      -1.2142987921    -0.8636529441     0.0001444359
    3      C      -1.3417630267     0.4773507318     0.0000752793
    4      C      -0.1799330603     1.4256018990     0.0002389723
    5      C       1.2143798777     0.8636451640    -0.0002033791
    6      C       1.3418606286    -0.4773702543    -0.0000388478
    7      O      -0.3587976503     2.6261712607     0.0009278768
    8      O       0.3589651671    -2.6261774564    -0.0002641956
    9      Br      3.0363691787    -1.3604131763    -0.0001909915
   10      Br     -3.0362992793     1.3603144939     0.0001298921
   11      C       2.3736749040     1.8440731048    -0.0006244436
   12      C       2.4128371174     2.7040189231     1.2792850176
   13      C       2.4103960259     2.7062367033    -1.2791010177
   14      C      -2.3737097129    -1.8439608109     0.0002642369
   15      C      -2.4112970978    -2.7056769182     1.2790344947
   16      C      -2.4124840247    -2.7042766313    -1.2794133950
   17      H       3.2773451429     1.2344613441    -0.0019834020
   18      H       2.4097541880     2.0784778317     2.1761331073
   19      H       1.5682656721     3.3909481790     1.3293143968
   20      H       3.3351525204     3.2913136542     1.2880070745
   21      H       2.4051018570     2.0822124180    -2.1769935976
   22      H       3.3329460744     3.2931309474    -1.2887360749
   23      H       1.5659694354     3.3935370275    -1.3260219307
   24      H      -3.2772671693    -1.2341724467     0.0009830568
   25      H      -3.3339771834    -3.2923711937     1.2883889724
   26      H      -2.4063437795    -2.0813364149     2.1767090472
   27      H      -1.5670494032    -3.3931420715     1.3266332208
   28      H      -3.3350105141    -3.2912356967    -1.2884496669
   29      H      -1.5681472508    -3.3915291572    -1.3288027307
   30      H      -2.4087101882    -2.0790080212    -2.1764513858
 ----------------------------------------------------------------

    9   -5764.5871182473      3.87e-06  Convergence criterion met
 Total energy in the final basis set =    -5764.5871182473
    4   -5764.5969033524      8.49e-06  Convergence criterion met
 Total energy in the final basis set =    -5764.5969033524

                    Orbital Energies (a.u.)
 --------------------------------------------------------------

 Alpha MOs
 -- Occupied --
********-482.8480 -62.5009 -62.5009 -56.3214 -56.3214 -56.3176 -56.3176
-56.3172 -56.3172 -19.1512 -19.1512 -10.3042 -10.3042 -10.2633 -10.2633
-10.2317 -10.2317 -10.1953 -10.1953 -10.1617 -10.1617 -10.1616 -10.1616
 -8.7097  -8.7097  -6.5413  -6.5413  -6.5286  -6.5286  -6.5274  -6.5274
 -2.6521  -2.6521  -2.6488  -2.6488  -2.6479  -2.6479  -2.6377  -2.6377
 -2.6377  -2.6377  -1.0895  -1.0876  -0.8945  -0.8651  -0.8115  -0.8099
 -0.7887  -0.7443  -0.7002  -0.6897  -0.6896  -0.6535  -0.6066  -0.5971
 -0.5690  -0.5553  -0.4936  -0.4890  -0.4725  -0.4710  -0.4583  -0.4408
 -0.4408  -0.4401  -0.4359  -0.4213  -0.4138  -0.4075  -0.3864  -0.3862
 -0.3727  -0.3640  -0.3610  -0.3545  -0.3536  -0.3502  -0.3435  -0.3426
 -0.3093  -0.2988  -0.2927  -0.2920  -0.2866  -0.2702

          Ground-State Mulliken Net Atomic Charges

     Atom                 Charge (a.u.)
  ----------------------------------------
      1 C                    -1.151592
      2 C                     1.348328
      3 C                    -0.059608
      4 C                    -1.152359
      5 C                     1.349212
      6 C                    -0.060477
      7 O                    -0.164520
      8 O                    -0.164537
      9 Br                   -0.098409
     10 Br                   -0.098542
     11 C                     0.378127
     12 C                    -0.729486
     13 C                    -0.729288
     14 C                     0.378615
     15 C                    -0.729156
     16 C                    -0.729878
     17 H                     0.189122
     18 H                     0.145350
     19 H                     0.189203
     20 H                     0.174327
     21 H                     0.145282
     22 H                     0.174356
     23 H                     0.189150
     24 H                     0.189091
     25 H                     0.174396
     26 H                     0.145301
     27 H                     0.189051
     28 H                     0.174399
     29 H                     0.189263
     30 H                     0.145277
  ----------------------------------------
  Sum of atomic charges =     0.000000

                    Cartesian Multipole Moments
 -----------------------------------------------------------------
    Charge (ESU x 10^10)
                 0.0000
    Dipole Moment (Debye)
         X      -0.0001      Y      -0.0012      Z       0.0007
       Tot       0.0014
    Quadrupole Moments (Debye-Ang)
        XX    -113.1979     XY      11.8234     YY    -134.6298
        XZ       0.0003     YZ      -0.0052     ZZ    -120.1071

 Total job time:  65.82s(wall), 506.30s(cpu)
        *  Thank you very much for using Q-Chem.  Have a nice day.  *
