 Gaussian 16, Revision A.03,
 Gaussian 16:  ES64L-G16RevA.03 25-Dec-2016

 ----------------------------------------------------------------------
 #P UB3LYP/6-311++G(d,p) nosym opt freq SCRF=(PCM,Solvent=n,n-DiMethylF
 ormamide)
 ----------------------------------------------------------------------

 -------
 Radical
 -------
 Symbolic Z-matrix:
 Charge = -1 Multiplicity = 2

 SCF Done:  E(UB3LYP) =  -1204.06181964     A.U. after   22 cycles
 SCF Done:  E(UB3LYP) =  -1204.06178435     A.U. after   22 cycles
 SCF Done:  E(UB3LYP) =  -1204.06221667     A.U. after   22 cycles
 SCF Done:  E(UB3LYP) =  -1204.06224589     A.U. after   20 cycles
 SCF Done:  E(UB3LYP) =  -1204.06227259     A.U. after   14 cycles
 SCF Done:  E(UB3LYP) =  -1204.06228290     A.U. after   16 cycles
 SCF Done:  E(UB3LYP) =  -1204.06228405     A.U. after   13 cycles
 SCF Done:  E(UB3LYP) =  -1204.06228555     A.U. after   15 cycles
 SCF Done:  E(UB3LYP) =  -1204.06228577     A.U. after   12 cycles
 SCF Done:  E(UB3LYP) =  -1204.06228603     A.U. after   12 cycles
 SCF Done:  E(UB3LYP) =  -1204.06229363     A.U. after   14 cycles
 SCF Done:  E(UB3LYP) =  -1204.06229332     A.U. after   10 cycles
 SCF Done:  E(UB3LYP) =  -1204.06229726     A.U. after   11 cycles
 SCF Done:  E(UB3LYP) =  -1204.06229856     A.U. after   12 cycles
 SCF Done:  E(UB3LYP) =  -1204.06230076     A.U. after   13 cycles
 SCF Done:  E(UB3LYP) =  -1204.06230112     A.U. after   13 cycles
 SCF Done:  E(UB3LYP) =  -1204.06230177     A.U. after   11 cycles
 SCF Done:  E(UB3LYP) =  -1204.06230194     A.U. after   13 cycles
 SCF Done:  E(UB3LYP) =  -1204.06230224     A.U. after   10 cycles
 Optimization completed.
    -- Stationary point found.
 Normal termination of Gaussian 16 at Sun Feb 11 18:13:50 2024.

 ----------------------------------------------------------------------
 #P Geom=AllCheck Guess=TCheck SCRF=Check GenChk UB3LYP/6-311++G(d,p) F
 req
 ----------------------------------------------------------------------

 Structure from the checkpoint file:  "313-rad.chk"
 -------
 Radical
 -------
 Charge = -1 Multiplicity = 2

                          Input orientation:
 ---------------------------------------------------------------------
 Center     Atomic      Atomic             Coordinates (Angstroms)
 Number     Number       Type             X           Y           Z
 ---------------------------------------------------------------------
      1          6           0       -5.526625    0.049989   -0.385527
      2          6           0       -5.802284   -0.402789   -1.664731
      3          6           0       -4.762056   -0.538586   -2.600384
      4          6           0       -4.213023    0.379789    0.001163
      5          6           0       -3.164156    0.241968   -0.943942
      6          6           0       -3.464001   -0.219714   -2.240044
      7          6           0       -3.965897    0.870582    1.375242
      8          6           0       -2.585944    1.174163    1.689337
      9          6           0       -1.566925    1.031989    0.760444
     10          6           0       -1.776545    0.575209   -0.580036
     11         16           0       -2.183656    1.878554    3.284771
     12          6           0       -2.340600    0.517482    4.445129
     13          6           0       -2.383624   -0.821901    4.056789
     14          6           0       -2.375213    0.847971    5.807162
     15          6           0       -2.444867   -0.141640    6.789955
     16          6           0       -2.466443   -1.814071    5.034772
     17          6           0       -2.494157   -1.484008    6.387123
     18          6           0       -2.463316    0.223499    8.255450
     19          8           0       -4.909442    1.004270    2.194584
     20          8           0       -0.822875    0.455072   -1.404576
     21          1           0       -6.318064    0.160529    0.345607
     22          1           0       -6.819830   -0.652328   -1.945193
     23          1           0       -4.977295   -0.892479   -3.602787
     24          1           0       -2.650717   -0.317893   -2.948948
     25          1           0       -0.546744    1.270368    1.041096
     26          1           0       -2.357049   -1.089065    3.007813
     27          1           0       -2.352773    1.891792    6.104898
     28          1           0       -2.506755   -2.855189    4.732362
     29          1           0       -2.558472   -2.268082    7.134508
     30          1           0       -2.583683    1.299172    8.396777
     31          1           0       -1.531028   -0.076036    8.745262
     32          1           0       -3.279140   -0.282807    8.778837
 ---------------------------------------------------------------------

 SCF Done:  E(UB3LYP) =  -1204.06230224     A.U. after    1 cycles

 Alpha  occ. eigenvalues --  -88.85133 -19.08232 -19.08153 -10.23284 -10.22656
 Alpha  occ. eigenvalues --  -10.20946 -10.19759 -10.18809 -10.18010 -10.17890
 Alpha  occ. eigenvalues --  -10.17799 -10.17697 -10.17639 -10.17549 -10.17414
 Alpha  occ. eigenvalues --  -10.17413 -10.17399 -10.17191 -10.17042 -10.16608
 Alpha  occ. eigenvalues --   -7.93726  -5.90122  -5.89724  -5.89132  -1.00787
 Alpha  occ. eigenvalues --   -1.00157  -0.86965  -0.86295  -0.82528  -0.78817
 Alpha  occ. eigenvalues --   -0.76843  -0.75415  -0.74905  -0.70746  -0.68806
 Alpha  occ. eigenvalues --   -0.67088  -0.62208  -0.61182  -0.60295  -0.57612
 Alpha  occ. eigenvalues --   -0.55775  -0.51414  -0.51054  -0.49957  -0.47450
 Alpha  occ. eigenvalues --   -0.46862  -0.45411  -0.44467  -0.42989  -0.42817
 Alpha  occ. eigenvalues --   -0.42300  -0.42224  -0.41956  -0.41209  -0.40649
 Alpha  occ. eigenvalues --   -0.39491  -0.38985  -0.38216  -0.37212  -0.36474
 Alpha  occ. eigenvalues --   -0.35762  -0.35117  -0.34707  -0.34258  -0.33037
 Alpha  occ. eigenvalues --   -0.29263  -0.28010  -0.26005  -0.25696  -0.25320
 Alpha  occ. eigenvalues --   -0.25032  -0.24284  -0.21614  -0.16166
 Alpha virt. eigenvalues --   -0.03982  -0.02827  -0.01772  -0.01584  -0.00427
 Alpha virt. eigenvalues --    0.00140   0.01222   0.01262   0.01712   0.02255
 Alpha virt. eigenvalues --    0.02760   0.03135   0.03470   0.04025   0.04194

  Beta  occ. eigenvalues --  -88.85135 -19.07655 -19.07476 -10.23158 -10.22520
  Beta  occ. eigenvalues --  -10.20930 -10.19585 -10.18809 -10.17971 -10.17863
  Beta  occ. eigenvalues --  -10.17800 -10.17678 -10.17612 -10.17548 -10.17412
  Beta  occ. eigenvalues --  -10.17411 -10.17386 -10.17041 -10.16970 -10.16608
  Beta  occ. eigenvalues --   -7.93727  -5.90128  -5.89729  -5.89129  -0.99781
  Beta  occ. eigenvalues --   -0.98969  -0.86929  -0.86114  -0.82125  -0.78650
  Beta  occ. eigenvalues --   -0.76806  -0.75258  -0.74770  -0.70389  -0.68776
  Beta  occ. eigenvalues --   -0.66393  -0.62022  -0.60952  -0.60275  -0.57516
  Beta  occ. eigenvalues --   -0.55552  -0.51295  -0.50878  -0.49728  -0.47346
  Beta  occ. eigenvalues --   -0.46680  -0.45302  -0.44412  -0.42912  -0.42449
  Beta  occ. eigenvalues --   -0.42257  -0.41727  -0.41579  -0.40731  -0.40077
  Beta  occ. eigenvalues --   -0.39218  -0.38941  -0.37283  -0.36400  -0.35658
  Beta  occ. eigenvalues --   -0.35056  -0.34962  -0.34625  -0.34127  -0.32639
  Beta  occ. eigenvalues --   -0.29063  -0.25601  -0.25386  -0.25161  -0.25082
  Beta  occ. eigenvalues --   -0.24438  -0.23724  -0.21475
  Beta virt. eigenvalues --   -0.09437  -0.03210  -0.02087  -0.01645  -0.01320
  Beta virt. eigenvalues --   -0.00416   0.00149   0.01234   0.01278   0.01723
  Beta virt. eigenvalues --    0.02381   0.02785   0.03161   0.03662   0.04047

 Mulliken charges and spin densities:
               1          2
     1  C    0.120453   0.026752
     2  C   -0.424394   0.020833
     3  C   -0.454041   0.011927
     4  C   -0.124756  -0.008396
     5  C    0.598985   0.025816
     6  C   -0.084433   0.027013
     7  C   -0.849331   0.104855
     8  C    1.488148   0.088921
     9  C   -0.266883   0.154602
    10  C   -0.602177   0.098076
    11  S   -0.320258  -0.003700
    12  C    0.222444   0.018963
    13  C    0.160055  -0.000897
    14  C   -1.087028  -0.001381
    15  C    0.300534  -0.000778
    16  C   -0.258019  -0.006920
    17  C   -0.262892   0.003274
    18  C   -0.450573  -0.000060
    19  O   -0.411038   0.214826
    20  O   -0.484110   0.244714
    21  H    0.181631  -0.002209
    22  H    0.184561  -0.001781
    23  H    0.185075  -0.001131
    24  H    0.172575  -0.003244
    25  H    0.206314  -0.013216
    26  H    0.200822   0.002842
    27  H    0.191909   0.000527
    28  H    0.205038  -0.000086
    29  H    0.171677  -0.000032
    30  H    0.158676  -0.000046
    31  H    0.174149  -0.000063
    32  H    0.156887  -0.000001
 Sum of Mulliken charges =  -1.00000   1.00000

 Dipole moment (field-independent basis, Debye):
    X=             12.6187    Y=             -5.0975    Z=             -3.2128  Tot=             13.9835
 Quadrupole moment (field-independent basis, Debye-Ang):
   XX=           -181.0654   YY=           -131.3834   ZZ=           -134.0916
   XY=             17.7001   XZ=             27.2962   YZ=             -7.8469

  Exact polarizability: 341.645  25.651 265.803  -5.437  31.752 484.891
 Approx polarizability: 393.401  25.153 309.603 -30.758  38.253 497.180

                      1                      2                      3
                      A                      A                      A
 Frequencies --     19.6063                25.7722                32.5726
 Red. masses --      5.1632                 1.0399                 5.3666
 Frc consts  --      0.0012                 0.0004                 0.0034
 IR Inten    --      1.9634                 0.1842                 0.4588

                      4                      5                      6
                      A                      A                      A
 Frequencies --     35.2662                90.1016               131.8350
 Red. masses --      5.2472                 8.3688                 4.5588
 Frc consts  --      0.0038                 0.0400                 0.0467
 IR Inten    --      2.6479                14.1896                 0.6402

                      7                      8                      9
                      A                      A                      A
 Frequencies --    160.4099               172.9203               189.6266
 Red. masses --      4.9117                 6.6241                 5.2518
 Frc consts  --      0.0745                 0.1167                 0.1113
 IR Inten    --      0.7147                 4.8071                 1.0146

                     10                     11                     12
                      A                      A                      A
 Frequencies --    211.8796               220.7580               226.7323
 Red. masses --      3.7857                 5.3738                 5.3039
 Frc consts  --      0.1001                 0.1543                 0.1606
 IR Inten    --      7.2368                 0.3302                 0.8725

                     13                     14                     15
                      A                      A                      A
 Frequencies --    280.5902               337.4685               371.6960
 Red. masses --      7.7729                 5.5216                10.8258
 Frc consts  --      0.3606                 0.3705                 0.8812
 IR Inten    --      2.8139                 2.4625                27.2365

                     16                     17                     18
                      A                      A                      A
 Frequencies --    377.5846               411.4030               427.5392
 Red. masses --      4.5693                 7.2448                 3.6936
 Frc consts  --      0.3838                 0.7225                 0.3978
 IR Inten    --      2.7480                 4.1171                 2.5663

                     19                     20                     21
                      A                      A                      A
 Frequencies --    442.6920               456.3803               469.6605
 Red. masses --      2.9088                 5.2208                 9.1487
 Frc consts  --      0.3359                 0.6407                 1.1890
 IR Inten    --      8.9766                 5.9303                 0.5140

                     22                     23                     24
                      A                      A                      A
 Frequencies --    500.7564               514.3991               532.3138
 Red. masses --      5.3516                 6.6566                 4.7746
 Frc consts  --      0.7907                 1.0378                 0.7971
 IR Inten    --      2.4635                 3.6090                 0.3951

                     25                     26                     27
                      A                      A                      A
 Frequencies --    543.2433               613.4407               655.9963
 Red. masses --      4.2219                 7.0690                 3.2427
 Frc consts  --      0.7341                 1.5673                 0.8222
 IR Inten    --      9.2079                 9.3689                 7.0992

                     28                     29                     30
                      A                      A                      A
 Frequencies --    661.2999               686.4648               701.9469
 Red. masses --      6.2968                 6.8064                 2.4543
 Frc consts  --      1.6224                 1.8898                 0.7125
 IR Inten    --      4.0230                16.8376                33.2525

                     31                     32                     33
                      A                      A                      A
 Frequencies --    706.1453               724.7692               783.1486
 Red. masses --      3.6108                 6.3585                 1.7366
 Frc consts  --      1.0608                 1.9679                 0.6275
 IR Inten    --     53.5321                20.7755                70.7678

                     34                     35                     36
                      A                      A                      A
 Frequencies --    784.0054               797.0020               824.3363
 Red. masses --      1.3797                 3.2932                 5.4944
 Frc consts  --      0.4997                 1.2325                 2.1998
 IR Inten    --     69.4376                 6.2911                42.0217

                     37                     38                     39
                      A                      A                      A
 Frequencies --    846.3646               856.0091               872.2544
 Red. masses --      8.4290                 5.1299                 1.5622
 Frc consts  --      3.5575                 2.2147                 0.7003
 IR Inten    --     45.8332                43.0943                30.0488

                     40                     41                     42
                      A                      A                      A
 Frequencies --    884.0615               894.5265               905.2890
 Red. masses --      1.3239                 1.4507                 1.3472
 Frc consts  --      0.6096                 0.6839                 0.6505
 IR Inten    --      8.3263                 0.0829                 0.3624

                     43                     44                     45
                      A                      A                      A
 Frequencies --    989.6125               992.4064              1003.4752
 Red. masses --      1.3717                 1.3149                 2.1867
 Frc consts  --      0.7915                 0.7630                 1.2973
 IR Inten    --      2.3464                 0.3591                 7.3670

                     46                     47                     48
                      A                      A                      A
 Frequencies --   1006.2089              1012.5890              1038.6351
 Red. masses --      1.2947                 2.5334                 2.4830
 Frc consts  --      0.7723                 1.5304                 1.5782
 IR Inten    --      0.0094                 1.7949                33.3679

                     49                     50                     51
                      A                      A                      A
 Frequencies --   1059.0837              1089.4752              1098.6462
 Red. masses --      1.5413                 3.1076                 2.2693
 Frc consts  --      1.0186                 2.1732                 1.6138
 IR Inten    --      9.1177                15.3796                32.2552

                     52                     53                     54
                      A                      A                      A
 Frequencies --   1103.8391              1117.0272              1143.1374
 Red. masses --      2.8879                 1.5602                 1.6777
 Frc consts  --      2.0732                 1.1470                 1.2917
 IR Inten    --     19.5945                 0.1501                52.7742

                     55                     56                     57
                      A                      A                      A
 Frequencies --   1161.5853              1186.8410              1218.5692
 Red. masses --      1.3750                 1.1289                 2.2161
 Frc consts  --      1.0931                 0.9369                 1.9388
 IR Inten    --      2.8701                 1.0670                21.9278

                     58                     59                     60
                      A                      A                      A
 Frequencies --   1228.9901              1244.8220              1285.3917
 Red. masses --      2.8354                 2.2552                 1.8322
 Frc consts  --      2.5232                 2.0589                 1.7836
 IR Inten    --      7.9554                56.9672                35.5535

                     61                     62                     63
                      A                      A                      A
 Frequencies --   1304.8713              1340.2497              1349.7673
 Red. masses --      2.9019                 1.7373                 9.3771
 Frc consts  --      2.9112                 1.8387                10.0655
 IR Inten    --      1.0730                 3.3388                 1.7829

                     64                     65                     66
                      A                      A                      A
 Frequencies --   1374.1181              1408.2202              1431.1111
 Red. masses --      3.4219                 1.2476                 2.2774
 Frc consts  --      3.8068                 1.4577                 2.7481
 IR Inten    --     42.7983                 0.1774                 5.7779

                     67                     68                     69
                      A                      A                      A
 Frequencies --   1450.5297              1461.9099              1476.0698
 Red. masses --      5.3009                 3.1122                 1.0472
 Frc consts  --      6.5714                 3.9188                 1.3443
 IR Inten    --    247.1780               454.0439                10.9293

                     70                     71                     72
                      A                      A                      A
 Frequencies --   1482.6590              1487.1380              1506.2999
 Red. masses --      3.3921                 1.1963                 2.1669
 Frc consts  --      4.3934                 1.5588                 2.8967
 IR Inten    --      9.9740                32.1120                45.9992

                     73                     74                     75
                      A                      A                      A
 Frequencies --   1517.3516              1550.8897              1602.7374
 Red. masses --      5.3703                 5.5915                 5.4501
 Frc consts  --      7.2848                 7.9239                 8.2486
 IR Inten    --   1058.0263                 8.6709                87.8620

                     76                     77                     78
                      A                      A                      A
 Frequencies --   1611.5690              1625.4800              1632.7084
 Red. masses --      7.6517                 5.6453                 6.0198
 Frc consts  --     11.7086                 8.7882                 9.4547
 IR Inten    --     10.1832                94.1937                 5.1641

                     79                     80                     81
                      A                      A                      A
 Frequencies --   3023.3208              3073.3661              3103.5697
 Red. masses --      1.0381                 1.0989                 1.1013
 Frc consts  --      5.5908                 6.1156                 6.2502
 IR Inten    --     50.2579                26.3631                29.7700

                     82                     83                     84
                      A                      A                      A
 Frequencies --   3155.6032              3157.4009              3161.5076
 Red. masses --      1.0900                 1.0867                 1.0862
 Frc consts  --      6.3951                 6.3829                 6.3969
 IR Inten    --     21.7001                 9.4840                 8.9458

                     85                     86                     87
                      A                      A                      A
 Frequencies --   3171.0109              3173.0505              3175.3286
 Red. masses --      1.0899                 1.0929                 1.0906
 Frc consts  --      6.4572                 6.4830                 6.4789
 IR Inten    --     17.3272                29.4358                21.3383

                     88                     89                     90
                      A                      A                      A
 Frequencies --   3190.3113              3191.5438              3194.5820
 Red. masses --      1.0923                 1.0932                 1.0940
 Frc consts  --      6.5504                 6.5609                 6.5783
 IR Inten    --     17.5050                 8.9409                31.3468

 - Thermochemistry -
 -------------------
 Temperature   298.150 Kelvin.  Pressure   1.00000 Atm.
 Atom     1 has atomic number  6 and mass  12.00000

 Molecular mass:   280.05580 amu.
 Principal axes and moments of inertia in atomic units:
                           1         2         3
     Eigenvalues --  2482.03095********************
           X            0.17716   0.91730  -0.35661
           Y           -0.01784   0.36527   0.93073
           Z            0.98402  -0.15853   0.08108
 This molecule is an asymmetric top.
 Rotational symmetry number  1.
 Warning -- assumption of classical behavior for rotation
           may cause significant error
 Rotational temperatures (Kelvin)      0.03490     0.00770     0.00719
 Rotational constants (GHZ):           0.72712     0.16044     0.14985
 Zero-point vibrational energy     626513.5 (Joules/Mol)
                                  149.74032 (Kcal/Mol)
 Warning -- explicit consideration of  26 degrees of freedom as
           vibrations may cause significant error
 Vibrational temperatures:     28.21    37.08    46.86    50.74   129.64
          (Kelvin)            189.68   230.79   248.79   272.83   304.85
                              317.62   326.22   403.71   485.54   534.79
                              543.26   591.92   615.13   636.93   656.63
                              675.74   720.48   740.11   765.88   781.61
                              882.60   943.83   951.46   987.67  1009.95
                             1015.99  1042.78  1126.78  1128.01  1146.71
                             1186.04  1217.73  1231.61  1254.98  1271.97
                             1287.02  1302.51  1423.83  1427.85  1443.78
                             1447.71  1456.89  1494.36  1523.79  1567.51
                             1580.71  1588.18  1607.15  1644.72  1671.26
                             1707.60  1753.25  1768.24  1791.02  1849.39
                             1877.42  1928.32  1942.01  1977.05  2026.11
                             2059.05  2086.99  2103.36  2123.74  2133.22
                             2139.66  2167.23  2183.13  2231.38  2305.98
                             2318.69  2338.70  2349.10  4349.88  4421.89
                             4465.34  4540.21  4542.80  4548.70  4562.38
                             4565.31  4568.59  4590.15  4591.92  4596.29

 Zero-point correction=                           0.238626 (Hartree/Particle)
 Thermal correction to Energy=                    0.255584
 Thermal correction to Enthalpy=                  0.256529
 Thermal correction to Gibbs Free Energy=         0.190537
 Sum of electronic and zero-point Energies=          -1203.823676
 Sum of electronic and thermal Energies=             -1203.806718
 Sum of electronic and thermal Enthalpies=           -1203.805774
 Sum of electronic and thermal Free Energies=        -1203.871766

                     E (Thermal)             CV                S
                      KCal/Mol        Cal/Mol-Kelvin    Cal/Mol-Kelvin
 Total                  160.382             65.398            138.892
 Electronic               0.000              0.000              1.377
 Translational            0.889              2.981             42.788
 Rotational               0.889              2.981             34.174
 Vibrational            158.604             59.436             60.553
 Vibration     1          0.593              1.986              6.674
 Vibration     2          0.593              1.985              6.131
 Vibration     3          0.594              1.983              5.666
 Vibration     4          0.594              1.982              5.509
 Vibration     5          0.602              1.956              3.658
 Vibration     6          0.612              1.922              2.919
 Vibration     7          0.622              1.891              2.545
 Vibration     8          0.626              1.876              2.404
 Vibration     9          0.633              1.854              2.231
 Vibration    10          0.643              1.823              2.027
 Vibration    11          0.647              1.809              1.953
 Vibration    12          0.650              1.800              1.905
 Vibration    13          0.680              1.710              1.530
 Vibration    14          0.718              1.601              1.224
 Vibration    15          0.743              1.530              1.073
 Vibration    16          0.748              1.518              1.049
 Vibration    17          0.775              1.445              0.922
 Vibration    18          0.789              1.410              0.867
 Vibration    19          0.802              1.377              0.818
 Vibration    20          0.815              1.347              0.777
 Vibration    21          0.827              1.317              0.739
 Vibration    22          0.856              1.248              0.656
 Vibration    23          0.869              1.218              0.623
 Vibration    24          0.887              1.179              0.582
 Vibration    25          0.898              1.154              0.558
 Vibration    26          0.973              1.003              0.427

                           ! Non-Optimized Parameters !
 Normal termination of Gaussian 16 at Sun Feb 11 19:55:18 2024.
