 Gaussian 16, Revision A.03,
 Gaussian 16:  ES64L-G16RevA.03 25-Dec-2016

 ----------------------------------------------------------------------
 #P UB3LYP/6-311++G(d,p) nosym opt freq SCRF=(PCM,Solvent=n,n-DiMethylF
 ormamide)
 ----------------------------------------------------------------------

 --------
 Oxidized
 --------
 Symbolic Z-matrix:
 Charge =  0 Multiplicity = 1

 SCF Done:  E(UB3LYP) =  -972.813331367     A.U. after   16 cycles
 SCF Done:  E(UB3LYP) =  -972.813451982     A.U. after   12 cycles
 SCF Done:  E(UB3LYP) =  -972.813465005     A.U. after   12 cycles
 SCF Done:  E(UB3LYP) =  -972.813471262     A.U. after   10 cycles
 SCF Done:  E(UB3LYP) =  -972.813472054     A.U. after    9 cycles
 SCF Done:  E(UB3LYP) =  -972.813472281     A.U. after   10 cycles
 SCF Done:  E(UB3LYP) =  -972.813472557     A.U. after    9 cycles
 Optimization completed.
    -- Stationary point found.
 Normal termination of Gaussian 16 at Sun Feb 11 00:44:07 2024.

 ----------------------------------------------------------------------
 #P Geom=AllCheck Guess=TCheck SCRF=Check GenChk UB3LYP/6-311++G(d,p) F
 req
 ----------------------------------------------------------------------

 Structure from the checkpoint file:  "276.chk"
 --------
 Oxidized
 --------
 Charge =  0 Multiplicity = 1

                          Input orientation:
 ---------------------------------------------------------------------
 Center     Atomic      Atomic             Coordinates (Angstroms)
 Number     Number       Type             X           Y           Z
 ---------------------------------------------------------------------
      1          6           0        4.283735   -0.009290   -0.158250
      2         16           0        3.038432   -1.329455   -0.304659
      3          6           0        1.531315   -0.453027   -0.127991
      4          6           0        1.391959    0.880299    0.065104
      5          6           0        0.086182    1.528491    0.203496
      6          8           0        0.007258    2.743049    0.378162
      7          6           0       -1.133156    0.673121    0.125874
      8          6           0       -2.399086    1.245714    0.251459
      9          6           0       -3.538286    0.447297    0.178240
     10          6           0       -3.418533   -0.929375   -0.021179
     11          6           0       -2.159201   -1.508817   -0.147319
     12          6           0       -1.012301   -0.713400   -0.074654
     13          6           0        0.324626   -1.346504   -0.211249
     14          8           0        0.461384   -2.547465   -0.385198
     15          1           0        4.170147    0.725964   -0.954564
     16          1           0        5.244991   -0.510506   -0.265882
     17          1           0        4.234286    0.468632    0.819977
     18          1           0        2.241681    1.547456    0.129154
     19          1           0       -2.478236    2.314433    0.405587
     20          1           0       -4.519285    0.897036    0.276299
     21          1           0       -4.305719   -1.548711   -0.078129
     22          1           0       -2.052193   -2.574946   -0.302420
 ---------------------------------------------------------------------

 SCF Done:  E(UB3LYP) =  -972.813472557     A.U. after    1 cycles

 Alpha  occ. eigenvalues --  -88.88140 -19.14464 -19.13091 -10.29661 -10.28249
 Alpha  occ. eigenvalues --  -10.24745 -10.21272 -10.21105 -10.20829 -10.20494
 Alpha  occ. eigenvalues --  -10.20211 -10.20123 -10.20008 -10.19993  -7.96706
 Alpha  occ. eigenvalues --   -5.93079  -5.92653  -5.92173  -1.07844  -1.06055
 Alpha  occ. eigenvalues --   -0.89490  -0.86386  -0.80793  -0.78189  -0.76813
 Alpha  occ. eigenvalues --   -0.71466  -0.67467  -0.65232  -0.61825  -0.59172
 Alpha  occ. eigenvalues --   -0.54978  -0.53239  -0.50555  -0.48978  -0.46619
 Alpha  occ. eigenvalues --   -0.46267  -0.46156  -0.45461  -0.44367  -0.44303
 Alpha  occ. eigenvalues --   -0.43063  -0.42190  -0.40965  -0.38522  -0.38424
 Alpha  occ. eigenvalues --   -0.37349  -0.35264  -0.33465  -0.29533  -0.28800
 Alpha  occ. eigenvalues --   -0.28171  -0.27943  -0.24829
 Alpha virt. eigenvalues --   -0.12948  -0.05974  -0.03618  -0.00894  -0.00233
 Alpha virt. eigenvalues --    0.01070   0.01481   0.02013   0.02056   0.02916
 Alpha virt. eigenvalues --    0.03418   0.04165   0.04332   0.04901   0.05225

  Beta  occ. eigenvalues --  -88.88140 -19.14464 -19.13091 -10.29661 -10.28249
  Beta  occ. eigenvalues --  -10.24745 -10.21272 -10.21105 -10.20829 -10.20494
  Beta  occ. eigenvalues --  -10.20211 -10.20123 -10.20008 -10.19993  -7.96706
  Beta  occ. eigenvalues --   -5.93079  -5.92653  -5.92173  -1.07844  -1.06055
  Beta  occ. eigenvalues --   -0.89490  -0.86386  -0.80793  -0.78189  -0.76813
  Beta  occ. eigenvalues --   -0.71466  -0.67467  -0.65232  -0.61825  -0.59172
  Beta  occ. eigenvalues --   -0.54978  -0.53239  -0.50555  -0.48978  -0.46619
  Beta  occ. eigenvalues --   -0.46267  -0.46156  -0.45461  -0.44367  -0.44303
  Beta  occ. eigenvalues --   -0.43063  -0.42190  -0.40965  -0.38522  -0.38424
  Beta  occ. eigenvalues --   -0.37349  -0.35264  -0.33465  -0.29533  -0.28800
  Beta  occ. eigenvalues --   -0.28171  -0.27943  -0.24829
  Beta virt. eigenvalues --   -0.12948  -0.05974  -0.03618  -0.00894  -0.00233
  Beta virt. eigenvalues --    0.01070   0.01481   0.02013   0.02056   0.02916
  Beta virt. eigenvalues --    0.03418   0.04165   0.04332   0.04901   0.05225

 Mulliken charges and spin densities:
               1          2
     1  C   -0.475004  -0.000000
     2  S   -0.556827   0.000000
     3  C    0.962850   0.000000
     4  C    0.766226  -0.000000
     5  C   -0.461741   0.000000
     6  O   -0.309425  -0.000000
     7  C    0.494069  -0.000000
     8  C    0.305722  -0.000000
     9  C   -0.353359  -0.000000
    10  C   -0.410632  -0.000000
    11  C    0.400227  -0.000000
    12  C   -0.124896   0.000000
    13  C   -1.661546   0.000000
    14  O   -0.227809  -0.000000
    15  H    0.203071   0.000000
    16  H    0.215125  -0.000000
    17  H    0.203998   0.000000
    18  H    0.238387  -0.000000
    19  H    0.181733   0.000000
    20  H    0.212164  -0.000000
    21  H    0.206291   0.000000
    22  H    0.191376   0.000000
 Sum of Mulliken charges =   0.00000  -0.00000

 Dipole moment (field-independent basis, Debye):
    X=             -0.0886    Y=              0.2076    Z=              0.0335  Tot=              0.2282
 Quadrupole moment (field-independent basis, Debye-Ang):
   XX=            -55.6094   YY=           -107.7208   ZZ=            -90.5315
   XY=              6.3353   XZ=             -0.2995   YZ=             -2.7003

  Exact polarizability: 300.964 -33.688 271.656 -11.439  24.061 113.893
 Approx polarizability: 315.451 -45.658 368.681 -12.998  35.596 133.904

                      1                      2                      3
                      A                      A                      A
 Frequencies --     40.8433               104.4780               115.3920
 Red. masses --      5.9541                 4.5244                 4.5660
 Frc consts  --      0.0059                 0.0291                 0.0358
 IR Inten    --     11.4258                 0.0017                 0.2625

                      4                      5                      6
                      A                      A                      A
 Frequencies --    133.7180               160.4504               190.2943
 Red. masses --      5.3435                 4.3667                 3.4008
 Frc consts  --      0.0563                 0.0662                 0.0726
 IR Inten    --      7.1972                 2.6179                 0.0018

                      7                      8                      9
                      A                      A                      A
 Frequencies --    227.9600               250.1795               278.6791
 Red. masses --      1.2293                 4.7498                 7.3396
 Frc consts  --      0.0376                 0.1752                 0.3358
 IR Inten    --      0.5040                 5.3888                 0.3878

                     10                     11                     12
                      A                      A                      A
 Frequencies --    359.5615               379.3671               380.0209
 Red. masses --      8.4165                 4.8342                10.9930
 Frc consts  --      0.6411                 0.4099                 0.9354
 IR Inten    --     11.7980                 0.2810                40.2970

                     13                     14                     15
                      A                      A                      A
 Frequencies --    432.7623               460.7055               479.5221
 Red. masses --      3.7320                10.3315                 4.0173
 Frc consts  --      0.4118                 1.2920                 0.5443
 IR Inten    --      1.1924                 9.8527                 0.0770

                     16                     17                     18
                      A                      A                      A
 Frequencies --    502.3248               615.4291               669.2389
 Red. masses --      9.0703                 7.6207                 5.7916
 Frc consts  --      1.3485                 1.7006                 1.5283
 IR Inten    --      0.5814                56.8962                 2.3185

                     19                     20                     21
                      A                      A                      A
 Frequencies --    677.6936               704.5395               716.8359
 Red. masses --      3.5922                 6.2830                 6.5118
 Frc consts  --      0.9720                 1.8375                 1.9715
 IR Inten    --     12.0081                 4.8783                 2.1346

                     22                     23                     24
                      A                      A                      A
 Frequencies --    718.3738               788.3060               810.6515
 Red. masses --      3.1984                 1.7047                 3.6638
 Frc consts  --      0.9725                 0.6242                 1.4186
 IR Inten    --     45.6940                62.1933                12.4556

                     25                     26                     27
                      A                      A                      A
 Frequencies --    814.3780               866.9576               883.1510
 Red. masses --      4.9110                 8.6627                 1.5442
 Frc consts  --      1.9190                 3.8362                 0.7096
 IR Inten    --      7.0600               208.9225                31.8038

                     28                     29                     30
                      A                      A                      A
 Frequencies --    914.5587               974.8491               998.7904
 Red. masses --      1.3923                 1.1929                 1.3209
 Frc consts  --      0.6861                 0.6679                 0.7764
 IR Inten    --      0.0663                 5.8914                 2.9727

                     31                     32                     33
                      A                      A                      A
 Frequencies --   1001.1770              1024.2249              1045.7218
 Red. masses --      1.3893                 1.3338                 2.8634
 Frc consts  --      0.8205                 0.8244                 1.8449
 IR Inten    --      1.5945                 0.0251                12.8924

                     34                     35                     36
                      A                      A                      A
 Frequencies --   1085.3325              1106.5886              1136.6919
 Red. masses --      3.6469                 2.9717                 1.7756
 Frc consts  --      2.5310                 2.1440                 1.3517
 IR Inten    --     87.1690                11.9887               125.4588

                     37                     38                     39
                      A                      A                      A
 Frequencies --   1182.0608              1241.4665              1269.9408
 Red. masses --      1.1229                 2.1134                 2.4850
 Frc consts  --      0.9244                 1.9191                 2.3613
 IR Inten    --     11.1521                34.2378               507.0715

                     40                     41                     42
                      A                      A                      A
 Frequencies --   1310.5398              1339.6723              1359.7936
 Red. masses --      2.5710                 2.1335                 2.8139
 Frc consts  --      2.6016                 2.2561                 3.0655
 IR Inten    --    407.1361                40.7342                44.9880

                     43                     44                     45
                      A                      A                      A
 Frequencies --   1363.2638              1459.6460              1471.7883
 Red. masses --      1.5623                 1.0493                 1.0518
 Frc consts  --      1.7107                 1.3172                 1.3424
 IR Inten    --     14.9358                17.5158                26.4800

                     46                     47                     48
                      A                      A                      A
 Frequencies --   1481.5838              1503.5510              1589.9267
 Red. masses --      2.3362                 2.6789                 6.6212
 Frc consts  --      3.0215                 3.5682                 9.8614
 IR Inten    --      0.9465                34.0846               417.4245

                     49                     50                     51
                      A                      A                      A
 Frequencies --   1616.6768              1619.8931              1668.2188
 Red. masses --      7.1324                 6.2533                10.4419
 Frc consts  --     10.9832                 9.6679                17.1212
 IR Inten    --    116.2891               322.0714               598.0779

                     52                     53                     54
                      A                      A                      A
 Frequencies --   1702.3495              3049.3759              3138.4380
 Red. masses --     12.4356                 1.0294                 1.1085
 Frc consts  --     21.2332                 5.6395                 6.4330
 IR Inten    --    440.6321                17.2823                 6.3581

                     55                     56                     57
                      A                      A                      A
 Frequencies --   3146.6210              3179.6949              3191.6106
 Red. masses --      1.1043                 1.0875                 1.0911
 Frc consts  --      6.4421                 6.4780                 6.5484
 IR Inten    --      3.3391                 3.2202                 8.9055

                     58                     59                     60
                      A                      A                      A
 Frequencies --   3202.5472              3203.1021              3205.9002
 Red. masses --      1.0925                 1.0907                 1.0959
 Frc consts  --      6.6019                 6.5931                 6.6361
 IR Inten    --      2.6418                 4.4836                17.4050

 - Thermochemistry -
 -------------------
 Temperature   298.150 Kelvin.  Pressure   1.00000 Atm.
 Atom     1 has atomic number  6 and mass  12.00000

 Molecular mass:   204.02450 amu.
 Principal axes and moments of inertia in atomic units:
                           1         2         3
     Eigenvalues --  1484.832414101.359935574.60475
           X            0.98662   0.15932   0.03465
           Y           -0.15305   0.97825  -0.13998
           Z           -0.05619   0.13281   0.98955
 This molecule is an asymmetric top.
 Rotational symmetry number  1.
 Warning -- assumption of classical behavior for rotation
           may cause significant error
 Rotational temperatures (Kelvin)      0.05833     0.02112     0.01554
 Rotational constants (GHZ):           1.21545     0.44003     0.32374
 Zero-point vibrational energy     421967.2 (Joules/Mol)
                                  100.85259 (Kcal/Mol)
 Warning -- explicit consideration of  17 degrees of freedom as
           vibrations may cause significant error
 Vibrational temperatures:     58.76   150.32   166.02   192.39   230.85
          (Kelvin)            273.79   327.98   359.95   400.96   517.33
                              545.82   546.77   622.65   662.85   689.93
                              722.73   885.47   962.89   975.05  1013.68
                             1031.37  1033.58  1134.20  1166.35  1171.71
                             1247.36  1270.66  1315.85  1402.59  1437.04
                             1440.47  1473.63  1504.56  1561.55  1592.13
                             1635.45  1700.72  1786.19  1827.16  1885.57
                             1927.49  1956.44  1961.43  2100.10  2117.58
                             2131.67  2163.27  2287.55  2326.04  2330.66
                             2400.19  2449.30  4387.37  4515.51  4527.29
                             4574.87  4592.02  4607.75  4608.55  4612.58

 Zero-point correction=                           0.160719 (Hartree/Particle)
 Thermal correction to Energy=                    0.172660
 Thermal correction to Enthalpy=                  0.173605
 Thermal correction to Gibbs Free Energy=         0.122072
 Sum of electronic and zero-point Energies=           -972.652754
 Sum of electronic and thermal Energies=              -972.640812
 Sum of electronic and thermal Enthalpies=            -972.639868
 Sum of electronic and thermal Free Energies=         -972.691400

                     E (Thermal)             CV                S
                      KCal/Mol        Cal/Mol-Kelvin    Cal/Mol-Kelvin
 Total                  108.346             45.562            108.459
 Electronic               0.000              0.000              0.000
 Translational            0.889              2.981             41.844
 Rotational               0.889              2.981             31.896
 Vibrational            106.569             39.600             34.719
 Vibration     1          0.594              1.981              5.218
 Vibration     2          0.605              1.946              3.369
 Vibration     3          0.608              1.937              3.176
 Vibration     4          0.613              1.920              2.892
 Vibration     5          0.622              1.891              2.544
 Vibration     6          0.634              1.853              2.225
 Vibration     7          0.651              1.798              1.895
 Vibration     8          0.663              1.762              1.729
 Vibration     9          0.679              1.713              1.542
 Vibration    10          0.734              1.556              1.124
 Vibration    11          0.749              1.514              1.042
 Vibration    12          0.750              1.513              1.039
 Vibration    13          0.794              1.399              0.850
 Vibration    14          0.819              1.337              0.764
 Vibration    15          0.836              1.295              0.711
 Vibration    16          0.858              1.245              0.652
 Vibration    17          0.975              0.999              0.424

 Optimization completed.
    -- Stationary point found.
 Normal termination of Gaussian 16 at Sun Feb 11 01:19:14 2024.
