 Gaussian 16, Revision A.03,
 Gaussian 16:  ES64L-G16RevA.03 25-Dec-2016

 --------------------------------------
 #P UB3LYP/6-311++G(d,p) nosym opt freq
 --------------------------------------

 -------
 Reduced
 -------
 Symbolic Z-matrix:
 Charge = -2 Multiplicity = 1

 SCF Done:  E(UB3LYP) =  -765.266683988     A.U. after   50 cycles
 SCF Done:  E(UB3LYP) =  -765.310154075     A.U. after   33 cycles
 SCF Done:  E(UB3LYP) =  -765.349250575     A.U. after   35 cycles
 SCF Done:  E(UB3LYP) =  -765.359103093     A.U. after   34 cycles
 SCF Done:  E(UB3LYP) =  -765.363560172     A.U. after   32 cycles
 SCF Done:  E(UB3LYP) =  -765.364186011     A.U. after   34 cycles
 SCF Done:  E(UB3LYP) =  -765.365191779     A.U. after   31 cycles
 SCF Done:  E(UB3LYP) =  -765.365926590     A.U. after   36 cycles
 SCF Done:  E(UB3LYP) =  -765.366923273     A.U. after   30 cycles
 SCF Done:  E(UB3LYP) =  -765.367938740     A.U. after   31 cycles
 SCF Done:  E(UB3LYP) =  -765.368698524     A.U. after   29 cycles
 SCF Done:  E(UB3LYP) =  -765.368749498     A.U. after   33 cycles
 SCF Done:  E(UB3LYP) =  -765.368955733     A.U. after   30 cycles
 SCF Done:  E(UB3LYP) =  -765.368998290     A.U. after   27 cycles
 SCF Done:  E(UB3LYP) =  -765.369002250     A.U. after   29 cycles
 Optimization completed.
    -- Stationary point found.
 Normal termination of Gaussian 16 at Sat Jan  6 04:05:22 2024.

 ----------------------------------------------------------------------
 #P Geom=AllCheck Guess=TCheck SCRF=Check GenChk UB3LYP/6-311++G(d,p) F
 req
 ----------------------------------------------------------------------

 Structure from the checkpoint file:  "340-an.chk"
 -------
 Reduced
 -------
 Charge = -2 Multiplicity = 1

                          Input orientation:
 ---------------------------------------------------------------------
 Center     Atomic      Atomic             Coordinates (Angstroms)
 Number     Number       Type             X           Y           Z
 ---------------------------------------------------------------------
      1          8           0        2.249446    2.769481   -0.250462
      2          6           0        2.351406    1.413263   -0.148731
      3          6           0        3.591946    0.830256    0.072178
      4          6           0        3.721018   -0.566351    0.192987
      5          6           0        2.580105   -1.370333    0.081649
      6          6           0        1.328287   -0.810694   -0.155217
      7          6           0        0.117887   -1.653926   -0.467522
      8          6           0       -1.176380   -1.030545   -0.009326
      9          6           0       -2.276267   -1.796544    0.364801
     10          6           0       -3.518800   -1.201582    0.614884
     11          6           0       -3.649071    0.194855    0.493719
     12          6           0       -2.562500    0.982157    0.136924
     13          8           0       -2.709432    2.334055    0.037207
     14          6           0       -1.283929    0.387515   -0.134627
     15          6           0       -0.128408    1.198568   -0.397265
     16          8           0       -0.252030    2.531764   -0.506853
     17          6           0        1.172779    0.603362   -0.277526
     18          1           0        1.256412    2.934714   -0.373456
     19          1           0        4.459224    1.480983    0.149004
     20          1           0        4.701059   -1.015931    0.335059
     21          1           0        2.675642   -2.453524    0.135530
     22          1           0        0.229837   -2.668080   -0.074311
     23          1           0        0.061814   -1.754492   -1.580651
     24          1           0       -2.175530   -2.879277    0.418544
     25          1           0       -4.382963   -1.812817    0.864690
     26          1           0       -4.601535    0.685794    0.676360
     27          1           0       -1.780019    2.667330   -0.197587
 ---------------------------------------------------------------------

 SCF Done:  E(UB3LYP) =  -765.369002250     A.U. after    2 cycles

 Alpha  occ. eigenvalues --  -18.88855 -18.88842 -18.83503  -9.99144  -9.99142
 Alpha  occ. eigenvalues --   -9.96925  -9.94883  -9.94046  -9.94045  -9.93733
 Alpha  occ. eigenvalues --   -9.93732  -9.93457  -9.93456  -9.93284  -9.93281
 Alpha  occ. eigenvalues --   -9.93247  -9.93245  -0.80744  -0.80160  -0.72950
 Alpha  occ. eigenvalues --   -0.62843  -0.60572  -0.55592  -0.51904  -0.50468
 Alpha  occ. eigenvalues --   -0.49542  -0.45696  -0.40405  -0.39148  -0.34897
 Alpha  occ. eigenvalues --   -0.34729  -0.32254  -0.28363  -0.27854  -0.27564
 Alpha  occ. eigenvalues --   -0.23986  -0.23290  -0.22159  -0.20584  -0.20016
 Alpha  occ. eigenvalues --   -0.17731  -0.17586  -0.17174  -0.16577  -0.16276
 Alpha  occ. eigenvalues --   -0.15789  -0.14919  -0.13327  -0.13241  -0.10652
 Alpha  occ. eigenvalues --   -0.10537  -0.09350  -0.09027  -0.08829  -0.01651
 Alpha  occ. eigenvalues --   -0.01305  -0.00705   0.00911   0.01462   0.13022
 Alpha virt. eigenvalues --    0.14845   0.15016   0.16509   0.17327   0.17905
 Alpha virt. eigenvalues --    0.19110   0.19337   0.20521   0.21322   0.22604
 Alpha virt. eigenvalues --    0.22938   0.23161   0.23877   0.24398   0.24839

  Beta  occ. eigenvalues --  -18.88855 -18.88842 -18.83503  -9.99144  -9.99142
  Beta  occ. eigenvalues --   -9.96925  -9.94883  -9.94046  -9.94045  -9.93733
  Beta  occ. eigenvalues --   -9.93732  -9.93457  -9.93456  -9.93284  -9.93281
  Beta  occ. eigenvalues --   -9.93247  -9.93245  -0.80744  -0.80160  -0.72950
  Beta  occ. eigenvalues --   -0.62843  -0.60572  -0.55592  -0.51904  -0.50468
  Beta  occ. eigenvalues --   -0.49542  -0.45696  -0.40405  -0.39148  -0.34897
  Beta  occ. eigenvalues --   -0.34729  -0.32254  -0.28363  -0.27854  -0.27564
  Beta  occ. eigenvalues --   -0.23986  -0.23290  -0.22159  -0.20584  -0.20016
  Beta  occ. eigenvalues --   -0.17731  -0.17586  -0.17174  -0.16577  -0.16276
  Beta  occ. eigenvalues --   -0.15789  -0.14919  -0.13327  -0.13241  -0.10652
  Beta  occ. eigenvalues --   -0.10537  -0.09350  -0.09027  -0.08829  -0.01651
  Beta  occ. eigenvalues --   -0.01305  -0.00705   0.00911   0.01462   0.13022
  Beta virt. eigenvalues --    0.14845   0.15016   0.16509   0.17327   0.17905
  Beta virt. eigenvalues --    0.19110   0.19337   0.20521   0.21322   0.22604
  Beta virt. eigenvalues --    0.22938   0.23161   0.23877   0.24398   0.24839

 Mulliken charges and spin densities:
               1          2
     1  O   -0.391603  -0.000000
     2  C   -0.163923  -0.000000
     3  C    0.308913   0.000000
     4  C    0.660654   0.000000
     5  C   -0.416474  -0.000000
     6  C   -0.643085   0.000000
     7  C    0.859756   0.000000
     8  C   -0.642847  -0.000000
     9  C   -0.416125  -0.000000
    10  C    0.659517   0.000000
    11  C    0.305804  -0.000000
    12  C   -0.162230   0.000000
    13  O   -0.392175   0.000000
    14  C    0.701712   0.000000
    15  C   -0.372205  -0.000000
    16  O   -0.582997   0.000000
    17  C    0.703642  -0.000000
    18  H    0.356980  -0.000000
    19  H    0.072207  -0.000000
    20  H   -1.029857  -0.000000
    21  H   -0.389849  -0.000000
    22  H    0.010754   0.000000
    23  H   -0.049135  -0.000000
    24  H   -0.389711  -0.000000
    25  H   -1.027676   0.000000
    26  H    0.072290   0.000000
    27  H    0.357660  -0.000000
 Sum of Mulliken charges =  -2.00000  -0.00000

 Dipole moment (field-independent basis, Debye):
    X=              0.0184    Y=             -0.0846    Z=              0.3066  Tot=              0.3185
 Quadrupole moment (field-independent basis, Debye-Ang):
   XX=           -232.2197   YY=           -165.3695   ZZ=           -126.1948
   XY=             -5.7086   XZ=              5.9159   YZ=              3.4898

  Exact polarizability:5495.050 367.0211335.866-292.364 -77.497 405.922
 Approx polarizability:7116.674 421.2812163.328-363.729-300.797 478.461

                      1                      2                      3
                      A                      A                      A
 Frequencies --     64.8418                78.7773               125.0402
 Red. masses --      5.3030                 7.1612                 8.1938
 Frc consts  --      0.0131                 0.0262                 0.0755
 IR Inten    --      6.6786                 5.1996                 2.8055

                      4                      5                      6
                      A                      A                      A
 Frequencies --    212.7917               218.2324               243.1751
 Red. masses --      4.5237                 4.4476                 4.8893
 Frc consts  --      0.1207                 0.1248                 0.1703
 IR Inten    --      0.1119                20.6597                 1.9134

                      7                      8                      9
                      A                      A                      A
 Frequencies --    265.4205               268.0817               334.8433
 Red. masses --      5.7257                 2.9224                 6.2831
 Frc consts  --      0.2377                 0.1237                 0.4151
 IR Inten    --     11.1397                25.7391                 0.0100

                     10                     11                     12
                      A                      A                      A
 Frequencies --    347.9490               411.5741               429.0399
 Red. masses --      6.1971                 4.2098                11.0958
 Frc consts  --      0.4420                 0.4202                 1.2034
 IR Inten    --     40.3512                19.0443                81.0902

                     13                     14                     15
                      A                      A                      A
 Frequencies --    480.7938               487.2024               489.5766
 Red. masses --      5.4168                 8.3983                 4.8494
 Frc consts  --      0.7378                 1.1745                 0.6848
 IR Inten    --      6.1800               143.5948                 5.2458

                     16                     17                     18
                      A                      A                      A
 Frequencies --    510.4982               544.9377               549.3775
 Red. masses --      5.2346                 3.8319                 6.6316
 Frc consts  --      0.8037                 0.6704                 1.1793
 IR Inten    --     88.8611                41.5164                 0.3869

                     19                     20                     21
                      A                      A                      A
 Frequencies --    564.5299               591.7219               597.0267
 Red. masses --      4.6531                 4.5721                 4.7189
 Frc consts  --      0.8737                 0.9432                 0.9910
 IR Inten    --     68.3146                 4.9277                69.7120

                     22                     23                     24
                      A                      A                      A
 Frequencies --    601.8963               653.9079               710.6987
 Red. masses --      7.9814                 5.1543                 2.4815
 Frc consts  --      1.7036                 1.2985                 0.7385
 IR Inten    --    294.3288                44.0873               495.0896

                     25                     26                     27
                      A                      A                      A
 Frequencies --    743.3395               757.4598               766.1193
 Red. masses --      1.8322                 1.7023                 5.4430
 Frc consts  --      0.5965                 0.5754                 1.8823
 IR Inten    --     22.7919               203.3720                 2.8941

                     28                     29                     30
                      A                      A                      A
 Frequencies --    767.6573               801.4143               835.7914
 Red. masses --      2.3317                 5.3522                 1.5337
 Frc consts  --      0.8096                 2.0253                 0.6312
 IR Inten    --    105.3058                45.0194               706.5712

                     31                     32                     33
                      A                      A                      A
 Frequencies --    836.4066               870.6968               874.9029
 Red. masses --      1.4693                 1.2855                 1.2661
 Frc consts  --      0.6056                 0.5742                 0.5710
 IR Inten    --     49.6962                86.6215               150.1999

                     34                     35                     36
                      A                      A                      A
 Frequencies --    917.5567               935.4048               988.9256
 Red. masses --      5.4154                 2.0844                 1.0471
 Frc consts  --      2.6862                 1.0745                 0.6033
 IR Inten    --      4.6756                67.0604                 7.0349

                     37                     38                     39
                      A                      A                      A
 Frequencies --    998.5833              1010.2718              1024.3084
 Red. masses --      1.0671                 4.0873                 3.3044
 Frc consts  --      0.6270                 2.4579                 2.0427
 IR Inten    --    114.8217                 5.7964               200.1707

                     40                     41                     42
                      A                      A                      A
 Frequencies --   1050.2199              1065.0573              1128.4742
 Red. masses --      1.8952                 2.8532                 3.5347
 Frc consts  --      1.2316                 1.9069                 2.6521
 IR Inten    --    713.6227               159.8438               487.1200

                     43                     44                     45
                      A                      A                      A
 Frequencies --   1154.8172              1155.1492              1178.3361
 Red. masses --      1.2458                 1.2638                 1.2046
 Frc consts  --      0.9789                 0.9935                 0.9855
 IR Inten    --     79.4683               256.0086                10.2515

                     46                     47                     48
                      A                      A                      A
 Frequencies --   1226.9402              1243.7244              1265.9651
 Red. masses --      2.2995                 1.3758                 4.5815
 Frc consts  --      2.0395                 1.2539                 4.3261
 IR Inten    --     83.0863               262.2833                97.7202

                     49                     50                     51
                      A                      A                      A
 Frequencies --   1269.8600              1283.5780              1298.4735
 Red. masses --      5.0943                 2.3026                 2.8890
 Frc consts  --      4.8400                 2.2351                 2.8699
 IR Inten    --    426.6687               404.0318                13.6278

                     52                     53                     54
                      A                      A                      A
 Frequencies --   1306.2417              1357.1951              1360.8361
 Red. masses --      3.5736                 6.2886                 6.6273
 Frc consts  --      3.5925                 6.8248                 7.2310
 IR Inten    --   1994.3952                52.4255                12.6606

                     55                     56                     57
                      A                      A                      A
 Frequencies --   1419.4987              1425.0901              1441.0938
 Red. masses --      2.2654                 2.5566                 1.1918
 Frc consts  --      2.6894                 3.0592                 1.4583
 IR Inten    --    241.9547               375.8205                33.4560

                     58                     59                     60
                      A                      A                      A
 Frequencies --   1485.1038              1485.5850              1525.9994
 Red. masses --      2.8427                 2.7770                 3.9638
 Frc consts  --      3.6939                 3.6110                 5.4384
 IR Inten    --     26.2897               183.1596                87.5446

                     61                     62                     63
                      A                      A                      A
 Frequencies --   1554.9300              1562.7239              1572.9007
 Red. masses --      5.1943                 3.5904                 3.6063
 Frc consts  --      7.3994                 5.1660                 5.2568
 IR Inten    --    232.9525                 4.0831              1718.6687

                     64                     65                     66
                      A                      A                      A
 Frequencies --   1621.6925              1675.7737              2716.2857
 Red. masses --      1.7826                 1.6246                 1.0742
 Frc consts  --      2.7621                 2.6880                 4.6696
 IR Inten    --     41.6152                17.2285              1271.8998

                     67                     68                     69
                      A                      A                      A
 Frequencies --   2770.8837              2875.6882              3044.9754
 Red. masses --      1.0746                 1.0782                 1.0833
 Frc consts  --      4.8610                 5.2534                 5.9179
 IR Inten    --    575.2470               420.5667               273.2314

                     70                     71                     72
                      A                      A                      A
 Frequencies --   3105.2239              3105.3258              3124.5976
 Red. masses --      1.0847                 1.0845                 1.0885
 Frc consts  --      6.1621                 6.1619                 6.2612
 IR Inten    --    286.3852                27.4750               479.2739

                     73                     74                     75
                      A                      A                      A
 Frequencies --   3124.8423              3140.9002              3141.1954
 Red. masses --      1.0885                 1.0938                 1.0940
 Frc consts  --      6.2622                 6.3574                 6.3598
 IR Inten    --    347.7771               922.0272               127.0828

 - Thermochemistry -
 -------------------
 Temperature   298.150 Kelvin.  Pressure   1.00000 Atm.
 Atom     1 has atomic number  8 and mass  15.99491

 Molecular mass:   226.06299 amu.
 Principal axes and moments of inertia in atomic units:
                           1         2         3
     Eigenvalues --  1957.717104705.687126534.61803
           X            0.99450  -0.09156   0.05085
           Y            0.08728   0.99291   0.08069
           Z           -0.05788  -0.07581   0.99544
 This molecule is an asymmetric top.
 Rotational symmetry number  1.
 Warning -- assumption of classical behavior for rotation
           may cause significant error
 Rotational temperatures (Kelvin)      0.04424     0.01841     0.01325
 Rotational constants (GHZ):           0.92186     0.38352     0.27618
 Zero-point vibrational energy     527409.3 (Joules/Mol)
                                  126.05385 (Kcal/Mol)
 Warning -- explicit consideration of  22 degrees of freedom as
           vibrations may cause significant error
 Vibrational temperatures:     93.29   113.34   179.91   306.16   313.99
          (Kelvin)            349.87   381.88   385.71   481.76   500.62
                              592.16   617.29   691.75   700.98   704.39
                              734.49   784.04   790.43   812.23   851.36
                              858.99   865.99   940.83  1022.54  1069.50
                             1089.82  1102.27  1104.49  1153.06  1202.52
                             1203.40  1252.74  1258.79  1320.16  1345.84
                             1422.84  1436.74  1453.56  1473.75  1511.03
                             1532.38  1623.62  1661.52  1662.00  1695.36
                             1765.29  1789.44  1821.44  1827.05  1846.78
                             1868.21  1879.39  1952.70  1957.94  2042.34
                             2050.39  2073.41  2136.73  2137.43  2195.57
                             2237.20  2248.41  2263.05  2333.25  2411.06
                             3908.13  3986.68  4137.47  4381.04  4467.72
                             4467.87  4495.60  4495.95  4519.05  4519.48

 Zero-point correction=                           0.200880 (Hartree/Particle)
 Thermal correction to Energy=                    0.213249
 Thermal correction to Enthalpy=                  0.214193
 Thermal correction to Gibbs Free Energy=         0.162584
 Sum of electronic and zero-point Energies=           -765.168123
 Sum of electronic and thermal Energies=              -765.155753
 Sum of electronic and thermal Enthalpies=            -765.154809
 Sum of electronic and thermal Free Energies=         -765.206418

                     E (Thermal)             CV                S
                      KCal/Mol        Cal/Mol-Kelvin    Cal/Mol-Kelvin
 Total                  133.816             52.024            108.620
 Electronic               0.000              0.000              0.000
 Translational            0.889              2.981             42.149
 Rotational               0.889              2.981             32.465
 Vibrational            132.038             46.062             34.006
 Vibration     1          0.597              1.971              4.304
 Vibration     2          0.600              1.963              3.921
 Vibration     3          0.610              1.928              3.021
 Vibration     4          0.644              1.821              2.020
 Vibration     5          0.646              1.813              1.974
 Vibration     6          0.659              1.774              1.780
 Vibration     7          0.671              1.736              1.626
 Vibration     8          0.673              1.732              1.609
 Vibration     9          0.716              1.606              1.237
 Vibration    10          0.726              1.579              1.175
 Vibration    11          0.776              1.445              0.921
 Vibration    12          0.790              1.407              0.862
 Vibration    13          0.837              1.293              0.708
 Vibration    14          0.843              1.278              0.691
 Vibration    15          0.845              1.273              0.685
 Vibration    16          0.866              1.227              0.632
 Vibration    17          0.900              1.151              0.555
 Vibration    18          0.905              1.141              0.545
 Vibration    19          0.920              1.108              0.515
 Vibration    20          0.949              1.049              0.464
 Vibration    21          0.955              1.038              0.455
 Vibration    22          0.960              1.028              0.446

 Optimization completed.
    -- Stationary point found.
 Normal termination of Gaussian 16 at Sat Jan  6 04:55:25 2024.
