 Gaussian 16, Revision A.03,
 Gaussian 16:  ES64L-G16RevA.03 25-Dec-2016

 --------------------------------------
 #P UB3LYP/6-311++G(d,p) nosym opt freq
 --------------------------------------

 --------
 Oxidized
 --------
 Symbolic Z-matrix:
 Charge =  0 Multiplicity = 1

 SCF Done:  E(UB3LYP) =  -649.817183680     A.U. after   16 cycles
 SCF Done:  E(UB3LYP) =  -649.841371743     A.U. after   14 cycles
 SCF Done:  E(UB3LYP) =  -649.847098050     A.U. after   15 cycles
 SCF Done:  E(UB3LYP) =  -649.849340808     A.U. after   14 cycles
 SCF Done:  E(UB3LYP) =  -649.849549137     A.U. after   13 cycles
 SCF Done:  E(UB3LYP) =  -649.849661343     A.U. after   12 cycles
 SCF Done:  E(UB3LYP) =  -649.849751404     A.U. after   12 cycles
 SCF Done:  E(UB3LYP) =  -649.849792059     A.U. after   11 cycles
 SCF Done:  E(UB3LYP) =  -649.849808815     A.U. after   11 cycles
 SCF Done:  E(UB3LYP) =  -649.849825569     A.U. after   12 cycles
 SCF Done:  E(UB3LYP) =  -649.849826499     A.U. after    9 cycles
 SCF Done:  E(UB3LYP) =  -649.849826881     A.U. after   10 cycles
 Optimization completed.
    -- Stationary point found.
 Normal termination of Gaussian 16 at Thu Dec 28 20:26:36 2023.

 ----------------------------------------------------------------------
 #P Geom=AllCheck Guess=TCheck SCRF=Check GenChk UB3LYP/6-311++G(d,p) F
 req
 ----------------------------------------------------------------------

 Structure from the checkpoint file:  "307.chk"
 --------
 Oxidized
 --------
 Charge =  0 Multiplicity = 1

                          Input orientation:
 ---------------------------------------------------------------------
 Center     Atomic      Atomic             Coordinates (Angstroms)
 Number     Number       Type             X           Y           Z
 ---------------------------------------------------------------------
      1          6           0       -3.419976   -0.728922   -0.382323
      2          6           0       -2.032597   -0.264457   -0.065178
      3          6           0       -1.758468    0.698035    0.835278
      4          6           0       -0.393203    1.150783    1.143433
      5          8           0       -0.215980    2.043537    1.985769
      6          6           0        0.725965    0.523861    0.436048
      7          6           0        2.053827    0.927167    0.701014
      8          8           0        2.349285    1.881550    1.591857
      9          6           0        3.112236    0.311817    0.010957
     10          6           0        2.852204   -0.679850   -0.919040
     11          6           0        1.540472   -1.088862   -1.191137
     12          6           0        0.484690   -0.490738   -0.517818
     13          6           0       -0.912598   -0.928124   -0.809419
     14          8           0       -1.156556   -1.799982   -1.627287
     15          1           0       -4.160585   -0.188478    0.207913
     16          1           0       -3.517927   -1.800796   -0.189569
     17          1           0       -3.635781   -0.590506   -1.445329
     18          1           0       -2.544702    1.198962    1.390939
     19          1           0        1.497709    2.199353    1.976567
     20          1           0        4.122858    0.635289    0.228587
     21          1           0        3.678215   -1.146086   -1.444079
     22          1           0        1.330911   -1.863555   -1.917182
 ---------------------------------------------------------------------

 SCF Done:  E(UB3LYP) =  -649.849826881     A.U. after    2 cycles

 Alpha  occ. eigenvalues --  -19.16432 -19.14352 -19.13776 -10.29071 -10.28654
 Alpha  occ. eigenvalues --  -10.27122 -10.22887 -10.21536 -10.21253 -10.21051
 Alpha  occ. eigenvalues --  -10.20909 -10.20136 -10.19964 -10.18911  -1.09314
 Alpha  occ. eigenvalues --   -1.07055  -1.06375  -0.89434  -0.85529  -0.79720
 Alpha  occ. eigenvalues --   -0.77662  -0.73929  -0.69660  -0.66361  -0.63264
 Alpha  occ. eigenvalues --   -0.61030  -0.55379  -0.54559  -0.53771  -0.49946
 Alpha  occ. eigenvalues --   -0.48673  -0.47358  -0.47085  -0.46439  -0.44554
 Alpha  occ. eigenvalues --   -0.43927  -0.42791  -0.41637  -0.41293  -0.41268
 Alpha  occ. eigenvalues --   -0.40797  -0.39370  -0.38149  -0.36073  -0.30686
 Alpha  occ. eigenvalues --   -0.29576  -0.28760  -0.28033  -0.25458
 Alpha virt. eigenvalues --   -0.13203  -0.05317  -0.04043  -0.01143  -0.00418
 Alpha virt. eigenvalues --    0.01119   0.01579   0.02143   0.02180   0.02886
 Alpha virt. eigenvalues --    0.03884   0.04624   0.04834   0.04894   0.05675

  Beta  occ. eigenvalues --  -19.16432 -19.14352 -19.13776 -10.29071 -10.28654
  Beta  occ. eigenvalues --  -10.27122 -10.22887 -10.21536 -10.21253 -10.21051
  Beta  occ. eigenvalues --  -10.20909 -10.20136 -10.19964 -10.18911  -1.09314
  Beta  occ. eigenvalues --   -1.07055  -1.06375  -0.89434  -0.85529  -0.79720
  Beta  occ. eigenvalues --   -0.77662  -0.73929  -0.69660  -0.66361  -0.63264
  Beta  occ. eigenvalues --   -0.61030  -0.55379  -0.54559  -0.53771  -0.49946
  Beta  occ. eigenvalues --   -0.48673  -0.47358  -0.47085  -0.46439  -0.44554
  Beta  occ. eigenvalues --   -0.43927  -0.42791  -0.41637  -0.41293  -0.41268
  Beta  occ. eigenvalues --   -0.40797  -0.39370  -0.38149  -0.36073  -0.30686
  Beta  occ. eigenvalues --   -0.29576  -0.28760  -0.28033  -0.25458
  Beta virt. eigenvalues --   -0.13203  -0.05317  -0.04043  -0.01143  -0.00418
  Beta virt. eigenvalues --    0.01119   0.01579   0.02143   0.02180   0.02886
  Beta virt. eigenvalues --    0.03884   0.04624   0.04834   0.04894   0.05675

 Mulliken charges and spin densities:
               1          2
     1  C   -0.266346  -0.000000
     2  C    0.650943   0.000000
     3  C   -0.327793   0.000000
     4  C   -0.992722  -0.000000
     5  O   -0.290931   0.000000
     6  C    0.908340   0.000000
     7  C   -0.309453   0.000000
     8  O   -0.273285  -0.000000
     9  C    0.020436  -0.000000
    10  C   -0.327560   0.000000
    11  C   -0.058958   0.000000
    12  C    0.386167  -0.000000
    13  C   -0.528761  -0.000000
    14  O   -0.212995   0.000000
    15  H    0.157837   0.000000
    16  H    0.188655  -0.000000
    17  H    0.188665  -0.000000
    18  H    0.187172  -0.000000
    19  H    0.335805   0.000000
    20  H    0.196289  -0.000000
    21  H    0.187419   0.000000
    22  H    0.181073  -0.000000
 Sum of Mulliken charges =  -0.00000  -0.00000

 Dipole moment (field-independent basis, Debye):
    X=             -0.4845    Y=             -0.7373    Z=             -0.6599  Tot=              1.1017
 Quadrupole moment (field-independent basis, Debye-Ang):
   XX=            -69.0115   YY=            -88.4697   ZZ=            -87.0082
   XY=             -4.8429   XZ=             -5.8467   YZ=             -6.0485

  Exact polarizability: 184.945  11.524 122.453   0.493  48.577 117.568
 Approx polarizability: 277.541  22.852 228.323   6.641 109.785 217.082

                      1                      2                      3
                      A                      A                      A
 Frequencies --     61.0629                99.7188               137.6559
 Red. masses --      5.7588                 5.9297                 1.1851
 Frc consts  --      0.0127                 0.0347                 0.0132
 IR Inten    --      6.4680                 0.2994                 0.2096

                      4                      5                      6
                      A                      A                      A
 Frequencies --    167.9060               196.7910               250.5719
 Red. masses --      4.9630                 3.3829                 3.8089
 Frc consts  --      0.0824                 0.0772                 0.1409
 IR Inten    --      0.4867                 0.0925                 0.0335

                      7                      8                      9
                      A                      A                      A
 Frequencies --    251.1610               312.9269               355.3371
 Red. masses --      5.1325                 4.4665                 3.9700
 Frc consts  --      0.1908                 0.2577                 0.2953
 IR Inten    --      0.0137                 1.8166                 0.0680

                     10                     11                     12
                      A                      A                      A
 Frequencies --    367.9290               411.6349               437.8052
 Red. masses --      7.3671                 9.7935                 8.5407
 Frc consts  --      0.5876                 0.9777                 0.9645
 IR Inten    --      3.1066                16.3004                13.8498

                     13                     14                     15
                      A                      A                      A
 Frequencies --    462.0215               473.5663               511.9484
 Red. masses --      4.0001                 6.2728                 7.2859
 Frc consts  --      0.5031                 0.8288                 1.1251
 IR Inten    --      0.0206                 8.6750                 1.6771

                     16                     17                     18
                      A                      A                      A
 Frequencies --    550.5151               602.4912               666.2542
 Red. masses --      4.6336                 7.6321                 4.2432
 Frc consts  --      0.8274                 1.6323                 1.1097
 IR Inten    --      3.3184                11.1214                 1.0585

                     19                     20                     21
                      A                      A                      A
 Frequencies --    668.3350               689.7696               718.2270
 Red. masses --      3.5903                 5.9383                 3.7558
 Frc consts  --      0.9449                 1.6646                 1.1415
 IR Inten    --      2.9124                11.1360                 0.3601

                     22                     23                     24
                      A                      A                      A
 Frequencies --    757.9968               798.4306               798.7685
 Red. masses --      4.0057                 1.2915                 4.7117
 Frc consts  --      1.3560                 0.4851                 1.7712
 IR Inten    --     22.7013               136.8718                 0.8675

                     25                     26                     27
                      A                      A                      A
 Frequencies --    823.4239               909.8417               914.8149
 Red. masses --      1.3111                 1.4454                 6.8255
 Frc consts  --      0.5238                 0.7049                 3.3655
 IR Inten    --      0.0569                16.9760                20.1906

                     28                     29                     30
                      A                      A                      A
 Frequencies --    933.9772              1002.5248              1002.9817
 Red. masses --      1.4352                 2.4981                 1.3157
 Frc consts  --      0.7376                 1.4793                 0.7798
 IR Inten    --      1.2077                19.6898                 0.2013

                     31                     32                     33
                      A                      A                      A
 Frequencies --   1045.0006              1056.6846              1072.5424
 Red. masses --      2.5154                 1.5330                 2.3950
 Frc consts  --      1.6184                 1.0085                 1.6232
 IR Inten    --     13.3466                 2.8450                 7.7584

                     34                     35                     36
                      A                      A                      A
 Frequencies --   1131.6701              1182.7508              1206.7480
 Red. masses --      2.0543                 1.3059                 2.1610
 Frc consts  --      1.5501                 1.0763                 1.8541
 IR Inten    --      1.8270                15.6497                16.5333

                     37                     38                     39
                      A                      A                      A
 Frequencies --   1255.9651              1278.4676              1337.7231
 Red. masses --      1.8773                 3.2830                 3.2006
 Frc consts  --      1.7448                 3.1615                 3.3745
 IR Inten    --     79.6402               342.4477                26.0739

                     40                     41                     42
                      A                      A                      A
 Frequencies --   1365.6515              1387.6111              1401.0270
 Red. masses --      2.5525                 5.5956                 2.7825
 Frc consts  --      2.8048                 6.3479                 3.2179
 IR Inten    --     58.4111                74.7192                92.0491

                     43                     44                     45
                      A                      A                      A
 Frequencies --   1416.1609              1466.1184              1477.9024
 Red. masses --      1.3316                 1.0433                 1.0785
 Frc consts  --      1.5735                 1.3213                 1.3879
 IR Inten    --     11.3482                 9.1355                18.1898

                     46                     47                     48
                      A                      A                      A
 Frequencies --   1485.4788              1507.8865              1610.4683
 Red. masses --      2.5691                 2.7962                 4.0786
 Frc consts  --      3.3401                 3.7459                 6.2326
 IR Inten    --     81.4308                92.9547                44.1398

                     49                     50                     51
                      A                      A                      A
 Frequencies --   1630.0439              1655.4028              1690.8263
 Red. masses --      6.0610                 8.1382                 7.3631
 Frc consts  --      9.4885                13.1398                12.4025
 IR Inten    --      4.1588               184.7695               308.7347

                     52                     53                     54
                      A                      A                      A
 Frequencies --   1720.7596              3037.2118              3088.0454
 Red. masses --     11.3879                 1.0357                 1.0985
 Frc consts  --     19.8671                 5.6291                 6.1721
 IR Inten    --    135.9329                 7.7642                 5.1088

                     55                     56                     57
                      A                      A                      A
 Frequencies --   3123.3160              3172.1132              3176.1777
 Red. masses --      1.1034                 1.0917                 1.0883
 Frc consts  --      6.3421                 6.4723                 6.4685
 IR Inten    --     12.5851                 6.0229                 6.8557

                     58                     59                     60
                      A                      A                      A
 Frequencies --   3197.5875              3207.6339              3356.5580
 Red. masses --      1.0933                 1.0935                 1.0679
 Frc consts  --      6.5860                 6.6291                 7.0887
 IR Inten    --      2.8027                 2.4087               204.2003

 - Thermochemistry -
 -------------------
 Temperature   298.150 Kelvin.  Pressure   1.00000 Atm.
 Atom     1 has atomic number  6 and mass  12.00000

 Molecular mass:   188.04734 amu.
 Principal axes and moments of inertia in atomic units:
                           1         2         3
     Eigenvalues --  1587.581892779.186644355.77076
           X            0.92688  -0.36936   0.06685
           Y            0.30979   0.65216  -0.69190
           Z            0.21197   0.66201   0.71889
 This molecule is an asymmetric top.
 Rotational symmetry number  1.
 Warning -- assumption of classical behavior for rotation
           may cause significant error
 Rotational temperatures (Kelvin)      0.05456     0.03117     0.01988
 Rotational constants (GHZ):           1.13679     0.64938     0.41433
 Zero-point vibrational energy     431121.7 (Joules/Mol)
                                  103.04056 (Kcal/Mol)
 Warning -- explicit consideration of  17 degrees of freedom as
           vibrations may cause significant error
 Vibrational temperatures:     87.86   143.47   198.06   241.58   283.14
          (Kelvin)            360.52   361.36   450.23   511.25   529.37
                              592.25   629.90   664.75   681.36   736.58
                              792.07   866.85   958.59   961.59   992.42
                             1033.37  1090.59  1148.76  1149.25  1184.72
                             1309.06  1316.21  1343.78  1442.41  1443.07
                             1503.52  1520.33  1543.15  1628.22  1701.71
                             1736.24  1807.05  1839.43  1924.69  1964.87
                             1996.46  2015.77  2037.54  2109.42  2126.37
                             2137.27  2169.51  2317.10  2345.27  2381.76
                             2432.72  2475.79  4369.87  4443.01  4493.76
                             4563.96  4569.81  4600.62  4615.07  4829.34

 Zero-point correction=                           0.164206 (Hartree/Particle)
 Thermal correction to Energy=                    0.175399
 Thermal correction to Enthalpy=                  0.176343
 Thermal correction to Gibbs Free Energy=         0.127176
 Sum of electronic and zero-point Energies=           -649.685621
 Sum of electronic and thermal Energies=              -649.674428
 Sum of electronic and thermal Enthalpies=            -649.673484
 Sum of electronic and thermal Free Energies=         -649.722651

                     E (Thermal)             CV                S
                      KCal/Mol        Cal/Mol-Kelvin    Cal/Mol-Kelvin
 Total                  110.064             43.957            103.481
 Electronic               0.000              0.000              0.000
 Translational            0.889              2.981             41.600
 Rotational               0.889              2.981             31.331
 Vibrational            108.287             37.995             30.550
 Vibration     1          0.597              1.973              4.423
 Vibration     2          0.604              1.949              3.460
 Vibration     3          0.614              1.916              2.836
 Vibration     4          0.625              1.882              2.459
 Vibration     5          0.636              1.844              2.163
 Vibration     6          0.663              1.762              1.727
 Vibration     7          0.663              1.761              1.722
 Vibration     8          0.701              1.649              1.347
 Vibration     9          0.731              1.564              1.142
 Vibration    10          0.741              1.538              1.088
 Vibration    11          0.776              1.445              0.921
 Vibration    12          0.798              1.388              0.834
 Vibration    13          0.820              1.334              0.760
 Vibration    14          0.830              1.309              0.728
 Vibration    15          0.867              1.224              0.629
 Vibration    16          0.906              1.139              0.543
 Vibration    17          0.961              1.027              0.445

                           ! Non-Optimized Parameters !
 Normal termination of Gaussian 16 at Thu Dec 28 20:53:10 2023.
