 Q-Chem 5.4, Q-Chem, Inc., Pleasanton, CA (2021)
 Q-Chem 5.4.0 for Intel X86 EM64T Linux

User input:
--------------------------------------------------------------
$molecule
-1 2
C                 -3.2307640000      0.0618690000      1.0038740000
C                 -1.8858730000     -0.0063220000      0.3298250000
C                 -1.7712110000     -0.2279180000     -1.0289040000
C                 -0.5235900000     -0.3048890000     -1.7369480000
O                 -0.4563650000     -0.5088930000     -2.9799420000
C                  0.6853970000     -0.1288870000     -0.9114650000
C                  1.9592600000     -0.1866790000     -1.5087800000
C                  3.1091890000     -0.0247270000     -0.7560820000
C                  3.0125420000      0.2020910000      0.6312730000
C                  1.7698180000      0.2622610000      1.2365440000
C                  0.5865320000      0.0999190000      0.4879430000
C                 -0.7188090000      0.1701850000      1.1659750000
O                 -0.8105230000      0.3731730000      2.4090660000
H                 -4.0400410000     -0.0838530000      0.2827040000
H                 -3.3148930000     -0.6970490000      1.7895300000
H                 -3.3706530000      1.0266100000      1.5038530000
H                 -2.6654740000     -0.3573190000     -1.6344270000
H                  2.0007000000     -0.3625580000     -2.5780170000
H                  4.0845250000     -0.0720960000     -1.2321370000
H                  3.9139200000      0.3295230000      1.2242430000
H                  1.6663110000      0.4355570000      2.3018670000
$end

$rem
BASIS  =  6-311++G(d,p)
GUI  =  2
JOB_TYPE  =  SP
METHOD  =  B3LYP
SCF_CONVERGENCE  = 8
SOLVENT_METHOD = sm12
$end

$smx
solvent dimethylformamide
charges CM5
$end

--------------------------------------------------------------

             Standard Nuclear Orientation (Angstroms)
    I     Atom           X                Y                Z
 ----------------------------------------------------------------
    1      C      -3.2307640000     0.0618690000     1.0038740000
    2      C      -1.8858730000    -0.0063220000     0.3298250000
    3      C      -1.7712110000    -0.2279180000    -1.0289040000
    4      C      -0.5235900000    -0.3048890000    -1.7369480000
    5      O      -0.4563650000    -0.5088930000    -2.9799420000
    6      C       0.6853970000    -0.1288870000    -0.9114650000
    7      C       1.9592600000    -0.1866790000    -1.5087800000
    8      C       3.1091890000    -0.0247270000    -0.7560820000
    9      C       3.0125420000     0.2020910000     0.6312730000
   10      C       1.7698180000     0.2622610000     1.2365440000
   11      C       0.5865320000     0.0999190000     0.4879430000
   12      C      -0.7188090000     0.1701850000     1.1659750000
   13      O      -0.8105230000     0.3731730000     2.4090660000
   14      H      -4.0400410000    -0.0838530000     0.2827040000
   15      H      -3.3148930000    -0.6970490000     1.7895300000
   16      H      -3.3706530000     1.0266100000     1.5038530000
   17      H      -2.6654740000    -0.3573190000    -1.6344270000
   18      H       2.0007000000    -0.3625580000    -2.5780170000
   19      H       4.0845250000    -0.0720960000    -1.2321370000
   20      H       3.9139200000     0.3295230000     1.2242430000
   21      H       1.6663110000     0.4355570000     2.3018670000
 ----------------------------------------------------------------

   17    -574.6581204919      6.93e-09  Convergence criterion met
 Total energy in the final basis set =     -574.7455300887

                    Orbital Energies (a.u.)
 --------------------------------------------------------------

 Alpha MOs
 -- Occupied --
-19.0783 -19.0773 -10.2246 -10.2227 -10.1850 -10.1844 -10.1818 -10.1813
-10.1808 -10.1805 -10.1792 -10.1681 -10.1665  -1.0013  -0.9987  -0.8661
 -0.8183  -0.7630  -0.7593  -0.7080  -0.6669  -0.6245  -0.6029  -0.5644
 -0.5166  -0.5043  -0.4722  -0.4574  -0.4359  -0.4339  -0.4266  -0.4147
 -0.4032  -0.3976  -0.3901  -0.3782  -0.3749  -0.3552  -0.3548  -0.3455
 -0.2770  -0.2659  -0.2572  -0.2452  -0.2382  -0.1564

 Beta MOs
 -- Occupied --
-19.0716 -19.0708 -10.2234 -10.2213 -10.1847 -10.1841 -10.1813 -10.1811
-10.1805 -10.1803 -10.1775 -10.1682 -10.1653  -0.9899  -0.9871  -0.8642
 -0.8133  -0.7610  -0.7576  -0.7044  -0.6599  -0.6227  -0.6001  -0.5618
 -0.5146  -0.5016  -0.4696  -0.4561  -0.4355  -0.4249  -0.4243  -0.4098
 -0.3965  -0.3943  -0.3881  -0.3766  -0.3532  -0.3516  -0.3437  -0.3426
 -0.2594  -0.2527  -0.2458  -0.2389  -0.2321

          Ground-State Mulliken Net Atomic Charges

     Atom                 Charge (a.u.)    Spin (a.u.)
  --------------------------------------------------------
      1 C                     0.848231       0.005646
      2 C                     0.332013       0.092809
      3 C                    -0.573281       0.101754
      4 C                    -1.694502       0.055908
      5 O                    -0.354197       0.238974
      6 C                    -0.856644       0.059638
      7 C                     0.032290       0.016873
      8 C                     0.991848       0.030437
      9 C                     1.042921       0.018788
     10 C                     0.102868       0.036459
     11 C                    -0.953993       0.002060
     12 C                    -1.444882       0.095892
     13 O                    -0.312511       0.252122
     14 H                     0.266166      -0.000067
     15 H                     0.194865       0.005665
     16 H                     0.194884       0.005693
     17 H                     0.125337      -0.009661
     18 H                     0.155470      -0.002286
     19 H                     0.371024      -0.002356
     20 H                     0.374320      -0.001734
     21 H                     0.157773      -0.002615
  --------------------------------------------------------
  Sum of atomic charges =    -1.000000

                    Cartesian Multipole Moments
 -----------------------------------------------------------------
    Charge (ESU x 10^10)
                -4.8032
    Dipole Moment (Debye)
         X       2.1389      Y       0.3595      Z       1.7501
       Tot       2.7869
    Quadrupole Moments (Debye-Ang)
        XX     -80.3249     XY       0.2095     YY     -83.1055
        XZ       0.9063     YZ      -5.1944     ZZ    -113.7808

 Total job time:  329.63s(wall), 2551.06s(cpu)
        *  Thank you very much for using Q-Chem.  Have a nice day.  *
