 Q-Chem 5.4, Q-Chem, Inc., Pleasanton, CA (2021)
 Q-Chem 5.4.0 for Intel X86 EM64T Linux

User input:
--------------------------------------------------------------
$molecule
-1 2
C                 -1.8580460000      3.4852600000     -0.9492790000
C                 -2.9662840000      2.9043930000     -0.3678310000
C                 -0.6275710000      2.8007620000     -1.0207650000
C                 -0.5276360000      1.4889560000     -0.4841730000
C                 -2.8857310000      1.6115470000      0.1664390000
C                 -1.6798140000      0.9299250000      0.1010350000
C                  0.5057380000      3.5010470000     -1.6609870000
C                  1.7969210000      2.7877430000     -1.7379250000
C                  1.8625130000      1.4249530000     -1.1694700000
C                  0.7511090000      0.7823740000     -0.5606280000
C                  3.0966710000      0.7475970000     -1.2453480000
C                  3.2444480000     -0.5274280000     -0.7392570000
C                  2.1590770000     -1.1761460000     -0.1354860000
C                  0.9408760000     -0.5182930000     -0.0559350000
O                  0.3583690000      4.6571460000     -2.1159510000
O                  2.8093300000      3.3031200000     -2.2620370000
O                  4.4451130000     -1.2153120000     -0.8007080000
O                 -4.1865930000      3.5543630000     -0.2844220000
H                 -1.8892650000      4.4858040000     -1.3719150000
H                 -3.7618270000      1.1637180000      0.6212240000
H                 -1.6404230000     -0.0685380000      0.5205340000
H                  3.9193130000      1.2764260000     -1.7189310000
H                  2.2850120000     -2.1778120000      0.2591450000
H                  0.1153180000     -1.0389710000      0.4150270000
H                  5.0878530000     -0.6471790000     -1.2377210000
H                 -4.0861830000      4.4221440000     -0.6890770000
$end

$rem
BASIS  =  6-311++G(d,p)
GUI  =  2
JOB_TYPE  =  SP
METHOD  =  B3LYP
SCF_CONVERGENCE  = 8
SOLVENT_METHOD = sm12
$end

$smx
solvent dimethylformamide
charges CM5
$end

--------------------------------------------------------------

             Standard Nuclear Orientation (Angstroms)
    I     Atom           X                Y                Z
 ----------------------------------------------------------------
    1      C      -1.8580460000     3.4852600000    -0.9492790000
    2      C      -2.9662840000     2.9043930000    -0.3678310000
    3      C      -0.6275710000     2.8007620000    -1.0207650000
    4      C      -0.5276360000     1.4889560000    -0.4841730000
    5      C      -2.8857310000     1.6115470000     0.1664390000
    6      C      -1.6798140000     0.9299250000     0.1010350000
    7      C       0.5057380000     3.5010470000    -1.6609870000
    8      C       1.7969210000     2.7877430000    -1.7379250000
    9      C       1.8625130000     1.4249530000    -1.1694700000
   10      C       0.7511090000     0.7823740000    -0.5606280000
   11      C       3.0966710000     0.7475970000    -1.2453480000
   12      C       3.2444480000    -0.5274280000    -0.7392570000
   13      C       2.1590770000    -1.1761460000    -0.1354860000
   14      C       0.9408760000    -0.5182930000    -0.0559350000
   15      O       0.3583690000     4.6571460000    -2.1159510000
   16      O       2.8093300000     3.3031200000    -2.2620370000
   17      O       4.4451130000    -1.2153120000    -0.8007080000
   18      O      -4.1865930000     3.5543630000    -0.2844220000
   19      H      -1.8892650000     4.4858040000    -1.3719150000
   20      H      -3.7618270000     1.1637180000     0.6212240000
   21      H      -1.6404230000    -0.0685380000     0.5205340000
   22      H       3.9193130000     1.2764260000    -1.7189310000
   23      H       2.2850120000    -2.1778120000     0.2591450000
   24      H       0.1153180000    -1.0389710000     0.4150270000
   25      H       5.0878530000    -0.6471790000    -1.2377210000
   26      H      -4.0861830000     4.4221440000    -0.6890770000
 ----------------------------------------------------------------

   16    -839.5017775727      6.24e-09  Convergence criterion met
 Total energy in the final basis set =     -839.6004525512

                    Orbital Energies (a.u.)
 --------------------------------------------------------------

 Alpha MOs
 -- Occupied --
-19.1601 -19.1600 -19.0735 -19.0734 -10.2401 -10.2401 -10.2158 -10.2155
-10.1882 -10.1879 -10.1859 -10.1859 -10.1816 -10.1816 -10.1805 -10.1805
-10.1739 -10.1739  -1.0662  -1.0662  -1.0108  -0.9844  -0.8780  -0.8528
 -0.7897  -0.7708  -0.7574  -0.7229  -0.6926  -0.6449  -0.6265  -0.6009
 -0.5995  -0.5594  -0.5500  -0.5232  -0.4902  -0.4870  -0.4646  -0.4606
 -0.4454  -0.4401  -0.4324  -0.4185  -0.4165  -0.4155  -0.4039  -0.4027
 -0.3991  -0.3827  -0.3675  -0.3642  -0.3573  -0.3542  -0.3416  -0.3220
 -0.2697  -0.2663  -0.2615  -0.2540  -0.2228  -0.2114  -0.1534

 Beta MOs
 -- Occupied --
-19.1601 -19.1601 -19.0668 -19.0668 -10.2403 -10.2403 -10.2142 -10.2139
-10.1875 -10.1872 -10.1863 -10.1863 -10.1816 -10.1816 -10.1797 -10.1797
-10.1731 -10.1731  -1.0663  -1.0662  -0.9994  -0.9721  -0.8764  -0.8518
 -0.7871  -0.7686  -0.7557  -0.7223  -0.6851  -0.6440  -0.6244  -0.5980
 -0.5971  -0.5587  -0.5496  -0.5221  -0.4866  -0.4859  -0.4640  -0.4586
 -0.4451  -0.4392  -0.4257  -0.4180  -0.4154  -0.4125  -0.3989  -0.3944
 -0.3921  -0.3824  -0.3667  -0.3560  -0.3527  -0.3425  -0.3402  -0.3048
 -0.2629  -0.2590  -0.2504  -0.2474  -0.2167  -0.2075

          Ground-State Mulliken Net Atomic Charges

     Atom                 Charge (a.u.)    Spin (a.u.)
  --------------------------------------------------------
      1 C                    -0.171585       0.088044
      2 C                     0.903758      -0.021535
      3 C                    -0.034600       0.009060
      4 C                    -0.797215       0.035366
      5 C                     0.948529       0.066887
      6 C                     0.007242      -0.027749
      7 C                    -1.899407       0.105081
      8 C                    -1.902514       0.105119
      9 C                    -0.032529       0.009022
     10 C                    -0.798209       0.035599
     11 C                    -0.175120       0.088056
     12 C                     0.903276      -0.021508
     13 C                     0.948413       0.066977
     14 C                     0.005883      -0.027810
     15 O                    -0.351305       0.255148
     16 O                    -0.350765       0.255181
     17 O                    -0.153825       0.000086
     18 O                    -0.153831       0.000085
     19 H                     0.120114      -0.008002
     20 H                     0.346444      -0.004727
     21 H                     0.249219       0.002154
     22 H                     0.120379      -0.008010
     23 H                     0.346792      -0.004729
     24 H                     0.248660       0.002155
     25 H                     0.336089       0.000024
     26 H                     0.336108       0.000026
  --------------------------------------------------------
  Sum of atomic charges =    -1.000000

                    Cartesian Multipole Moments
 -----------------------------------------------------------------
    Charge (ESU x 10^10)
                -4.8032
    Dipole Moment (Debye)
         X      -5.3921      Y     -14.8355      Z       8.0063
       Tot      17.6994
    Quadrupole Moments (Debye-Ang)
        XX    -126.4217     XY     -17.3799     YY    -167.8443
        XZ      12.1745     YZ      29.8186     ZZ    -127.1940

 Total job time:  571.20s(wall), 4385.30s(cpu)
        *  Thank you very much for using Q-Chem.  Have a nice day.  *
