 Q-Chem 5.4, Q-Chem, Inc., Pleasanton, CA (2021)
 Q-Chem 5.4.0 for Intel X86 EM64T Linux

User input:
--------------------------------------------------------------
$molecule
-2 1
C                 -1.2517340000      2.8555330000      0.2604250000
C                 -2.5893440000      2.4779280000      0.1724600000
C                 -2.9445290000      1.1339150000     -0.0800800000
C                 -0.1876550000      1.9257370000      0.1033800000
C                 -0.5789610000      0.5493530000     -0.1836210000
C                 -1.9575340000      0.1863930000     -0.2299740000
C                  1.2349390000      2.2984180000      0.1757860000
C                  2.1225230000      1.2228500000     -0.1359350000
C                  1.7238980000     -0.0795960000     -0.4521810000
C                  0.3714990000     -0.4852020000     -0.4972160000
O                  1.6647210000      3.4656670000      0.4841070000
O                 -0.0336620000     -1.6840730000     -0.8144690000
O                 -0.9760990000      4.1900580000      0.5011670000
H                 -3.9914920000      0.8464870000     -0.1264460000
H                  2.4762060000     -0.8328970000     -0.6884290000
C                 -2.3578730000     -1.2430470000     -0.4057010000
O                 -3.0082700000     -1.6982690000     -1.3310120000
O                 -2.2114320000     -1.9549560000      0.7722420000
C                 -2.1688500000     -3.3645870000      0.6003080000
H                 -3.3639650000      3.2288010000      0.3295140000
H                  3.1832210000      1.4710750000     -0.1107160000
H                 -1.8184910000      4.6512720000      0.4082430000
H                 -2.0277610000     -3.7891390000      1.5982830000
H                 -1.3175140000     -3.6096430000     -0.0410770000
H                 -3.0962910000     -3.7482210000      0.1595320000
$end
$rem
MAX_SCF_CYCLES=200
BASIS  =  6-311++G(d,p)
GUI  =  2
JOB_TYPE  =  SP
METHOD  =  B3LYP
SOLVENT_METHOD = COSMO
$end
$solvent
dielectric 37.219
opticaldielectric 1.43
$end

--------------------------------------------------------------

             Standard Nuclear Orientation (Angstroms)
    I     Atom           X                Y                Z
 ----------------------------------------------------------------
    1      C       1.9282306965     1.4303878027     0.0663638984
    2      C       0.9968970255     2.4605973495    -0.0376061572
    3      C      -0.3803916432     2.1769645153    -0.1752001921
    4      C       1.5514264164     0.0597059857     0.0399490737
    5      C       0.1269324039    -0.2081871781    -0.1302653090
    6      C      -0.8064186138     0.8683390668    -0.1958335974
    7      C       2.5145826249    -1.0501235069     0.1322315790
    8      C       1.9191674346    -2.3374672473    -0.0411140489
    9      C       0.5557130338    -2.5689524431    -0.2477192449
   10      C      -0.4042710206    -1.5343246004    -0.3069077238
   11      O       3.7700377296    -0.9058736133     0.3449969024
   12      O      -1.6778625929    -1.7150815051    -0.5245956313
   13      O       3.2613031428     1.7804124069     0.1900124681
   14      H      -1.1005416423     2.9885716556    -0.2349832435
   15      H       0.1948196807    -3.5892503360    -0.3818499217
   16      C      -2.2748244494     0.5940654037    -0.2506812677
   17      O      -3.0312219028     0.9094940946    -1.1533503140
   18      O      -2.7680713132     0.2440254377     0.9943041360
   19      C      -4.0240935202    -0.4189769449     0.9586651226
   20      H       1.3404219106     3.4938016319     0.0171065353
   21      H       2.6087782426    -3.1800344703     0.0018894874
   22      H       3.2985132607     2.7296185414     0.0208952703
   23      H      -4.2745002140    -0.6533326061     1.9971633263
   24      H      -3.9137871691    -1.3387174385     0.3771927847
   25      H      -4.8048869068     0.2133592378     0.5203524760
 ----------------------------------------------------------------

   13    -838.4155509760      9.07e-06  Convergence criterion met
 Total energy in the final basis set =     -838.4155509760
    6    -838.7097981383      3.84e-06  Convergence criterion met
 Total energy in the final basis set =     -838.7097981383

                    Orbital Energies (a.u.)
 --------------------------------------------------------------

 Alpha MOs
 -- Occupied --
-19.1416 -19.1388 -19.0989 -19.0281 -19.0239 -10.2948 -10.2246 -10.1993
-10.1853 -10.1750 -10.1636 -10.1629 -10.1548 -10.1533 -10.1529 -10.1298
-10.1252  -1.0832  -1.0479  -1.0021  -0.9446  -0.9397  -0.8371  -0.7742
 -0.7479  -0.7164  -0.6962  -0.6519  -0.6137  -0.6006  -0.5640  -0.5441
 -0.5205  -0.4903  -0.4721  -0.4675  -0.4561  -0.4536  -0.4341  -0.4246
 -0.4072  -0.4038  -0.3916  -0.3766  -0.3705  -0.3642  -0.3618  -0.3536
 -0.3424  -0.3352  -0.3290  -0.3241  -0.3113  -0.2839  -0.2726  -0.2345
 -0.2253  -0.2180  -0.2095  -0.2006  -0.1209

          Ground-State Mulliken Net Atomic Charges

     Atom                 Charge (a.u.)
  ----------------------------------------
      1 C                    -0.002125
      2 C                    -0.133061
      3 C                    -0.311594
      4 C                     0.070631
      5 C                     0.474752
      6 C                     0.653147
      7 C                    -0.348160
      8 C                    -0.215608
      9 C                    -0.283330
     10 C                    -0.537085
     11 O                    -0.724730
     12 O                    -0.649733
     13 O                    -0.275801
     14 H                     0.191440
     15 H                     0.155128
     16 C                    -0.534175
     17 O                    -0.343830
     18 O                    -0.058004
     19 C                    -0.263291
     20 H                     0.174623
     21 H                     0.150368
     22 H                     0.308166
     23 H                     0.164860
     24 H                     0.186216
     25 H                     0.151194
  ----------------------------------------
  Sum of atomic charges =    -2.000000

                    Cartesian Multipole Moments
 -----------------------------------------------------------------
    Charge (ESU x 10^10)
                -9.6064
    Dipole Moment (Debye)
         X      -7.0121      Y       9.5363      Z       2.3329
       Tot      12.0645
    Quadrupole Moments (Debye-Ang)
        XX    -181.0043     XY      16.3796     YY    -113.3021
        XZ     -17.6595     YZ      -1.1895     ZZ    -114.7102

 Total job time:  80.08s(wall), 544.90s(cpu)
        *  Thank you very much for using Q-Chem.  Have a nice day.  *
