 Q-Chem 5.4, Q-Chem, Inc., Pleasanton, CA (2021)
 Q-Chem 5.4.0 for Intel X86 EM64T Linux

User input:
--------------------------------------------------------------
$molecule
-2 1
C                  5.7332030000     -5.3525760000      1.3219410000
C                  6.6989220000     -5.1958990000      0.3457020000
C                  6.6070450000     -4.1667920000     -0.6212270000
C                  4.6038520000     -4.4614770000      1.3728490000
C                  4.5076800000     -3.3864590000      0.3623810000
C                  5.5478640000     -3.2789290000     -0.6268410000
C                  3.5801040000     -4.6252130000      2.4061190000
C                  2.5250580000     -3.6818280000      2.3404970000
C                  2.4340780000     -2.6662360000      1.3856110000
C                  3.3848810000     -2.4474220000      0.3582360000
O                  3.6113560000     -5.5509510000      3.3216130000
O                  3.2461010000     -1.4824640000     -0.5053090000
C                  5.9316670000     -6.4900040000      2.3080350000
H                  7.5475810000     -5.8796050000      0.3217280000
H                  1.5871900000     -1.9786810000      1.4037480000
C                  5.5499280000     -2.2142710000     -1.7094470000
H                  7.3861270000     -4.0709330000     -1.3775910000
H                  6.8641760000     -7.0228040000      2.0615660000
H                  5.0937250000     -7.1897490000      2.2938690000
H                  5.9735750000     -6.1307260000      3.3380270000
H                  1.7489860000     -3.7830680000      3.1005900000
H                  5.5369580000     -1.2072440000     -1.2879060000
H                  4.6529500000     -2.2652060000     -2.3295900000
H                  6.4452460000     -2.3415340000     -2.3390610000
$end
$rem
MAX_SCF_CYCLES=200
BASIS  =  6-311++G(d,p)
GUI  =  2
JOB_TYPE  =  SP
METHOD  =  B3LYP
SOLVENT_METHOD = PCM
$end
$pcm
theory = CPCM
$end
$solvent
dielectric 37.219
opticaldielectric 1.43
$end

--------------------------------------------------------------

             Standard Nuclear Orientation (Angstroms)
    I     Atom           X                Y                Z
 ----------------------------------------------------------------
    1      C       5.7332030000    -5.3525760000     1.3219410000
    2      C       6.6989220000    -5.1958990000     0.3457020000
    3      C       6.6070450000    -4.1667920000    -0.6212270000
    4      C       4.6038520000    -4.4614770000     1.3728490000
    5      C       4.5076800000    -3.3864590000     0.3623810000
    6      C       5.5478640000    -3.2789290000    -0.6268410000
    7      C       3.5801040000    -4.6252130000     2.4061190000
    8      C       2.5250580000    -3.6818280000     2.3404970000
    9      C       2.4340780000    -2.6662360000     1.3856110000
   10      C       3.3848810000    -2.4474220000     0.3582360000
   11      O       3.6113560000    -5.5509510000     3.3216130000
   12      O       3.2461010000    -1.4824640000    -0.5053090000
   13      C       5.9316670000    -6.4900040000     2.3080350000
   14      H       7.5475810000    -5.8796050000     0.3217280000
   15      H       1.5871900000    -1.9786810000     1.4037480000
   16      C       5.5499280000    -2.2142710000    -1.7094470000
   17      H       7.3861270000    -4.0709330000    -1.3775910000
   18      H       6.8641760000    -7.0228040000     2.0615660000
   19      H       5.0937250000    -7.1897490000     2.2938690000
   20      H       5.9735750000    -6.1307260000     3.3380270000
   21      H       1.7489860000    -3.7830680000     3.1005900000
   22      H       5.5369580000    -1.2072440000    -1.2879060000
   23      H       4.6529500000    -2.2652060000    -2.3295900000
   24      H       6.4452460000    -2.3415340000    -2.3390610000
 ----------------------------------------------------------------

    9    -614.1489660878      5.37e-06  Convergence criterion met
 Total energy in the final basis set =     -614.1489660878

                    Orbital Energies (a.u.)
 --------------------------------------------------------------

 Alpha MOs
 -- Occupied --
-19.0096 -19.0096 -10.1684 -10.1683 -10.1534 -10.1533 -10.1423 -10.1420
-10.1383 -10.1379 -10.1370 -10.1369 -10.1165 -10.1160  -0.9254  -0.9220
 -0.8232  -0.7605  -0.7565  -0.6979  -0.6838  -0.6487  -0.6161  -0.5781
 -0.5649  -0.4945  -0.4683  -0.4533  -0.4385  -0.4162  -0.3984  -0.3880
 -0.3864  -0.3799  -0.3657  -0.3542  -0.3502  -0.3499  -0.3470  -0.3262
 -0.3081  -0.3075  -0.3053  -0.3024  -0.2198  -0.2138  -0.2121  -0.1885
 -0.1877  -0.1087

          Ground-State Mulliken Net Atomic Charges

     Atom                 Charge (a.u.)
  ----------------------------------------
      1 C                     0.867006
      2 C                    -0.593608
      3 C                    -0.596389
      4 C                     0.135306
      5 C                     0.132566
      6 C                     0.869422
      7 C                    -0.747552
      8 C                    -0.284102
      9 C                    -0.280597
     10 C                    -0.748698
     11 O                    -0.709979
     12 O                    -0.710724
     13 C                    -0.346874
     14 H                     0.129965
     15 H                     0.131965
     16 C                    -0.346560
     17 H                     0.130007
     18 H                     0.125659
     19 H                     0.146724
     20 H                     0.146839
     21 H                     0.131566
     22 H                     0.146193
     23 H                     0.146354
     24 H                     0.125513
  ----------------------------------------
  Sum of atomic charges =    -2.000000

                    Cartesian Multipole Moments
 -----------------------------------------------------------------
    Charge (ESU x 10^10)
                -9.6064
    Dipole Moment (Debye)
         X     -35.1039      Y      34.5657      Z     -12.4887
       Tot      50.8236
    Quadrupole Moments (Debye-Ang)
        XX    -228.6842     XY     131.2171     YY    -249.5601
        XZ     -45.2745     YZ      72.3724     ZZ    -138.5540

 Total job time:  36.81s(wall), 232.37s(cpu)
        *  Thank you very much for using Q-Chem.  Have a nice day.  *
