 Gaussian 16, Revision A.03,
 Gaussian 16:  ES64L-G16RevA.03 25-Dec-2016

 --------------------------------------
 #P UB3LYP/6-311++G(d,p) nosym opt freq
 --------------------------------------

 -------
 Reduced
 -------
 Symbolic Z-matrix:
 Charge = -2 Multiplicity = 1

 SCF Done:  E(UB3LYP) =  -613.867346314     A.U. after   50 cycles
 SCF Done:  E(UB3LYP) =  -613.867741438     A.U. after   29 cycles
 SCF Done:  E(UB3LYP) =  -613.867778204     A.U. after   30 cycles
 SCF Done:  E(UB3LYP) =  -613.867788994     A.U. after   19 cycles
 SCF Done:  E(UB3LYP) =  -613.867790789     A.U. after   22 cycles
 SCF Done:  E(UB3LYP) =  -613.867792148     A.U. after   22 cycles
 SCF Done:  E(UB3LYP) =  -613.867792763     A.U. after   21 cycles
 SCF Done:  E(UB3LYP) =  -613.867793090     A.U. after   27 cycles
 Optimization completed.
    -- Stationary point found.
 Normal termination of Gaussian 16 at Sun Jan  7 21:11:36 2024.

 ----------------------------------------------------------------------
 #P Geom=AllCheck Guess=TCheck SCRF=Check GenChk UB3LYP/6-311++G(d,p) F
 req
 ----------------------------------------------------------------------

 Structure from the checkpoint file:  "245-an.chk"
 -------
 Reduced
 -------
 Charge = -2 Multiplicity = 1

                          Input orientation:
 ---------------------------------------------------------------------
 Center     Atomic      Atomic             Coordinates (Angstroms)
 Number     Number       Type             X           Y           Z
 ---------------------------------------------------------------------
      1          6           0        5.733203   -5.352576    1.321941
      2          6           0        6.698922   -5.195899    0.345702
      3          6           0        6.607045   -4.166792   -0.621227
      4          6           0        4.603852   -4.461477    1.372849
      5          6           0        4.507680   -3.386459    0.362381
      6          6           0        5.547864   -3.278929   -0.626841
      7          6           0        3.580104   -4.625213    2.406119
      8          6           0        2.525058   -3.681828    2.340497
      9          6           0        2.434078   -2.666236    1.385611
     10          6           0        3.384881   -2.447422    0.358236
     11          8           0        3.611356   -5.550951    3.321613
     12          8           0        3.246101   -1.482464   -0.505309
     13          6           0        5.931667   -6.490004    2.308035
     14          1           0        7.547581   -5.879605    0.321728
     15          1           0        1.587190   -1.978681    1.403748
     16          6           0        5.549928   -2.214271   -1.709447
     17          1           0        7.386127   -4.070933   -1.377591
     18          1           0        6.864176   -7.022804    2.061566
     19          1           0        5.093725   -7.189749    2.293869
     20          1           0        5.973575   -6.130726    3.338027
     21          1           0        1.748986   -3.783068    3.100590
     22          1           0        5.536958   -1.207244   -1.287906
     23          1           0        4.652950   -2.265206   -2.329590
     24          1           0        6.445246   -2.341534   -2.339061
 ---------------------------------------------------------------------

 SCF Done:  E(UB3LYP) =  -613.867793090     A.U. after    1 cycles

 Alpha  occ. eigenvalues --  -18.74209 -18.74209  -9.90990  -9.90989  -9.90653
 Alpha  occ. eigenvalues --   -9.90651  -9.90629  -9.90628  -9.89736  -9.89689
 Alpha  occ. eigenvalues --   -9.88557  -9.88526  -9.86038  -9.85985  -0.65719
 Alpha  occ. eigenvalues --   -0.65306  -0.57564  -0.51525  -0.50325  -0.45421
 Alpha  occ. eigenvalues --   -0.43953  -0.39753  -0.37119  -0.32596  -0.31667
 Alpha  occ. eigenvalues --   -0.24686  -0.21968  -0.20787  -0.19351  -0.15896
 Alpha  occ. eigenvalues --   -0.15813  -0.15065  -0.14953  -0.13026  -0.12969
 Alpha  occ. eigenvalues --   -0.11231  -0.10499  -0.09008  -0.08140  -0.07942
 Alpha  occ. eigenvalues --   -0.05487  -0.05446  -0.04688  -0.03923   0.03460
 Alpha  occ. eigenvalues --    0.04233   0.04895   0.07981   0.08015   0.15665
 Alpha virt. eigenvalues --    0.17007   0.17751   0.19387   0.19945   0.20921
 Alpha virt. eigenvalues --    0.22083   0.22440   0.22490   0.22897   0.24073
 Alpha virt. eigenvalues --    0.24975   0.25726   0.26679   0.28099   0.28189

  Beta  occ. eigenvalues --  -18.74209 -18.74209  -9.90990  -9.90989  -9.90653
  Beta  occ. eigenvalues --   -9.90651  -9.90629  -9.90628  -9.89736  -9.89689
  Beta  occ. eigenvalues --   -9.88557  -9.88526  -9.86038  -9.85985  -0.65719
  Beta  occ. eigenvalues --   -0.65306  -0.57564  -0.51525  -0.50325  -0.45421
  Beta  occ. eigenvalues --   -0.43953  -0.39753  -0.37119  -0.32596  -0.31667
  Beta  occ. eigenvalues --   -0.24686  -0.21968  -0.20787  -0.19351  -0.15896
  Beta  occ. eigenvalues --   -0.15813  -0.15065  -0.14953  -0.13026  -0.12969
  Beta  occ. eigenvalues --   -0.11231  -0.10499  -0.09008  -0.08140  -0.07942
  Beta  occ. eigenvalues --   -0.05487  -0.05446  -0.04688  -0.03923   0.03460
  Beta  occ. eigenvalues --    0.04233   0.04895   0.07981   0.08015   0.15665
  Beta virt. eigenvalues --    0.17007   0.17751   0.19387   0.19945   0.20921
  Beta virt. eigenvalues --    0.22083   0.22440   0.22490   0.22897   0.24073
  Beta virt. eigenvalues --    0.24975   0.25726   0.26679   0.28099   0.28189

 Mulliken charges and spin densities:
               1          2
     1  C    1.133257   0.000000
     2  C   -0.611975  -0.000000
     3  C   -0.611819  -0.000000
     4  C    0.167843  -0.000000
     5  C    0.167970  -0.000000
     6  C    1.133142   0.000000
     7  C   -1.099977  -0.000000
     8  C   -0.025849   0.000000
     9  C   -0.025916  -0.000000
    10  C   -1.099984  -0.000000
    11  O   -0.545797   0.000000
    12  O   -0.545814  -0.000000
    13  C   -0.406479   0.000000
    14  H    0.021443  -0.000000
    15  H    0.047617   0.000000
    16  C   -0.406450   0.000000
    17  H    0.021428  -0.000000
    18  H    0.033552   0.000000
    19  H    0.142969   0.000000
    20  H    0.143349  -0.000000
    21  H    0.047613   0.000000
    22  H    0.142951   0.000000
    23  H    0.143382  -0.000000
    24  H    0.033544   0.000000
 Sum of Mulliken charges =  -2.00000  -0.00000

 Dipole moment (field-independent basis, Debye):
    X=            -38.8128    Y=             35.9051    Z=            -10.7102  Tot=             53.9473
 Quadrupole moment (field-independent basis, Debye-Ang):
   XX=           -272.4636   YY=           -263.1866   ZZ=           -139.3412
   XY=            155.1347   XZ=            -36.2402   YZ=             65.8036

  Exact polarizability: 252.871 -38.334 217.042 -41.303 -28.088 221.015
 Approx polarizability: 414.093 -94.169 317.355-103.089 -60.911 328.158

                      1                      2                      3
                      A                      A                      A
 Frequencies --     36.8634                70.9428               100.1659
 Red. masses --      4.8059                 5.3086                 2.7385
 Frc consts  --      0.0038                 0.0157                 0.0162
 IR Inten    --      0.0000                 9.3073                 3.8289

                      4                      5                      6
                      A                      A                      A
 Frequencies --    168.4477               171.1357               215.9075
 Red. masses --      1.1718                 1.0287                 4.0833
 Frc consts  --      0.0196                 0.0178                 0.1121
 IR Inten    --      6.2226                 0.0344                 0.6466

                      7                      8                      9
                      A                      A                      A
 Frequencies --    289.7059               317.1341               335.4274
 Red. masses --      6.1297                 3.4951                 6.9447
 Frc consts  --      0.3031                 0.2071                 0.4604
 IR Inten    --      2.5088                 0.0005                 0.0001

                     10                     11                     12
                      A                      A                      A
 Frequencies --    346.5101               358.5040               358.9665
 Red. masses --      2.7472                11.7339                 4.6213
 Frc consts  --      0.1943                 0.8885                 0.3508
 IR Inten    --     15.5272                 1.4811                 2.3427

                     13                     14                     15
                      A                      A                      A
 Frequencies --    451.9709               466.7737               477.8299
 Red. masses --      6.8995                 7.2660                 3.8740
 Frc consts  --      0.8304                 0.9327                 0.5211
 IR Inten    --      0.2527                 5.3468                 0.0005

                     16                     17                     18
                      A                      A                      A
 Frequencies --    483.1057               497.8111               597.1284
 Red. masses --      4.0972                 2.9054                 6.2246
 Frc consts  --      0.5634                 0.4242                 1.3077
 IR Inten    --      0.1014                28.3520                 0.7742

                     19                     20                     21
                      A                      A                      A
 Frequencies --    637.9799               652.8898               657.9545
 Red. masses --      3.7933                 3.9873                 2.5650
 Frc consts  --      0.9097                 1.0014                 0.6542
 IR Inten    --      0.0003                 0.0007                48.7889

                     22                     23                     24
                      A                      A                      A
 Frequencies --    720.9727               743.6424               757.3416
 Red. masses --      1.2252                 5.1994                 6.7656
 Frc consts  --      0.3752                 1.6941                 2.2863
 IR Inten    --    106.7733                 7.2394                80.1247

                     25                     26                     27
                      A                      A                      A
 Frequencies --    778.4700               806.9943               807.1116
 Red. masses --      2.2104                 1.9752                 2.1906
 Frc consts  --      0.7892                 0.7579                 0.8408
 IR Inten    --      0.0001                 0.2090                32.9979

                     28                     29                     30
                      A                      A                      A
 Frequencies --    861.2677               879.5863               920.5767
 Red. masses --      1.3891                 6.0703                 3.5901
 Frc consts  --      0.6071                 2.7671                 1.7926
 IR Inten    --      0.0002                63.3916                28.2337

                     31                     32                     33
                      A                      A                      A
 Frequencies --   1005.4246              1029.6305              1042.5987
 Red. masses --      1.6980                 1.4230                 1.4837
 Frc consts  --      1.0113                 0.8888                 0.9502
 IR Inten    --      1.3160                 7.0083                 2.4442

                     34                     35                     36
                      A                      A                      A
 Frequencies --   1043.2630              1085.4487              1132.5338
 Red. masses --      1.4814                 1.6701                 2.7966
 Frc consts  --      0.9500                 1.1593                 2.1134
 IR Inten    --      0.0197                 0.3466               270.7628

                     37                     38                     39
                      A                      A                      A
 Frequencies --   1136.4922              1175.2880              1206.5814
 Red. masses --      3.0930                 2.0536                 2.8119
 Frc consts  --      2.3538                 1.6713                 2.4119
 IR Inten    --     23.0302                43.2276                87.7599

                     40                     41                     42
                      A                      A                      A
 Frequencies --   1232.0881              1255.3275              1292.9844
 Red. masses --      2.3777                 5.3252                 1.7505
 Frc consts  --      2.1266                 4.9442                 1.7243
 IR Inten    --    104.6230                41.6540               201.8619

                     43                     44                     45
                      A                      A                      A
 Frequencies --   1365.9667              1369.9295              1376.1105
 Red. masses --      6.4193                 8.2745                 3.1714
 Frc consts  --      7.0569                 9.1493                 3.5385
 IR Inten    --      0.0024               756.8880                23.2131

                     46                     47                     48
                      A                      A                      A
 Frequencies --   1390.8234              1400.4053              1401.3107
 Red. masses --      2.6223                 1.2498                 1.3296
 Frc consts  --      2.9887                 1.4441                 1.5383
 IR Inten    --      4.0453                 0.9287                 5.2956

                     49                     50                     51
                      A                      A                      A
 Frequencies --   1436.9583              1442.2225              1461.1881
 Red. masses --      1.0484                 1.0488                 1.1625
 Frc consts  --      1.2755                 1.2853                 1.4624
 IR Inten    --      0.8848                 0.0005                 0.7957

                     52                     53                     54
                      A                      A                      A
 Frequencies --   1471.7161              1513.8575              1522.4533
 Red. masses --      1.1620                 4.0077                 4.8192
 Frc consts  --      1.4829                 5.4114                 6.5814
 IR Inten    --      0.0472               387.9800               136.4130

                     55                     56                     57
                      A                      A                      A
 Frequencies --   1568.9713              1603.3395              2941.3183
 Red. masses --      4.0194                 7.5762                 1.0582
 Frc consts  --      5.8297                11.4749                 5.3937
 IR Inten    --     42.6023                22.5351               173.4504

                     58                     59                     60
                      A                      A                      A
 Frequencies --   2942.6359              3065.9564              3067.5956
 Red. masses --      1.0582                 1.0810                 1.0764
 Frc consts  --      5.3986                 5.9868                 5.9679
 IR Inten    --    257.0983                27.8739                94.5532

                     61                     62                     63
                      A                      A                      A
 Frequencies --   3068.0734              3072.6718              3078.0571
 Red. masses --      1.0745                 1.0823                 1.0995
 Frc consts  --      5.9590                 6.0205                 6.1374
 IR Inten    --     22.0605                46.6831                 0.3789

                     64                     65                     66
                      A                      A                      A
 Frequencies --   3082.3232              3095.7103              3099.3900
 Red. masses --      1.0988                 1.0918                 1.0914
 Frc consts  --      6.1505                 6.1646                 6.1771
 IR Inten    --      0.0480               251.0901                71.2192

 - Thermochemistry -
 -------------------
 Temperature   298.150 Kelvin.  Pressure   1.00000 Atm.
 Atom     1 has atomic number  6 and mass  12.00000

 Molecular mass:   186.06808 amu.
 Principal axes and moments of inertia in atomic units:
                           1         2         3
     Eigenvalues --  1877.767152406.052834262.32703
           X           -0.06506   0.85738   0.51055
           Y            0.72705  -0.30971   0.61276
           Z           -0.68349  -0.41106   0.60321
 This molecule is an asymmetric top.
 Rotational symmetry number  1.
 Warning -- assumption of classical behavior for rotation
           may cause significant error
 Rotational temperatures (Kelvin)      0.04613     0.03600     0.02032
 Rotational constants (GHZ):           0.96111     0.75008     0.42342
 Zero-point vibrational energy     475191.2 (Joules/Mol)
                                  113.57342 (Kcal/Mol)
 Warning -- explicit consideration of  18 degrees of freedom as
           vibrations may cause significant error
 Vibrational temperatures:     53.04   102.07   144.12   242.36   246.23
          (Kelvin)            310.64   416.82   456.29   482.61   498.55
                              515.81   516.47   650.29   671.58   687.49
                              695.08   716.24   859.13   917.91   939.36
                              946.65  1037.32  1069.94  1089.65  1120.04
                             1161.08  1161.25  1239.17  1265.53  1324.50
                             1446.58  1481.41  1500.07  1501.02  1561.72
                             1629.46  1635.16  1690.98  1736.00  1772.70
                             1806.14  1860.32  1965.32  1971.02  1979.92
                             2001.08  2014.87  2016.17  2067.46  2075.04
                             2102.32  2117.47  2178.10  2190.47  2257.40
                             2306.85  4231.90  4233.80  4411.23  4413.59
                             4414.27  4420.89  4428.64  4434.78  4454.04
                             4459.33

 Zero-point correction=                           0.180991 (Hartree/Particle)
 Thermal correction to Energy=                    0.193092
 Thermal correction to Enthalpy=                  0.194036
 Thermal correction to Gibbs Free Energy=         0.142633
 Sum of electronic and zero-point Energies=           -613.686802
 Sum of electronic and thermal Energies=              -613.674701
 Sum of electronic and thermal Enthalpies=            -613.673757
 Sum of electronic and thermal Free Energies=         -613.725160

                     E (Thermal)             CV                S
                      KCal/Mol        Cal/Mol-Kelvin    Cal/Mol-Kelvin
 Total                  121.167             47.586            108.187
 Electronic               0.000              0.000              0.000
 Translational            0.889              2.981             41.569
 Rotational               0.889              2.981             31.333
 Vibrational            119.389             41.625             35.286
 Vibration     1          0.594              1.982              5.421
 Vibration     2          0.598              1.968              4.127
 Vibration     3          0.604              1.949              3.451
 Vibration     4          0.625              1.881              2.453
 Vibration     5          0.626              1.878              2.423
 Vibration     6          0.645              1.817              1.993
 Vibration     7          0.686              1.693              1.476
 Vibration     8          0.704              1.641              1.325
 Vibration     9          0.717              1.605              1.234
 Vibration    10          0.725              1.582              1.182
 Vibration    11          0.733              1.558              1.129
 Vibration    12          0.734              1.557              1.127
 Vibration    13          0.811              1.357              0.790
 Vibration    14          0.824              1.324              0.747
 Vibration    15          0.834              1.299              0.716
 Vibration    16          0.839              1.288              0.702
 Vibration    17          0.853              1.255              0.664
 Vibration    18          0.955              1.038              0.455

                           ! Non-Optimized Parameters !
 Normal termination of Gaussian 16 at Sun Jan  7 21:49:54 2024.
