 Gaussian 16, Revision A.03,
 Gaussian 16:  ES64L-G16RevA.03 25-Dec-2016

 ----------------------------------------------------------------------
 #P UB3LYP/6-311++G(d,p) nosym opt freq SCRF=(PCM,Solvent=n,n-DiMethylF
 ormamide)
 ----------------------------------------------------------------------

 -------
 Reduced
 -------
 Symbolic Z-matrix:
 Charge = -2 Multiplicity = 1

 SCF Done:  E(UB3LYP) =  -614.161180330     A.U. after   17 cycles
 SCF Done:  E(UB3LYP) =  -614.162770368     A.U. after   13 cycles
 SCF Done:  E(UB3LYP) =  -614.163030931     A.U. after   12 cycles
 SCF Done:  E(UB3LYP) =  -614.163035982     A.U. after   12 cycles
 SCF Done:  E(UB3LYP) =  -614.163050871     A.U. after   11 cycles
 SCF Done:  E(UB3LYP) =  -614.163052605     A.U. after   11 cycles
 SCF Done:  E(UB3LYP) =  -614.163054770     A.U. after   10 cycles
 SCF Done:  E(UB3LYP) =  -614.163056505     A.U. after   10 cycles
 SCF Done:  E(UB3LYP) =  -614.163057074     A.U. after   10 cycles
 SCF Done:  E(UB3LYP) =  -614.163057156     A.U. after    9 cycles
 Optimization completed.
    -- Stationary point found.
 Normal termination of Gaussian 16 at Sun Feb 11 02:14:41 2024.

 ----------------------------------------------------------------------
 #P Geom=AllCheck Guess=TCheck SCRF=Check GenChk UB3LYP/6-311++G(d,p) F
 req
 ----------------------------------------------------------------------

 Structure from the checkpoint file:  "242-an.chk"
 -------
 Reduced
 -------
 Charge = -2 Multiplicity = 1

                          Input orientation:
 ---------------------------------------------------------------------
 Center     Atomic      Atomic             Coordinates (Angstroms)
 Number     Number       Type             X           Y           Z
 ---------------------------------------------------------------------
      1          6           0       -4.029028    0.281002    0.279932
      2          6           0       -2.560447    0.011618    0.045020
      3          6           0       -2.155676   -1.053007   -0.806883
      4          6           0       -0.818094   -1.308069   -1.026540
      5          6           0        0.211594   -0.536161   -0.427514
      6          6           0        1.605510   -0.847516   -0.688936
      7          8           0        1.954787   -1.837953   -1.478334
      8          6           0        2.543442   -0.016780   -0.037482
      9          6           0        2.135456    1.047767    0.807708
     10          6           0        0.800238    1.390070    1.089680
     11          8           0        0.454045    2.385509    1.875947
     12          6           0       -0.186278    0.548208    0.436781
     13          6           0       -1.574158    0.775915    0.638742
     14          6           0        4.015413   -0.278265   -0.250798
     15          1           0       -4.550065    0.522557   -0.653997
     16          1           0       -4.172741    1.118610    0.966882
     17          1           0       -4.536819   -0.591841    0.706579
     18          1           0       -2.911643   -1.670162   -1.286617
     19          1           0       -0.515592   -2.123556   -1.674842
     20          1           0        2.911570    1.651693    1.279604
     21          1           0       -1.847256    1.594075    1.297826
     22          1           0        4.293478   -0.215822   -1.310678
     23          1           0        4.302570   -1.287071    0.072978
     24          1           0        4.629692    0.439178    0.301661
 ---------------------------------------------------------------------

 SCF Done:  E(UB3LYP) =  -614.163057156     A.U. after    1 cycles

 Alpha  occ. eigenvalues --  -19.00950 -19.00918 -10.16308 -10.15984 -10.15412
 Alpha  occ. eigenvalues --  -10.15273 -10.14425 -10.14283 -10.13900 -10.13754
 Alpha  occ. eigenvalues --  -10.13309 -10.13261 -10.12315 -10.11384  -0.91680
 Alpha  occ. eigenvalues --   -0.91243  -0.82521  -0.77179  -0.74007  -0.71814
 Alpha  occ. eigenvalues --   -0.67956  -0.65842  -0.61532  -0.58184  -0.55116
 Alpha  occ. eigenvalues --   -0.51491  -0.47245  -0.44986  -0.43450  -0.40730
 Alpha  occ. eigenvalues --   -0.40564  -0.39606  -0.39075  -0.38878  -0.36649
 Alpha  occ. eigenvalues --   -0.36160  -0.35427  -0.34771  -0.34415  -0.32955
 Alpha  occ. eigenvalues --   -0.30777  -0.30722  -0.29709  -0.29435  -0.22347
 Alpha  occ. eigenvalues --   -0.21391  -0.20237  -0.19091  -0.18751  -0.10918
 Alpha virt. eigenvalues --   -0.00222  -0.00024   0.00728   0.01219   0.01673
 Alpha virt. eigenvalues --    0.02546   0.03112   0.03745   0.04814   0.04872
 Alpha virt. eigenvalues --    0.04975   0.05817   0.06933   0.07169   0.07576

  Beta  occ. eigenvalues --  -19.00950 -19.00918 -10.16308 -10.15984 -10.15412
  Beta  occ. eigenvalues --  -10.15273 -10.14425 -10.14283 -10.13900 -10.13754
  Beta  occ. eigenvalues --  -10.13309 -10.13261 -10.12315 -10.11384  -0.91680
  Beta  occ. eigenvalues --   -0.91243  -0.82521  -0.77179  -0.74007  -0.71814
  Beta  occ. eigenvalues --   -0.67956  -0.65842  -0.61532  -0.58184  -0.55116
  Beta  occ. eigenvalues --   -0.51491  -0.47245  -0.44986  -0.43450  -0.40730
  Beta  occ. eigenvalues --   -0.40564  -0.39606  -0.39075  -0.38878  -0.36649
  Beta  occ. eigenvalues --   -0.36160  -0.35427  -0.34771  -0.34415  -0.32955
  Beta  occ. eigenvalues --   -0.30777  -0.30722  -0.29709  -0.29435  -0.22347
  Beta  occ. eigenvalues --   -0.21391  -0.20237  -0.19091  -0.18751  -0.10918
  Beta virt. eigenvalues --   -0.00222  -0.00024   0.00728   0.01219   0.01673
  Beta virt. eigenvalues --    0.02546   0.03112   0.03745   0.04814   0.04872
  Beta virt. eigenvalues --    0.04975   0.05817   0.06933   0.07169   0.07576

 Mulliken charges and spin densities:
               1          2
     1  C   -0.416242   0.000000
     2  C    0.408139   0.000000
     3  C   -0.449759  -0.000000
     4  C   -0.009426   0.000000
     5  C   -0.076278  -0.000000
     6  C   -0.589837  -0.000000
     7  O   -0.724964   0.000000
     8  C    0.704387  -0.000000
     9  C   -0.387282   0.000000
    10  C   -0.733691  -0.000000
    11  O   -0.738003   0.000000
    12  C    0.244653  -0.000000
    13  C   -0.299731   0.000000
    14  C   -0.296010   0.000000
    15  H    0.148810   0.000000
    16  H    0.155757  -0.000000
    17  H    0.147294   0.000000
    18  H    0.153818  -0.000000
    19  H    0.144103   0.000000
    20  H    0.091814   0.000000
    21  H    0.111876  -0.000000
    22  H    0.138322   0.000000
    23  H    0.137393   0.000000
    24  H    0.134856  -0.000000
 Sum of Mulliken charges =  -2.00000   0.00000

 Dipole moment (field-independent basis, Debye):
    X=             -9.8113    Y=             -2.3876    Z=             -1.7434  Tot=             10.2470
 Quadrupole moment (field-independent basis, Debye-Ang):
   XX=           -112.7605   YY=           -129.0188   ZZ=           -115.9946
   XY=              8.5219   XZ=              6.9572   YZ=            -27.7064

  Exact polarizability: 378.594   6.988 239.208   3.124  74.311 203.903
 Approx polarizability: 404.896   8.926 268.727   4.427  87.579 227.207

                      1                      2                      3
                      A                      A                      A
 Frequencies --     76.6729               100.8157               108.9137
 Red. masses --      3.3396                 1.0766                 2.5260
 Frc consts  --      0.0116                 0.0064                 0.0177
 IR Inten    --     10.0888                 0.5730                13.9677

                      4                      5                      6
                      A                      A                      A
 Frequencies --    127.4570               161.6661               201.6593
 Red. masses --      1.4142                 4.7349                 3.8384
 Frc consts  --      0.0135                 0.0729                 0.0920
 IR Inten    --      2.4406                 3.4055                12.1008

                      7                      8                      9
                      A                      A                      A
 Frequencies --    206.5418               290.0949               301.0078
 Red. masses --      3.2721                 3.2243                 4.2879
 Frc consts  --      0.0822                 0.1599                 0.2289
 IR Inten    --      2.2903                 3.3844                 5.3566

                     10                     11                     12
                      A                      A                      A
 Frequencies --    336.4366               351.5359               387.1368
 Red. masses --      6.9531                 4.4872                 5.7475
 Frc consts  --      0.4637                 0.3267                 0.5075
 IR Inten    --     12.5147                 5.4556                 2.3774

                     13                     14                     15
                      A                      A                      A
 Frequencies --    410.8286               441.4475               482.0341
 Red. masses --      4.9305                 3.2065                 8.3516
 Frc consts  --      0.4903                 0.3682                 1.1433
 IR Inten    --      3.6338                 5.0659                 0.1924

                     16                     17                     18
                      A                      A                      A
 Frequencies --    512.0383               534.7771               596.3169
 Red. masses --      3.1379                 7.3374                 4.9774
 Frc consts  --      0.4847                 1.2363                 1.0428
 IR Inten    --      4.8620                 2.7262                51.9885

                     19                     20                     21
                      A                      A                      A
 Frequencies --    638.5766               659.5964               694.0823
 Red. masses --      4.7347                 3.4275                 3.8862
 Frc consts  --      1.1375                 0.8786                 1.1030
 IR Inten    --      2.4685                 8.7059                13.3540

                     22                     23                     24
                      A                      A                      A
 Frequencies --    717.6541               754.6474               779.8260
 Red. masses --      5.7042                 5.0890                 2.3080
 Frc consts  --      1.7309                 1.7075                 0.8269
 IR Inten    --      1.6177               121.1577                31.4621

                     25                     26                     27
                      A                      A                      A
 Frequencies --    822.3958               836.2591               906.2936
 Red. masses --      2.0018                 1.6446                 1.4553
 Frc consts  --      0.7977                 0.6776                 0.7043
 IR Inten    --     30.0593                46.3646                16.8339

                     28                     29                     30
                      A                      A                      A
 Frequencies --    908.1779               943.7674               973.6275
 Red. masses --      3.1159                 4.1643                 1.3088
 Frc consts  --      1.5142                 2.1854                 0.7310
 IR Inten    --     45.5225               146.1622                 1.6962

                     31                     32                     33
                      A                      A                      A
 Frequencies --   1001.9053              1015.5477              1041.2586
 Red. masses --      1.5458                 1.6814                 1.4656
 Frc consts  --      0.9142                 1.0217                 0.9362
 IR Inten    --     48.8910                 5.4741                 1.0137

                     34                     35                     36
                      A                      A                      A
 Frequencies --   1055.4219              1083.5434              1116.7308
 Red. masses --      1.4911                 2.4702                 2.0231
 Frc consts  --      0.9786                 1.7087                 1.4865
 IR Inten    --      4.8976               106.1848                91.2461

                     37                     38                     39
                      A                      A                      A
 Frequencies --   1174.2668              1192.2790              1216.0273
 Red. masses --      2.3709                 1.6967                 5.0483
 Frc consts  --      1.9262                 1.4211                 4.3983
 IR Inten    --    122.4238               438.8867               199.3762

                     40                     41                     42
                      A                      A                      A
 Frequencies --   1230.4023              1271.0654              1320.3634
 Red. masses --      2.2605                 2.0486                 5.4114
 Frc consts  --      2.0163                 1.9501                 5.5584
 IR Inten    --    194.4527                85.8580               190.6795

                     43                     44                     45
                      A                      A                      A
 Frequencies --   1352.5732              1356.0239              1396.7795
 Red. masses --      4.2081                 3.9417                 1.8318
 Frc consts  --      4.5359                 4.2705                 2.1057
 IR Inten    --   1507.9725               187.2932                56.5761

                     46                     47                     48
                      A                      A                      A
 Frequencies --   1402.0610              1403.2849              1452.9319
 Red. masses --      2.0627                 1.4351                 2.5446
 Frc consts  --      2.3891                 1.6651                 3.1649
 IR Inten    --     89.4632                96.6615                89.8876

                     49                     50                     51
                      A                      A                      A
 Frequencies --   1461.1973              1472.0464              1477.3967
 Red. masses --      1.0685                 1.0445                 1.6784
 Frc consts  --      1.3441                 1.3335                 2.1584
 IR Inten    --      7.6243                 8.4452                 2.1501

                     52                     53                     54
                      A                      A                      A
 Frequencies --   1482.1101              1503.5904              1538.6958
 Red. masses --      1.1570                 1.9539                 5.3766
 Frc consts  --      1.4974                 2.6026                 7.5001
 IR Inten    --     13.9841                80.8624               220.7378

                     55                     56                     57
                      A                      A                      A
 Frequencies --   1586.5366              1624.0861              2983.4725
 Red. masses --      6.8181                 5.8401                 1.0377
 Frc consts  --     10.1115                 9.0759                 5.4421
 IR Inten    --     14.5140                18.2541               229.3254

                     58                     59                     60
                      A                      A                      A
 Frequencies --   3000.0670              3010.8692              3038.2409
 Red. masses --      1.0383                 1.0989                 1.1000
 Frc consts  --      5.5061                 5.8692                 5.9826
 IR Inten    --    156.4141                95.3840                49.4412

                     61                     62                     63
                      A                      A                      A
 Frequencies --   3063.4655              3084.0414              3085.7115
 Red. masses --      1.0980                 1.0984                 1.0872
 Frc consts  --      6.0712                 6.1552                 6.0991
 IR Inten    --     37.7764                48.3601               178.8343

                     64                     65                     66
                      A                      A                      A
 Frequencies --   3128.9198              3154.7521              3164.2140
 Red. masses --      1.0872                 1.0881                 1.0914
 Frc consts  --      6.2712                 6.3805                 6.4382
 IR Inten    --     43.7351                33.4613                45.6725

 - Thermochemistry -
 -------------------
 Temperature   298.150 Kelvin.  Pressure   1.00000 Atm.
 Atom     1 has atomic number  6 and mass  12.00000

 Molecular mass:   186.06808 amu.
 Principal axes and moments of inertia in atomic units:
                           1         2         3
     Eigenvalues --  1482.978023337.164964797.96079
           X            0.99739   0.07164   0.00908
           Y           -0.05058   0.78277  -0.62026
           Z           -0.05154   0.61818   0.78435
 This molecule is an asymmetric top.
 Rotational symmetry number  1.
 Warning -- assumption of classical behavior for rotation
           may cause significant error
 Rotational temperatures (Kelvin)      0.05841     0.02595     0.01805
 Rotational constants (GHZ):           1.21697     0.54080     0.37615
 Zero-point vibrational energy     479727.4 (Joules/Mol)
                                  114.65761 (Kcal/Mol)
 Warning -- explicit consideration of  18 degrees of freedom as
           vibrations may cause significant error
 Vibrational temperatures:    110.32   145.05   156.70   183.38   232.60
          (Kelvin)            290.14   297.17   417.38   433.08   484.06
                              505.78   557.00   591.09   635.14   693.54
                              736.71   769.42   857.97   918.77   949.01
                              998.63  1032.54  1085.77  1122.00  1183.24
                             1203.19  1303.95  1306.67  1357.87  1400.83
                             1441.52  1461.15  1498.14  1518.52  1558.98
                             1606.73  1689.51  1715.42  1749.59  1770.27
                             1828.78  1899.71  1946.05  1951.02  2009.65
                             2017.25  2019.01  2090.44  2102.34  2117.95
                             2125.64  2132.43  2163.33  2213.84  2282.67
                             2336.70  4292.55  4316.43  4331.97  4371.35
                             4407.64  4437.25  4439.65  4501.82  4538.98
                             4552.60

 Zero-point correction=                           0.182719 (Hartree/Particle)
 Thermal correction to Energy=                    0.194847
 Thermal correction to Enthalpy=                  0.195791
 Thermal correction to Gibbs Free Energy=         0.144728
 Sum of electronic and zero-point Energies=           -613.980339
 Sum of electronic and thermal Energies=              -613.968210
 Sum of electronic and thermal Enthalpies=            -613.967266
 Sum of electronic and thermal Free Energies=         -614.018329

                     E (Thermal)             CV                S
                      KCal/Mol        Cal/Mol-Kelvin    Cal/Mol-Kelvin
 Total                  122.269             47.126            107.472
 Electronic               0.000              0.000              0.000
 Translational            0.889              2.981             41.569
 Rotational               0.889              2.981             31.541
 Vibrational            120.491             41.164             34.362
 Vibration     1          0.599              1.965              3.974
 Vibration     2          0.604              1.948              3.438
 Vibration     3          0.606              1.942              3.288
 Vibration     4          0.611              1.926              2.984
 Vibration     5          0.622              1.889              2.530
 Vibration     6          0.639              1.838              2.118
 Vibration     7          0.641              1.831              2.074
 Vibration     8          0.686              1.692              1.473
 Vibration     9          0.693              1.672              1.411
 Vibration    10          0.717              1.603              1.229
 Vibration    11          0.728              1.572              1.159
 Vibration    12          0.756              1.498              1.011
 Vibration    13          0.775              1.447              0.924
 Vibration    14          0.801              1.380              0.822
 Vibration    15          0.838              1.290              0.705
 Vibration    16          0.867              1.223              0.629
 Vibration    17          0.890              1.173              0.577
 Vibration    18          0.954              1.040              0.456

                           ! Non-Optimized Parameters !
 Normal termination of Gaussian 16 at Sun Feb 11 02:46:45 2024.
