 Q-Chem 5.4, Q-Chem, Inc., Pleasanton, CA (2021)
 Q-Chem 5.4.0 for Intel X86 EM64T Linux

User input:
--------------------------------------------------------------
$molecule
-1 2
C                 -1.6215400000      3.3894640000     -0.3364540000
C                 -2.6193650000      3.4372750000      0.6190250000
C                 -2.6261370000      2.5078830000      1.6787790000
C                 -0.6007850000      2.4166020000     -0.2668860000
C                 -0.6052640000      1.4770500000      0.8021330000
C                 -1.6313150000      1.5470920000      1.7608710000
C                  0.4443930000      2.3650380000     -1.2648090000
C                  1.4468560000      1.3359000000     -1.1092320000
C                  1.4767320000      0.4056770000     -0.0885500000
C                  0.4387610000      0.4365890000      0.9261440000
O                  0.5470660000      3.1534250000     -2.2617880000
O                  0.4103270000     -0.3808260000      1.8828290000
O                  2.3927780000      1.3634600000     -2.0946460000
C                  2.5565980000     -0.6491780000      0.0268260000
C                  2.5686500000     -1.6449540000     -1.1677640000
C                  3.9721930000     -0.0743820000      0.2312990000
C                  4.9754350000     -1.1853910000      0.6146220000
C                  4.6784450000     -2.5573830000     -0.0555290000
C                  3.9480600000     -2.3055350000     -1.3865500000
C                  5.9549540000     -3.4260120000     -0.1876090000
C                  5.6832300000     -4.8146450000     -0.8030720000
C                  6.6737980000     -3.6063230000      1.1666220000
C                  7.9441860000     -4.4628010000      1.0618920000
C                  7.6566630000     -5.8332680000      0.4373730000
C                  6.9499000000     -5.6769680000     -0.9142920000
H                 -1.5941970000      4.0929730000     -1.1609190000
H                 -3.3988690000      4.1909570000      0.5540120000
H                 -3.4102260000      2.5459620000      2.4291200000
H                 -1.6120480000      0.8203190000      2.5649210000
H                  2.0864420000      2.1207170000     -2.6440590000
H                  2.3033460000     -1.2082210000      0.9321140000
H                  2.2746080000     -1.1298810000     -2.0843870000
H                  1.8159290000     -2.4191850000     -0.9804550000
H                  3.9508780000      0.6864400000      1.0171850000
H                  4.2912320000      0.4341300000     -0.6823510000
H                  4.9788120000     -1.3090540000      1.7024350000
H                  5.9882950000     -0.8628080000      0.3373300000
H                  3.9848820000     -3.1095970000      0.5956900000
H                  3.8110790000     -3.2324170000     -1.9501980000
H                  4.5758450000     -1.6568210000     -2.0115350000
H                  6.6452440000     -2.8925630000     -0.8614890000
H                  5.2333570000     -4.7118150000     -1.7932700000
H                  4.9438720000     -5.3369590000     -0.1793900000
H                  5.9762510000     -4.0804630000      1.8718220000
H                  6.9273730000     -2.6329540000      1.5930660000
H                  8.3973180000     -4.5835470000      2.0527170000
H                  8.6842710000     -3.9353330000      0.4447850000
H                  7.0144510000     -6.4110800000      1.1156570000
H                  8.5844230000     -6.4057640000      0.3216230000
H                  6.6975340000     -6.6603650000     -1.3277070000
H                  7.6413650000     -5.2090690000     -1.6281950000
$end
$rem
MAX_SCF_CYCLES=200
BASIS  =  6-311++G(d,p)
GUI  =  2
JOB_TYPE  =  SP
THRESH = 14
SCF_CONVERGENCE  = 6
METHOD  =  B3LYP
SOLVENT_METHOD = COSMO
$end
$solvent
dielectric 37.219
opticaldielectric 1.43
$end

--------------------------------------------------------------

             Standard Nuclear Orientation (Angstroms)
    I     Atom           X                Y                Z
 ----------------------------------------------------------------
    1      C       5.8735676235    -0.3911518208     0.0189070985
    2      C       6.6588122383     0.7396616573    -0.1057224099
    3      C       6.0550121470     2.0063433838    -0.2392766826
    4      C       4.4649276752    -0.2965146101     0.0146360370
    5      C       3.8527391454     0.9812448903    -0.1200321019
    6      C       4.6738745015     2.1156697714    -0.2452599137
    7      C       3.6414569086    -1.4778994171     0.1455254793
    8      C       2.2098005217    -1.2818068829     0.1325254773
    9      C       1.5777398236    -0.0605165735     0.0023394400
   10      C       2.3822404956     1.1407926046    -0.1302433252
   11      O       4.0804150295    -2.6684788569     0.2716179009
   12      O       1.8681889944     2.2834545706    -0.2498119226
   13      O       1.5131795937    -2.4498890070     0.2624183912
   14      C       0.0708318903     0.0856482856    -0.0000237899
   15      C      -0.6113914919    -0.6347120987    -1.1976934166
   16      C      -0.6016405275    -0.3544557685     1.3153461665
   17      C      -2.0863086189     0.0723033824     1.3528870308
   18      C      -2.7834416737     0.0409904652    -0.0373260738
   19      C      -2.0825796943    -1.0118387158    -0.9141668617
   20      C      -4.3154584670    -0.1561613175     0.0871424475
   21      C      -5.0420341048    -0.1406175614    -1.2740248748
   22      C      -4.9599013667     0.8959356480     1.0150301986
   23      C      -6.4790193133     0.7207142925     1.1564046970
   24      C      -7.1817958413     0.7266203577    -0.2062924539
   25      C      -6.5623236068    -0.3184722759    -1.1416947409
   26      H       6.3138333677    -1.3764139182     0.1230212807
   27      H       7.7415731687     0.6530926660    -0.1007918369
   28      H       6.6723904372     2.8943376430    -0.3370899178
   29      H       4.1831534112     3.0769372190    -0.3463752885
   30      H       2.2407602843    -3.1096348481     0.3294729766
   31      H      -0.1039519079     1.1600928907    -0.1060022244
   32      H      -0.0574117028    -1.5406254628    -1.4514373567
   33      H      -0.5629301315     0.0250669415    -2.0714498594
   34      H      -0.0724873936     0.0867692056     2.1651924661
   35      H      -0.5096611608    -1.4384439427     1.4232168965
   36      H      -2.1613571023     1.0814196825     1.7708500465
   37      H      -2.6302641825    -0.5884670251     2.0416038363
   38      H      -2.6272690428     1.0185860240    -0.5168812380
   39      H      -2.6020587564    -1.1506105720    -1.8662472050
   40      H      -2.1252098480    -1.9799478577    -0.3979329325
   41      H      -4.4818758455    -1.1464199209     0.5419781635
   42      H      -4.6466646286    -0.9224417527    -1.9266240745
   43      H      -4.8320291429     0.8157910153    -1.7736466859
   44      H      -4.7483258738     1.8956358936     0.6094160636
   45      H      -4.4977595509     0.8617862226     2.0044041091
   46      H      -6.8887360636     1.5083377835     1.7993851069
   47      H      -6.6860789355    -0.2318528972     1.6628742515
   48      H      -7.0807450442     1.7218326066    -0.6598489123
   49      H      -8.2563005327     0.5453637134    -0.0859843200
   50      H      -7.0319231032    -0.2696205474    -2.1310177626
   51      H      -6.7735892456    -1.3219305952    -0.7478051053
 ----------------------------------------------------------------

   14   -1080.0594061222      3.51e-07  Convergence criterion met
 Total energy in the final basis set =    -1080.0594061222
    6   -1080.1382680452      9.57e-07  Convergence criterion met
 Total energy in the final basis set =    -1080.1382680452

                    Orbital Energies (a.u.)
 --------------------------------------------------------------

 Alpha MOs
 -- Occupied --
-19.1414 -19.0887 -19.0771 -10.2260 -10.2227 -10.2217 -10.1751 -10.1732
-10.1719 -10.1709 -10.1706 -10.1691 -10.1625 -10.1596 -10.1587 -10.1586
-10.1541 -10.1539 -10.1535 -10.1514 -10.1513 -10.1512 -10.1502 -10.1500
-10.1493  -1.0626  -1.0034  -0.9981  -0.8590  -0.8358  -0.8185  -0.7976
 -0.7630  -0.7511  -0.7340  -0.7334  -0.7236  -0.6998  -0.6703  -0.6285
 -0.6165  -0.6114  -0.5962  -0.5886  -0.5722  -0.5685  -0.5441  -0.5389
 -0.5170  -0.5053  -0.4827  -0.4739  -0.4723  -0.4570  -0.4494  -0.4371
 -0.4359  -0.4328  -0.4270  -0.4261  -0.4204  -0.4187  -0.4122  -0.4010
 -0.3905  -0.3857  -0.3850  -0.3791  -0.3726  -0.3692  -0.3678  -0.3564
 -0.3516  -0.3473  -0.3455  -0.3421  -0.3369  -0.3343  -0.3312  -0.3228
 -0.3120  -0.3050  -0.3033  -0.2865  -0.2808  -0.2751  -0.2680  -0.2636
 -0.2585  -0.2409  -0.2266  -0.1531

 Beta MOs
 -- Occupied --
-19.1409 -19.0826 -19.0718 -10.2246 -10.2209 -10.2196 -10.1750 -10.1720
-10.1719 -10.1701 -10.1700 -10.1693 -10.1617 -10.1596 -10.1587 -10.1587
-10.1541 -10.1539 -10.1535 -10.1514 -10.1513 -10.1512 -10.1502 -10.1500
-10.1492  -1.0603  -0.9942  -0.9879  -0.8567  -0.8356  -0.8176  -0.7947
 -0.7617  -0.7489  -0.7334  -0.7329  -0.7236  -0.6981  -0.6623  -0.6273
 -0.6147  -0.6112  -0.5945  -0.5885  -0.5710  -0.5667  -0.5441  -0.5374
 -0.5162  -0.5033  -0.4808  -0.4734  -0.4710  -0.4559  -0.4488  -0.4367
 -0.4324  -0.4281  -0.4251  -0.4219  -0.4194  -0.4141  -0.4110  -0.3989
 -0.3853  -0.3837  -0.3781  -0.3764  -0.3721  -0.3674  -0.3616  -0.3551
 -0.3478  -0.3450  -0.3426  -0.3374  -0.3352  -0.3309  -0.3264  -0.3226
 -0.3115  -0.3049  -0.3027  -0.2862  -0.2806  -0.2745  -0.2583  -0.2515
 -0.2495  -0.2362  -0.2180

          Ground-State Mulliken Net Atomic Charges

     Atom                 Charge (a.u.)    Spin (a.u.)
  --------------------------------------------------------
      1 C                     0.021155       0.078169
      2 C                    -0.427397       0.001516
      3 C                    -0.520586       0.072065
      4 C                     0.416314      -0.002713
      5 C                     0.244771       0.048858
      6 C                     0.010472       0.000032
      7 C                    -0.570409       0.190744
      8 C                    -0.343348       0.045415
      9 C                     0.720558       0.057214
     10 C                    -0.444207       0.091620
     11 O                    -0.550332       0.220476
     12 O                    -0.489771       0.194926
     13 O                    -0.267340       0.016953
     14 C                     0.853268       0.005137
     15 C                    -0.914079      -0.009954
     16 C                    -1.182521      -0.002786
     17 C                    -0.329580       0.001574
     18 C                     0.493861      -0.000222
     19 C                    -0.624407       0.004673
     20 C                     0.143963      -0.000082
     21 C                    -0.315941       0.000013
     22 C                    -0.250867      -0.000164
     23 C                    -0.393098      -0.000193
     24 C                    -0.416008       0.000005
     25 C                    -0.493096       0.000089
     26 H                     0.181679      -0.004008
     27 H                     0.200456      -0.000485
     28 H                     0.204249      -0.005354
     29 H                     0.182836       0.000014
     30 H                     0.310718      -0.003727
     31 H                     0.254810      -0.001986
     32 H                     0.189428       0.001529
     33 H                     0.182464      -0.000724
     34 H                     0.196107      -0.000214
     35 H                     0.181820       0.001750
     36 H                     0.147588       0.000029
     37 H                     0.169206       0.000058
     38 H                     0.164294       0.000054
     39 H                     0.138032      -0.000010
     40 H                     0.174422      -0.000067
     41 H                     0.162564      -0.000016
     42 H                     0.141877      -0.000159
     43 H                     0.168375      -0.000012
     44 H                     0.170260      -0.000003
     45 H                     0.164106      -0.000029
     46 H                     0.177039       0.000010
     47 H                     0.144628      -0.000018
     48 H                     0.127237      -0.000001
     49 H                     0.178774       0.000000
     50 H                     0.177475      -0.000001
     51 H                     0.138181       0.000003
  --------------------------------------------------------
  Sum of atomic charges =    -1.000000

                    Cartesian Multipole Moments
 -----------------------------------------------------------------
    Charge (ESU x 10^10)
                -4.8032
    Dipole Moment (Debye)
         X     -12.9869      Y       0.8037      Z      -0.0245
       Tot      13.0118
    Quadrupole Moments (Debye-Ang)
        XX    -198.0009     XY      13.8445     YY    -182.5363
        XZ      -1.2044     YZ       2.3294     ZZ    -158.8316

 Total job time:  620.57s(wall), 4738.43s(cpu)
        *  Thank you very much for using Q-Chem.  Have a nice day.  *
