 Gaussian 16, Revision A.03,
 Gaussian 16:  ES64L-G16RevA.03 25-Dec-2016

 ----------------------------------------------------------------
 #P UB3LYP/6-311++G(d,p) SCRF=(PCM,Solvent=n,n-DiMethylFormamide)
 ----------------------------------------------------------------

 ------------------
 Radical PCM in DMF
 ------------------
 Symbolic Z-matrix:
 Charge = -1 Multiplicity = 2

                         Standard orientation:
 ---------------------------------------------------------------------
 Center     Atomic      Atomic             Coordinates (Angstroms)
 Number     Number       Type             X           Y           Z
 ---------------------------------------------------------------------
      1          6           0        4.241412   -0.232589   -0.967113
      2          6           0        4.830729   -1.452725   -0.693975
      3          6           0        4.177318   -2.382514    0.137726
      4          6           0        2.982722    0.098855   -0.419682
      5          6           0        2.322328   -0.838306    0.419632
      6          6           0        2.941136   -2.071761    0.681541
      7          6           0        2.367161    1.376021   -0.709052
      8          6           0        1.073356    1.637844   -0.112976
      9          6           0        0.411085    0.739522    0.712984
     10          6           0        0.996929   -0.553338    1.029589
     11          8           0        2.871501    2.281305   -1.449542
     12          8           0        0.438529   -1.397139    1.756525
     13          8           0        0.569145    2.846568   -0.437701
     14          1           0        4.724557    0.498932   -1.604541
     15          1           0        5.799265   -1.695370   -1.121248
     16          1           0        4.641262   -3.340535    0.351132
     17          1           0        2.414052   -2.767440    1.324186
     18          1           0        1.273713    3.211320   -1.020739
     19         16           0       -1.120015    1.211737    1.489785
     20          6           0       -2.389089    0.386297    0.545892
     21          6           0       -2.144518   -0.378475   -0.597958
     22          6           0       -3.714923    0.535588    0.976851
     23          6           0       -3.199518   -0.974561   -1.284256
     24          6           0       -4.759550   -0.063876    0.280749
     25          6           0       -4.525525   -0.835040   -0.863342
     26          6           0       -5.657876   -1.518434   -1.593750
     27          1           0       -1.127296   -0.505317   -0.946401
     28          1           0       -3.927407    1.126839    1.862024
     29          1           0       -2.980251   -1.563798   -2.170694
     30          1           0       -5.777697    0.071891    0.636385
     31          1           0       -6.586459   -0.944851   -1.517723
     32          1           0       -5.857904   -2.516508   -1.184703
     33          1           0       -5.428050   -1.643874   -2.655657
 ---------------------------------------------------------------------

 SCF Done:  E(UB3LYP) =  -1279.31972563     A.U. after   22 cycles

 The electronic state is 2-A.
 Alpha  occ. eigenvalues --  -88.85036 -19.15388 -19.09317 -19.08210 -10.23955
 Alpha  occ. eigenvalues --  -10.23721 -10.22791 -10.20609 -10.19138 -10.18160
 Alpha  occ. eigenvalues --  -10.18138 -10.17954 -10.17743 -10.17723 -10.17603
 Alpha  occ. eigenvalues --  -10.17524 -10.17470 -10.17464 -10.17418 -10.17389
 Alpha  occ. eigenvalues --  -10.16515  -7.93632  -5.90038  -5.89628  -5.89029
 Alpha  occ. eigenvalues --   -1.07806  -1.01297  -1.00404  -0.86882  -0.86417
 Alpha  occ. eigenvalues --   -0.82235  -0.79173  -0.75818  -0.75526  -0.74970
 Alpha  occ. eigenvalues --   -0.71956  -0.68343  -0.66090  -0.62644  -0.61511
 Alpha  occ. eigenvalues --   -0.60507  -0.57848  -0.57503  -0.54359  -0.51655
 Alpha  occ. eigenvalues --   -0.50109  -0.48601  -0.47280  -0.46468  -0.45687
 Alpha  occ. eigenvalues --   -0.44790  -0.44448  -0.43088  -0.42335  -0.42256
 Alpha  occ. eigenvalues --   -0.42040  -0.41529  -0.40637  -0.39635  -0.38848
 Alpha  occ. eigenvalues --   -0.38539  -0.37640  -0.37072  -0.36708  -0.35213
 Alpha  occ. eigenvalues --   -0.34932  -0.34385  -0.34303  -0.32847  -0.28649
 Alpha  occ. eigenvalues --   -0.27365  -0.26739  -0.26188  -0.25974  -0.24762
 Alpha  occ. eigenvalues --   -0.24304  -0.20993  -0.15890
 Alpha virt. eigenvalues --   -0.03975  -0.02115  -0.01808  -0.01313  -0.00566
 Alpha virt. eigenvalues --    0.00090   0.00797   0.01368   0.01687   0.02257
 Alpha virt. eigenvalues --    0.02993   0.03272   0.03398   0.03801   0.04326

  Beta  occ. eigenvalues --  -88.85037 -19.15301 -19.08641 -19.07749 -10.23774
  Beta  occ. eigenvalues --  -10.23629 -10.22498 -10.20598 -10.19072 -10.18160
  Beta  occ. eigenvalues --  -10.18153 -10.17842 -10.17759 -10.17723 -10.17518
  Beta  occ. eigenvalues --  -10.17470 -10.17464 -10.17457 -10.17447 -10.17389
  Beta  occ. eigenvalues --  -10.16515  -7.93633  -5.90042  -5.89631  -5.89029
  Beta  occ. eigenvalues --   -1.07512  -1.00507  -0.99246  -0.86852  -0.86211
  Beta  occ. eigenvalues --   -0.81989  -0.78973  -0.75644  -0.75359  -0.74966
  Beta  occ. eigenvalues --   -0.71781  -0.67760  -0.65783  -0.62447  -0.61452
  Beta  occ. eigenvalues --   -0.60300  -0.57743  -0.57323  -0.54184  -0.51467
  Beta  occ. eigenvalues --   -0.49943  -0.48378  -0.47237  -0.46335  -0.45644
  Beta  occ. eigenvalues --   -0.44723  -0.43247  -0.42983  -0.42157  -0.42032
  Beta  occ. eigenvalues --   -0.41792  -0.41234  -0.40339  -0.38793  -0.38577
  Beta  occ. eigenvalues --   -0.38327  -0.37118  -0.36791  -0.35943  -0.35108
  Beta  occ. eigenvalues --   -0.34349  -0.34212  -0.33261  -0.32637  -0.28610
  Beta  occ. eigenvalues --   -0.26157  -0.26019  -0.25512  -0.25391  -0.24297
  Beta  occ. eigenvalues --   -0.23524  -0.20942
  Beta virt. eigenvalues --   -0.09297  -0.03214  -0.01862  -0.01395  -0.00895
  Beta virt. eigenvalues --   -0.00533   0.00117   0.00819   0.01395   0.01695
  Beta virt. eigenvalues --    0.02304   0.03024   0.03279   0.03563   0.03883

 Mulliken charges and spin densities:
               1          2
     1  C   -0.085169   0.082574
     2  C   -0.552635  -0.018630
     3  C   -0.474412   0.077083
     4  C    0.157153  -0.032021
     5  C    0.297374   0.082695
     6  C    0.032271  -0.013466
     7  C   -0.710830   0.197878
     8  C   -0.723677   0.103104
     9  C    2.288363   0.027241
    10  C   -0.872784   0.056727
    11  O   -0.507925   0.248492
    12  O   -0.409076   0.169622
    13  O   -0.216316   0.027737
    14  H    0.191248  -0.004766
    15  H    0.181456   0.000423
    16  H    0.183562  -0.005248
    17  H    0.187880   0.000358
    18  H    0.295250  -0.003734
    19  S    0.171855   0.005206
    20  C   -0.158648   0.003169
    21  C   -0.128596  -0.009967
    22  C   -0.301847   0.006068
    23  C   -0.300084  -0.003814
    24  C   -0.750982   0.000425
    25  C    0.478586   0.000265
    26  C   -0.521755  -0.000665
    27  H    0.206232   0.003069
    28  H    0.191222  -0.000046
    29  H    0.201455   0.000027
    30  H    0.179030   0.000219
    31  H    0.149410   0.000010
    32  H    0.172896  -0.000021
    33  H    0.149494  -0.000013
 Sum of Mulliken charges =  -1.00000   1.00000

 Dipole moment (field-independent basis, Debye):
    X=             -4.7697    Y=             -3.7826    Z=             -3.1457  Tot=              6.8523
 Quadrupole moment (field-independent basis, Debye-Ang):
   XX=           -137.4120   YY=           -149.4461   ZZ=           -145.3188
   XY=             -8.9411   XZ=              7.2449   YZ=             12.0122

 Normal termination of Gaussian 16 at Thu Jan 25 05:50:36 2024.
