 Q-Chem 5.4, Q-Chem, Inc., Pleasanton, CA (2021)
 Q-Chem 5.4.0 for Intel X86 EM64T Linux

User input:
--------------------------------------------------------------
$molecule
0 1
C                 -1.2717780000      2.4943010000     -0.8187370000
C                 -2.3084110000      1.8285190000     -0.2070210000
C                 -2.1012190000      0.5466820000      0.3528780000
C                  0.0164530000      1.9066820000     -0.8965750000
C                  0.2267710000      0.6101750000     -0.3299050000
C                 -0.8624750000     -0.0495180000      0.2932440000
C                  1.1081430000      2.5587760000     -1.5187320000
C                  2.3524150000      1.9741060000     -1.5860060000
C                  2.5650730000      0.6780140000     -1.0177950000
C                  1.5162230000      0.0239750000     -0.4080560000
C                  3.4635180000      2.7058910000     -2.2557890000
C                  4.8462720000      1.9992700000     -2.3141620000
C                  4.9555830000      0.6851530000     -1.7028800000
C                  3.9036160000      0.0695300000     -1.0983210000
O                  3.3254190000      3.8048940000     -2.7439980000
O                  5.7801040000      2.5569040000     -2.8591840000
H                 -1.4260850000      3.4774660000     -1.2498610000
H                 -3.2901550000      2.2845530000     -0.1517830000
H                 -2.9270900000      0.0330070000      0.8317160000
H                 -0.7049950000     -1.0330060000      0.7227890000
H                  0.9761490000      3.5417630000     -1.9573620000
H                  1.6750230000     -0.9575850000      0.0196260000
H                  5.9330060000      0.2263570000     -1.7616820000
O                  3.9632980000     -1.1433090000     -0.5180680000
C                  5.2148690000     -1.8616720000     -0.5041260000
C                  5.0064040000     -3.1334480000      0.2541130000
C                  5.2747670000     -4.3382820000     -0.2396000000
H                  5.9687520000     -1.2347080000     -0.0134840000
H                  5.5357790000     -2.0593630000     -1.5313020000
H                  4.6387910000     -3.0230200000      1.2708870000
H                  5.6385680000     -4.4714120000     -1.2537910000
H                  5.1469900000     -5.2351970000      0.3550940000
$end

$rem
BASIS  =  6-311++G(d,p)
GUI  =  2
JOB_TYPE  =  SP
METHOD  =  B3LYP
SCF_CONVERGENCE  = 8
SOLVENT_METHOD = sm12
$end

$smx
solvent dimethylformamide
charges CM5
$end

--------------------------------------------------------------

             Standard Nuclear Orientation (Angstroms)
    I     Atom           X                Y                Z
 ----------------------------------------------------------------
    1      C      -1.2717780000     2.4943010000    -0.8187370000
    2      C      -2.3084110000     1.8285190000    -0.2070210000
    3      C      -2.1012190000     0.5466820000     0.3528780000
    4      C       0.0164530000     1.9066820000    -0.8965750000
    5      C       0.2267710000     0.6101750000    -0.3299050000
    6      C      -0.8624750000    -0.0495180000     0.2932440000
    7      C       1.1081430000     2.5587760000    -1.5187320000
    8      C       2.3524150000     1.9741060000    -1.5860060000
    9      C       2.5650730000     0.6780140000    -1.0177950000
   10      C       1.5162230000     0.0239750000    -0.4080560000
   11      C       3.4635180000     2.7058910000    -2.2557890000
   12      C       4.8462720000     1.9992700000    -2.3141620000
   13      C       4.9555830000     0.6851530000    -1.7028800000
   14      C       3.9036160000     0.0695300000    -1.0983210000
   15      O       3.3254190000     3.8048940000    -2.7439980000
   16      O       5.7801040000     2.5569040000    -2.8591840000
   17      H      -1.4260850000     3.4774660000    -1.2498610000
   18      H      -3.2901550000     2.2845530000    -0.1517830000
   19      H      -2.9270900000     0.0330070000     0.8317160000
   20      H      -0.7049950000    -1.0330060000     0.7227890000
   21      H       0.9761490000     3.5417630000    -1.9573620000
   22      H       1.6750230000    -0.9575850000     0.0196260000
   23      H       5.9330060000     0.2263570000    -1.7616820000
   24      O       3.9632980000    -1.1433090000    -0.5180680000
   25      C       5.2148690000    -1.8616720000    -0.5041260000
   26      C       5.0064040000    -3.1334480000     0.2541130000
   27      C       5.2747670000    -4.3382820000    -0.2396000000
   28      H       5.9687520000    -1.2347080000    -0.0134840000
   29      H       5.5357790000    -2.0593630000    -1.5313020000
   30      H       4.6387910000    -3.0230200000     1.2708870000
   31      H       5.6385680000    -4.4714120000    -1.2537910000
   32      H       5.1469900000    -5.2351970000     0.3550940000
 ----------------------------------------------------------------

   15    -880.9034429861      5.88e-09  Convergence criterion met
 Total energy in the final basis set =     -880.9315932943

                    Orbital Energies (a.u.)
 --------------------------------------------------------------

 Alpha MOs
 -- Occupied --
-19.1852 -19.1351 -19.1196 -10.2795 -10.2780 -10.2689 -10.2409 -10.2152
-10.2087 -10.2074 -10.2071 -10.2053 -10.2021 -10.1937 -10.1934 -10.1928
-10.1915 -10.1863 -10.1840 -10.1748  -1.1017  -1.0748  -1.0447  -0.9049
 -0.8653  -0.8235  -0.8038  -0.7980  -0.7627  -0.7553  -0.7186  -0.6865
 -0.6587  -0.6344  -0.6197  -0.5964  -0.5777  -0.5562  -0.5489  -0.5417
 -0.5162  -0.5021  -0.4871  -0.4823  -0.4694  -0.4628  -0.4567  -0.4518
 -0.4445  -0.4425  -0.4333  -0.4305  -0.4233  -0.4150  -0.3949  -0.3893
 -0.3839  -0.3796  -0.3670  -0.3564  -0.3514  -0.3424  -0.3108  -0.3044
 -0.2857  -0.2791  -0.2554  -0.2553  -0.2408

          Ground-State Mulliken Net Atomic Charges

     Atom                 Charge (a.u.)
  ----------------------------------------
      1 C                     0.078616
      2 C                     0.366566
      3 C                     0.220945
      4 C                    -0.433739
      5 C                     0.286132
      6 C                     0.257797
      7 C                    -0.275328
      8 C                    -0.023899
      9 C                     0.051922
     10 C                    -0.143509
     11 C                    -1.620655
     12 C                    -1.799682
     13 C                     0.477258
     14 C                     0.597773
     15 O                    -0.298837
     16 O                    -0.375712
     17 H                     0.262631
     18 H                     0.286184
     19 H                     0.298805
     20 H                     0.271007
     21 H                     0.164187
     22 H                     0.201898
     23 H                     0.311789
     24 O                     0.042964
     25 C                     0.126714
     26 C                     0.193017
     27 C                    -0.497069
     28 H                     0.219138
     29 H                     0.220319
     30 H                     0.204415
     31 H                     0.154416
     32 H                     0.173935
  ----------------------------------------
  Sum of atomic charges =     0.000000

                    Cartesian Multipole Moments
 -----------------------------------------------------------------
    Charge (ESU x 10^10)
                 0.0000
    Dipole Moment (Debye)
         X      -4.7985      Y      -7.2807      Z       4.8586
       Tot       9.9820
    Quadrupole Moments (Debye-Ang)
        XX    -126.6752     XY     -45.9623     YY    -126.0354
        XZ      23.1100     YZ      17.6505     ZZ    -132.1269

 Total job time:  954.91s(wall), 6541.06s(cpu)
        *  Thank you very much for using Q-Chem.  Have a nice day.  *
