 Gaussian 16, Revision A.03,
 Gaussian 16:  ES64L-G16RevA.03 25-Dec-2016

 --------------------------------------
 #P UB3LYP/6-311++G(d,p) nosym opt freq
 --------------------------------------

 -------
 Radical
 -------
 Symbolic Z-matrix:
 Charge = -1 Multiplicity = 2

 SCF Done:  E(UB3LYP) =  -1941.14542250     A.U. after   20 cycles
 SCF Done:  E(UB3LYP) =  -1941.15825224     A.U. after   20 cycles
 SCF Done:  E(UB3LYP) =  -1941.16039222     A.U. after   20 cycles
 SCF Done:  E(UB3LYP) =  -1941.16083836     A.U. after   20 cycles
 SCF Done:  E(UB3LYP) =  -1941.16086097     A.U. after   20 cycles
 SCF Done:  E(UB3LYP) =  -1941.16101471     A.U. after   17 cycles
 SCF Done:  E(UB3LYP) =  -1941.16103513     A.U. after   17 cycles
 SCF Done:  E(UB3LYP) =  -1941.16104243     A.U. after   16 cycles
 SCF Done:  E(UB3LYP) =  -1941.16104412     A.U. after   15 cycles
 SCF Done:  E(UB3LYP) =  -1941.16104459     A.U. after   15 cycles
 SCF Done:  E(UB3LYP) =  -1941.16104473     A.U. after   14 cycles
 SCF Done:  E(UB3LYP) =  -1941.16104475     A.U. after   13 cycles
 Optimization completed.
    -- Stationary point found.
 Normal termination of Gaussian 16 at Wed Dec 20 04:32:47 2023.

 ----------------------------------------------------------------------
 #P Geom=AllCheck Guess=TCheck SCRF=Check GenChk UB3LYP/6-311++G(d,p) F
 req
 ----------------------------------------------------------------------

 Structure from the checkpoint file:  "072-rad.chk"
 -------
 Radical
 -------
 Charge = -1 Multiplicity = 2

                          Input orientation:
 ---------------------------------------------------------------------
 Center     Atomic      Atomic             Coordinates (Angstroms)
 Number     Number       Type             X           Y           Z
 ---------------------------------------------------------------------
      1          6           0        0.727399    1.155420   -1.500060
      2          6           0       -0.674744    0.901289   -1.775754
      3          6           0       -1.472551    0.177186   -0.933195
      4          6           0       -1.000152   -0.393286    0.322269
      5          6           0        0.405663   -0.152018    0.590557
      6          6           0        1.206873    0.560308   -0.258783
      7          8           0        1.435817    1.847922   -2.265789
      8          8           0       -1.727575   -1.019832    1.126046
      9         16           0        2.948639    0.725745    0.191515
     10          6           0        3.236965    2.505866    0.386146
     11          6           0        3.572685    3.278265   -0.723225
     12          6           0        3.150751    3.058715    1.662003
     13          6           0        3.400095    4.419702    1.828687
     14          6           0        3.823100    4.637207   -0.542670
     15          6           0        3.736454    5.207286    0.727623
     16          8           0        3.805000    0.248255   -0.900799
     17          8           0        3.107145    0.139423    1.536347
     18          1           0        3.609087    2.816941   -1.700131
     19          1           0        2.905305    2.422205    2.502895
     20          1           0        4.081485    5.251523   -1.398168
     21          1           0        3.337068    4.861449    2.817217
     22          1           0        3.929515    6.266826    0.859559
     23         16           0       -3.182935   -0.097373   -1.446195
     24          6           0       -4.208428    0.678246   -0.166857
     25          6           0       -4.658890    1.980345   -0.373178
     26          6           0       -4.557277   -0.043123    0.972436
     27          6           0       -5.374131    0.562644    1.925234
     28          6           0       -5.472357    2.576092    0.588911
     29          6           0       -5.829720    1.867553    1.736089
     30          1           0       -1.076537    1.317136   -2.691834
     31          1           0        0.806072   -0.563038    1.509415
     32          1           0       -4.382021    2.502456   -1.280507
     33          1           0       -4.170904   -1.043742    1.106429
     34          1           0       -5.650200    0.014237    2.819136
     35          1           0       -5.830075    3.588956    0.439066
     36          1           0       -6.462528    2.333577    2.484208
     37          8           0       -3.487328   -1.533249   -1.457110
     38          8           0       -3.399957    0.691458   -2.674225
 ---------------------------------------------------------------------

 SCF Done:  E(UB3LYP) =  -1941.16104475     A.U. after    2 cycles

 Alpha  occ. eigenvalues --  -88.94821 -88.94820 -19.01172 -19.01172 -19.01081
 Alpha  occ. eigenvalues --  -19.01080 -18.98733 -18.98732 -10.14053 -10.14052
 Alpha  occ. eigenvalues --  -10.12277 -10.12277 -10.11220 -10.11220 -10.11030
 Alpha  occ. eigenvalues --  -10.11030 -10.10937 -10.10937 -10.10701 -10.10700
 Alpha  occ. eigenvalues --  -10.10598 -10.10597 -10.10476 -10.10473 -10.08803
 Alpha  occ. eigenvalues --  -10.08802  -8.01187  -8.01187  -5.97450  -5.97450
 Alpha  occ. eigenvalues --   -5.97367  -5.97366  -5.97302  -5.97302  -1.00488
 Alpha  occ. eigenvalues --   -1.00478  -0.91575  -0.91344  -0.89988  -0.89969
 Alpha  occ. eigenvalues --   -0.79301  -0.79299  -0.75060  -0.70211  -0.69410
 Alpha  occ. eigenvalues --   -0.68197  -0.68148  -0.68071  -0.61345  -0.60679
 Alpha  occ. eigenvalues --   -0.56947  -0.54122  -0.54071  -0.53750  -0.50812
 Alpha  occ. eigenvalues --   -0.50778  -0.48034  -0.45661  -0.44412  -0.41193
 Alpha  occ. eigenvalues --   -0.40380  -0.40263  -0.39081  -0.38915  -0.38875
 Alpha  occ. eigenvalues --   -0.38098  -0.37427  -0.37280  -0.35718  -0.35680
 Alpha  occ. eigenvalues --   -0.34778  -0.34738  -0.34359  -0.32390  -0.32270
 Alpha  occ. eigenvalues --   -0.31646  -0.30494  -0.30117  -0.29944  -0.29705
 Alpha  occ. eigenvalues --   -0.28807  -0.28519  -0.27901  -0.27705  -0.23658
 Alpha  occ. eigenvalues --   -0.23527  -0.22224  -0.22175  -0.21105  -0.20698
 Alpha  occ. eigenvalues --   -0.20529  -0.20180  -0.19831  -0.19276  -0.18780
 Alpha  occ. eigenvalues --   -0.18779  -0.18650  -0.17561  -0.15188  -0.14378
 Alpha  occ. eigenvalues --   -0.07713
 Alpha virt. eigenvalues --    0.03035   0.04364   0.05585   0.05694   0.05695
 Alpha virt. eigenvalues --    0.05733   0.06680   0.07660   0.07711   0.08893
 Alpha virt. eigenvalues --    0.09144   0.10613   0.10814   0.10963   0.11867

  Beta  occ. eigenvalues --  -88.94822 -88.94822 -19.01176 -19.01176 -19.01077
  Beta  occ. eigenvalues --  -19.01075 -18.97985 -18.97985 -10.13996 -10.13995
  Beta  occ. eigenvalues --  -10.12277 -10.12277 -10.11217 -10.11217 -10.11028
  Beta  occ. eigenvalues --  -10.11028 -10.10938 -10.10937 -10.10702 -10.10701
  Beta  occ. eigenvalues --  -10.10543 -10.10542 -10.10474 -10.10471 -10.08596
  Beta  occ. eigenvalues --  -10.08595  -8.01188  -8.01188  -5.97451  -5.97451
  Beta  occ. eigenvalues --   -5.97367  -5.97367  -5.97305  -5.97305  -1.00480
  Beta  occ. eigenvalues --   -1.00471  -0.90370  -0.90219  -0.89937  -0.89798
  Beta  occ. eigenvalues --   -0.79297  -0.79296  -0.74465  -0.70117  -0.69391
  Beta  occ. eigenvalues --   -0.68163  -0.68145  -0.67936  -0.60545  -0.60527
  Beta  occ. eigenvalues --   -0.56694  -0.54106  -0.54069  -0.53650  -0.50712
  Beta  occ. eigenvalues --   -0.50396  -0.47940  -0.45622  -0.44312  -0.41124
  Beta  occ. eigenvalues --   -0.40241  -0.39971  -0.39073  -0.38849  -0.38838
  Beta  occ. eigenvalues --   -0.38059  -0.37412  -0.37260  -0.35693  -0.35675
  Beta  occ. eigenvalues --   -0.34666  -0.34525  -0.34333  -0.31936  -0.31029
  Beta  occ. eigenvalues --   -0.30998  -0.30368  -0.30065  -0.29878  -0.29333
  Beta  occ. eigenvalues --   -0.28553  -0.27879  -0.27567  -0.25911  -0.23614
  Beta  occ. eigenvalues --   -0.23445  -0.22176  -0.22088  -0.20862  -0.20446
  Beta  occ. eigenvalues --   -0.20419  -0.20156  -0.19168  -0.19036  -0.18744
  Beta  occ. eigenvalues --   -0.18679  -0.16974  -0.16172  -0.14493  -0.13763
  Beta virt. eigenvalues --   -0.00500   0.03520   0.04496   0.05588   0.05710
  Beta virt. eigenvalues --    0.05722   0.05739   0.07660   0.07682   0.07797
  Beta virt. eigenvalues --    0.08910   0.09145   0.10825   0.10974   0.11445

 Mulliken charges and spin densities:
               1          2
     1  C   -0.593587   0.030484
     2  C   -0.387534   0.126052
     3  C    0.419743   0.088021
     4  C   -0.592789   0.030525
     5  C   -0.388052   0.126032
     6  C    0.421352   0.088070
     7  O   -0.285437   0.277146
     8  O   -0.285491   0.277115
     9  S    0.254208  -0.032596
    10  C    0.379296   0.002356
    11  C   -0.220738   0.021236
    12  C    0.057735  -0.000149
    13  C   -0.497511  -0.000706
    14  C   -0.392804  -0.003979
    15  C   -0.265892   0.001987
    16  O   -0.080569   0.005738
    17  O   -0.166494  -0.002784
    18  H    0.297145  -0.001418
    19  H    0.240858   0.000790
    20  H    0.169422   0.000031
    21  H    0.159624   0.000019
    22  H    0.140941  -0.000138
    23  S    0.254747  -0.032566
    24  C    0.377847   0.002317
    25  C    0.058614  -0.000121
    26  C   -0.220925   0.021231
    27  C   -0.392711  -0.003981
    28  C   -0.496975  -0.000702
    29  C   -0.265920   0.001988
    30  H    0.270311  -0.012114
    31  H    0.270266  -0.012112
    32  H    0.240907   0.000787
    33  H    0.297228  -0.001426
    34  H    0.169429   0.000031
    35  H    0.159610   0.000019
    36  H    0.140936  -0.000137
    37  O   -0.080397   0.005735
    38  O   -0.166393  -0.002782
 Sum of Mulliken charges =  -1.00000   1.00000

 Dipole moment (field-independent basis, Debye):
    X=             -0.6131    Y=              2.5707    Z=              5.3661  Tot=              5.9816
 Quadrupole moment (field-independent basis, Debye-Ang):
   XX=           -218.7321   YY=           -168.4035   ZZ=           -187.9945
   XY=             -8.7550   XZ=            -13.3255   YZ=              6.2782

  Exact polarizability: 342.788  40.995 273.137 -26.896 -12.254 262.088
 Approx polarizability: 431.312  49.289 462.185 -73.279 -71.648 494.326

                      1                      2                      3
                      A                      A                      A
 Frequencies --     17.3894                19.7439                37.0364
 Red. masses --      6.1529                 5.7608                 4.6245
 Frc consts  --      0.0011                 0.0013                 0.0037
 IR Inten    --      0.5767                 0.0170                 0.3295

                      4                      5                      6
                      A                      A                      A
 Frequencies --     41.1927                53.2693                74.3611
 Red. masses --      7.7489                 5.3133                 5.9046
 Frc consts  --      0.0077                 0.0089                 0.0192
 IR Inten    --      1.6450                 0.0431                 2.0215

                      7                      8                      9
                      A                      A                      A
 Frequencies --     87.9862               123.2748               158.5923
 Red. masses --      7.1022                11.2742                11.6701
 Frc consts  --      0.0324                 0.1009                 0.1729
 IR Inten    --      0.3069                 0.2833                11.2426

                     10                     11                     12
                      A                      A                      A
 Frequencies --    161.0360               175.0199               179.1416
 Red. masses --      6.1572                 7.2508                 6.6768
 Frc consts  --      0.0941                 0.1309                 0.1262
 IR Inten    --      5.7087                 0.4012                 1.1893

                     13                     14                     15
                      A                      A                      A
 Frequencies --    179.4902               190.9869               244.7323
 Red. masses --      7.0345                10.5071                 8.1990
 Frc consts  --      0.1335                 0.2258                 0.2893
 IR Inten    --      2.1539                 1.1413                 0.0132

                     16                     17                     18
                      A                      A                      A
 Frequencies --    248.5772               274.5942               276.1186
 Red. masses --      5.8754                12.5514                 9.1543
 Frc consts  --      0.2139                 0.5576                 0.4112
 IR Inten    --      1.7444                 0.1267                 4.0556

                     19                     20                     21
                      A                      A                      A
 Frequencies --    297.7763               299.9171               302.1050
 Red. masses --     10.2361                 8.4138                11.3797
 Frc consts  --      0.5348                 0.4459                 0.6119
 IR Inten    --      1.8378                 3.3660                 1.2425

                     22                     23                     24
                      A                      A                      A
 Frequencies --    374.1660               397.3885               413.2789
 Red. masses --      8.7909                 6.8991                 2.8777
 Frc consts  --      0.7251                 0.6419                 0.2896
 IR Inten    --      3.0488                 0.2161                 0.2490

                     25                     26                     27
                      A                      A                      A
 Frequencies --    413.7033               430.0357               431.0478
 Red. masses --      2.8792                 9.9836                 4.3261
 Frc consts  --      0.2903                 1.0878                 0.4736
 IR Inten    --      0.5780                 5.0951                 0.6018

                     28                     29                     30
                      A                      A                      A
 Frequencies --    444.5784               459.3925               481.9497
 Red. masses --      7.8622                 5.2153                10.5921
 Frc consts  --      0.9156                 0.6485                 1.4496
 IR Inten    --     32.5959                 0.1216                 0.6485

                     31                     32                     33
                      A                      A                      A
 Frequencies --    492.6895               527.0952               554.6709
 Red. masses --      5.1795                 7.2652                12.0792
 Frc consts  --      0.7408                 1.1893                 2.1896
 IR Inten    --      4.6242                75.5910                16.7306

                     34                     35                     36
                      A                      A                      A
 Frequencies --    574.4653               607.0077               622.8998
 Red. masses --      7.8282                 9.3491                 5.9895
 Frc consts  --      1.5221                 2.0296                 1.3692
 IR Inten    --     32.2056               520.2629                 0.3921

                     37                     38                     39
                      A                      A                      A
 Frequencies --    628.0980               628.4796               686.2119
 Red. masses --      6.4372                 6.4256                 6.9324
 Frc consts  --      1.4962                 1.4954                 1.9233
 IR Inten    --      2.8281                 0.0625                 2.9851

                     40                     41                     42
                      A                      A                      A
 Frequencies --    696.7644               701.0790               702.4709
 Red. masses --      5.5731                 1.8229                 1.9426
 Frc consts  --      1.5941                 0.5279                 0.5648
 IR Inten    --      1.8937               109.8317                13.0932

                     43                     44                     45
                      A                      A                      A
 Frequencies --    715.4092               733.4686               739.3878
 Red. masses --      7.0529                 8.2283                 3.4556
 Frc consts  --      2.1268                 2.6081                 1.1130
 IR Inten    --    101.9098                58.8807                 6.1299

                     46                     47                     48
                      A                      A                      A
 Frequencies --    764.2215               765.0116               845.4139
 Red. masses --      1.8154                 1.8302                 5.3738
 Frc consts  --      0.6247                 0.6311                 2.2629
 IR Inten    --      7.9673                 7.6108                 9.6239

                     49                     50                     51
                      A                      A                      A
 Frequencies --    849.6890               849.9156               899.3488
 Red. masses --      1.2540                 1.2507                 1.5270
 Frc consts  --      0.5334                 0.5323                 0.7277
 IR Inten    --      0.5882                 0.4169                 0.3210

                     52                     53                     54
                      A                      A                      A
 Frequencies --    919.9654               925.1882               937.1152
 Red. masses --      5.4413                 1.6820                 1.3858
 Frc consts  --      2.7133                 0.8483                 0.7171
 IR Inten    --     29.6601                 7.3213                 1.6384

                     55                     56                     57
                      A                      A                      A
 Frequencies --    937.3697               985.4054               985.8546
 Red. masses --      1.3874                 1.4017                 1.3816
 Frc consts  --      0.7182                 0.8019                 0.7911
 IR Inten    --      1.1475                 1.4845                 0.3756

                     58                     59                     60
                      A                      A                      A
 Frequencies --    994.9250               995.0224               999.9580
 Red. masses --      1.3140                 1.3047                 2.9638
 Frc consts  --      0.7664                 0.7611                 1.7461
 IR Inten    --      0.4016                 0.0905                 0.2319

                     61                     62                     63
                      A                      A                      A
 Frequencies --   1014.6832              1015.2295              1041.4845
 Red. masses --      5.8887                 5.6094                 3.5293
 Frc consts  --      3.5722                 3.4064                 2.2555
 IR Inten    --      1.0284                 7.1827                22.7716

                     64                     65                     66
                      A                      A                      A
 Frequencies --   1042.2307              1067.0240              1067.2421
 Red. masses --      3.2922                 3.8637                 3.9145
 Frc consts  --      2.1070                 2.5918                 2.6270
 IR Inten    --     15.5710               169.7677               127.9498

                     67                     68                     69
                      A                      A                      A
 Frequencies --   1096.4572              1096.8245              1109.5496
 Red. masses --      1.5875                 1.5894                 4.3956
 Frc consts  --      1.1245                 1.1265                 3.1883
 IR Inten    --     12.8036                10.5629               114.0443

                     70                     71                     72
                      A                      A                      A
 Frequencies --   1109.9393              1148.2940              1178.3154
 Red. masses --      4.4552                 9.4132                 1.1164
 Frc consts  --      3.2338                 7.3129                 0.9132
 IR Inten    --    146.1798                 0.0383                 0.1038

                     73                     74                     75
                      A                      A                      A
 Frequencies --   1178.3807              1197.7838              1198.2987
 Red. masses --      1.1163                 1.1528                 1.1527
 Frc consts  --      0.9132                 0.9745                 0.9752
 IR Inten    --      0.0927                 8.2794                 5.5004

                     76                     77                     78
                      A                      A                      A
 Frequencies --   1218.6036              1249.4774              1250.2057
 Red. masses --      1.3925                18.5961                12.6524
 Frc consts  --      1.2183                17.1052                11.6516
 IR Inten    --      6.2547               176.3766               114.1883

                     79                     80                     81
                      A                      A                      A
 Frequencies --   1302.7555              1330.3166              1330.7643
 Red. masses --      2.1316                 2.8591                 2.9164
 Frc consts  --      2.1315                 2.9812                 3.0430
 IR Inten    --     51.1265                 0.1432                 0.2770

                     82                     83                     84
                      A                      A                      A
 Frequencies --   1345.3601              1345.8523              1396.6223
 Red. masses --      1.8226                 1.7870                 5.8424
 Frc consts  --      1.9436                 1.9070                 6.7143
 IR Inten    --      3.0084                 3.6179                 1.5289

                     85                     86                     87
                      A                      A                      A
 Frequencies --   1471.9299              1472.7002              1476.9965
 Red. masses --      2.3559                 2.1628                 4.1184
 Frc consts  --      3.0074                 2.7637                 5.2934
 IR Inten    --     52.7615                 6.9107               128.0703

                     88                     89                     90
                      A                      A                      A
 Frequencies --   1506.1394              1506.4292              1518.0382
 Red. masses --      2.0393                 2.0387                11.7933
 Frc consts  --      2.7256                 2.7259                16.0122
 IR Inten    --     10.0032                 8.5806                 1.2519

                     91                     92                     93
                      A                      A                      A
 Frequencies --   1539.4134              1620.1099              1622.3218
 Red. masses --     11.1217                 6.4835                 5.4061
 Frc consts  --     15.5286                10.0266                 8.3832
 IR Inten    --    422.6713                 0.2234                 1.7650

                     94                     95                     96
                      A                      A                      A
 Frequencies --   1622.7746              1623.1922              1626.5796
 Red. masses --      5.4190                 5.7772                 6.9436
 Frc consts  --      8.4079                 8.9682                10.8239
 IR Inten    --      0.0096                 1.3287                 0.8142

                     97                     98                     99
                      A                      A                      A
 Frequencies --   3153.3441              3153.3579              3168.4133
 Red. masses --      1.0853                 1.0853                 1.0900
 Frc consts  --      6.3584                 6.3585                 6.4469
 IR Inten    --      1.7970                 1.8272                22.9973

                    100                    101                    102
                      A                      A                      A
 Frequencies --   3168.4673              3178.9269              3179.0083
 Red. masses --      1.0900                 1.0953                 1.0953
 Frc consts  --      6.4472                 6.5215                 6.5217
 IR Inten    --     22.8734                34.2836                31.4383

                    103                    104                    105
                      A                      A                      A
 Frequencies --   3194.7599              3196.7789              3199.9745
 Red. masses --      1.0892                 1.0901                 1.0930
 Frc consts  --      6.5501                 6.5633                 6.5942
 IR Inten    --     15.7542                 0.4007                 5.0757

                    106                    107                    108
                      A                      A                      A
 Frequencies --   3200.1445              3224.9034              3224.9331
 Red. masses --      1.0930                 1.0929                 1.0929
 Frc consts  --      6.5948                 6.6968                 6.6969
 IR Inten    --      6.7015                 8.1507                 9.4328

 - Thermochemistry -
 -------------------
 Temperature   298.150 Kelvin.  Pressure   1.00000 Atm.
 Atom     1 has atomic number  6 and mass  12.00000

 Molecular mass:   388.00753 amu.
 Principal axes and moments of inertia in atomic units:
                           1         2         3
     Eigenvalues --  5412.12150********************
           X            0.96614  -0.24225   0.08886
           Y            0.25472   0.84036  -0.47845
           Z            0.04124   0.48488   0.87361
 This molecule is an asymmetric top.
 Rotational symmetry number  1.
 Warning -- assumption of classical behavior for rotation
           may cause significant error
 Rotational temperatures (Kelvin)      0.01600     0.00463     0.00436
 Rotational constants (GHZ):           0.33346     0.09639     0.09085
 Zero-point vibrational energy     692241.9 (Joules/Mol)
                                  165.44980 (Kcal/Mol)
 Warning -- explicit consideration of  35 degrees of freedom as
           vibrations may cause significant error
 Vibrational temperatures:     25.02    28.41    53.29    59.27    76.64
          (Kelvin)            106.99   126.59   177.36   228.18   231.69
                              251.81   257.74   258.25   274.79   352.12
                              357.65   395.08   397.27   428.43   431.51
                              434.66   538.34   571.75   594.62   595.23
                              618.73   620.18   639.65   660.96   693.42
                              708.87   758.37   798.05   826.53   873.35
                              896.21   903.69   904.24   987.31  1002.49
                             1008.70  1010.70  1029.31  1055.30  1063.81
                             1099.54  1100.68  1216.36  1222.51  1222.84
                             1293.96  1323.63  1331.14  1348.30  1348.67
                             1417.78  1418.42  1431.48  1431.62  1438.72
                             1459.90  1460.69  1498.46  1499.54  1535.21
                             1535.52  1577.56  1578.09  1596.39  1596.96
                             1652.14  1695.33  1695.43  1723.34  1724.08
                             1753.30  1797.72  1798.77  1874.37  1914.03
                             1914.67  1935.67  1936.38  2009.43  2117.78
                             2118.89  2125.07  2167.00  2167.42  2184.12
                             2214.87  2330.98  2334.16  2334.81  2335.41
                             2340.29  4536.96  4536.98  4558.64  4558.72
                             4573.77  4573.88  4596.55  4599.45  4604.05
                             4604.29  4639.92  4639.96

 Zero-point correction=                           0.263661 (Hartree/Particle)
 Thermal correction to Energy=                    0.285894
 Thermal correction to Enthalpy=                  0.286838
 Thermal correction to Gibbs Free Energy=         0.209243
 Sum of electronic and zero-point Energies=          -1940.897384
 Sum of electronic and thermal Energies=             -1940.875151
 Sum of electronic and thermal Enthalpies=           -1940.874207
 Sum of electronic and thermal Free Energies=        -1940.951802

                     E (Thermal)             CV                S
                      KCal/Mol        Cal/Mol-Kelvin    Cal/Mol-Kelvin
 Total                  179.401             85.657            163.312
 Electronic               0.000              0.000              1.377
 Translational            0.889              2.981             43.760
 Rotational               0.889              2.981             35.952
 Vibrational            177.623             79.696             82.223
 Vibration     1          0.593              1.986              6.912
 Vibration     2          0.593              1.986              6.660
 Vibration     3          0.594              1.982              5.412
 Vibration     4          0.594              1.981              5.201
 Vibration     5          0.596              1.976              4.692
 Vibration     6          0.599              1.966              4.034
 Vibration     7          0.601              1.958              3.704
 Vibration     8          0.610              1.930              3.048
 Vibration     9          0.621              1.893              2.567
 Vibration    10          0.622              1.890              2.538
 Vibration    11          0.627              1.873              2.381
 Vibration    12          0.629              1.868              2.337
 Vibration    13          0.629              1.867              2.334
 Vibration    14          0.634              1.852              2.218
 Vibration    15          0.660              1.771              1.768
 Vibration    16          0.662              1.765              1.741
 Vibration    17          0.677              1.720              1.567
 Vibration    18          0.678              1.718              1.558
 Vibration    19          0.691              1.678              1.429
 Vibration    20          0.692              1.674              1.417
 Vibration    21          0.694              1.670              1.405
 Vibration    22          0.745              1.525              1.063
 Vibration    23          0.764              1.476              0.972
 Vibration    24          0.777              1.441              0.915
 Vibration    25          0.777              1.440              0.914
 Vibration    26          0.791              1.405              0.859
 Vibration    27          0.792              1.403              0.855
 Vibration    28          0.804              1.373              0.812
 Vibration    29          0.817              1.340              0.768
 Vibration    30          0.838              1.290              0.705
 Vibration    31          0.848              1.266              0.677
 Vibration    32          0.882              1.190              0.594
 Vibration    33          0.910              1.129              0.535
 Vibration    34          0.931              1.086              0.496
 Vibration    35          0.966              1.017              0.438

 Optimization completed.
    -- Stationary point found.
 Normal termination of Gaussian 16 at Wed Dec 20 08:42:13 2023.
