 Q-Chem 5.4, Q-Chem, Inc., Pleasanton, CA (2021)
 Q-Chem 5.4.0 for Intel X86 EM64T Linux

User input:
--------------------------------------------------------------
$molecule
0 1
C                  0.6534080000      1.4177030000      0.4012650000
C                 -0.5233380000      0.6029540000      0.0390780000
C                 -0.4181840000     -0.6612420000     -0.3974290000
C                  0.9443000000     -1.2735740000     -0.5195150000
C                  2.1481280000     -0.4645060000     -0.1531080000
C                  2.0149480000      0.8109120000      0.2783680000
C                  3.1878940000      1.6711150000      0.6538330000
C                  3.4867950000     -1.1342140000     -0.2959570000
O                  0.5062600000      2.5663840000      0.7954280000
O                  1.0610790000     -2.4242910000     -0.9138830000
C                 -1.5877910000     -1.5427660000     -0.7701980000
C                 -2.9069080000     -0.8322430000     -0.8881250000
C                 -3.9827160000     -0.9544840000     -0.0996560000
C                 -4.0629390000     -1.8415100000      1.1166520000
C                 -5.2445630000     -0.1800880000     -0.3915580000
H                 -1.4842380000      1.0918910000      0.1539010000
H                  3.8839960000      1.7727010000     -0.1848000000
H                  3.7497970000      1.2271700000      1.4821550000
H                  2.8518860000      2.6624010000      0.9532010000
H                  3.3664340000     -2.1661370000     -0.6204360000
H                  4.0329770000     -1.1236750000      0.6523710000
H                  4.1094440000     -0.6095210000     -1.0281120000
H                 -1.6296830000     -2.3673520000     -0.0523240000
H                 -1.3410180000     -2.0265700000     -1.7226630000
H                 -2.9798900000     -0.1476970000     -1.7317830000
H                 -3.1374810000     -2.3773070000      1.3260660000
H                 -4.8631720000     -2.5813800000      0.9995750000
H                 -4.3149980000     -1.2484350000      2.0031260000
H                 -5.1406510000      0.4490000000     -1.2776090000
H                 -5.5149680000      0.4613620000      0.4552190000
H                 -6.0902620000     -0.8590660000     -0.5517360000
$end

$rem
BASIS  =  6-311++G(d,p)
GUI  =  2
JOB_TYPE  =  SP
METHOD  =  B3LYP
SCF_CONVERGENCE  = 8
SOLVENT_METHOD = sm12
$end

$smx
solvent dimethylformamide
charges CM5
$end

--------------------------------------------------------------

             Standard Nuclear Orientation (Angstroms)
    I     Atom           X                Y                Z
 ----------------------------------------------------------------
    1      C       0.6534080000     1.4177030000     0.4012650000
    2      C      -0.5233380000     0.6029540000     0.0390780000
    3      C      -0.4181840000    -0.6612420000    -0.3974290000
    4      C       0.9443000000    -1.2735740000    -0.5195150000
    5      C       2.1481280000    -0.4645060000    -0.1531080000
    6      C       2.0149480000     0.8109120000     0.2783680000
    7      C       3.1878940000     1.6711150000     0.6538330000
    8      C       3.4867950000    -1.1342140000    -0.2959570000
    9      O       0.5062600000     2.5663840000     0.7954280000
   10      O       1.0610790000    -2.4242910000    -0.9138830000
   11      C      -1.5877910000    -1.5427660000    -0.7701980000
   12      C      -2.9069080000    -0.8322430000    -0.8881250000
   13      C      -3.9827160000    -0.9544840000    -0.0996560000
   14      C      -4.0629390000    -1.8415100000     1.1166520000
   15      C      -5.2445630000    -0.1800880000    -0.3915580000
   16      H      -1.4842380000     1.0918910000     0.1539010000
   17      H       3.8839960000     1.7727010000    -0.1848000000
   18      H       3.7497970000     1.2271700000     1.4821550000
   19      H       2.8518860000     2.6624010000     0.9532010000
   20      H       3.3664340000    -2.1661370000    -0.6204360000
   21      H       4.0329770000    -1.1236750000     0.6523710000
   22      H       4.1094440000    -0.6095210000    -1.0281120000
   23      H      -1.6296830000    -2.3673520000    -0.0523240000
   24      H      -1.3410180000    -2.0265700000    -1.7226630000
   25      H      -2.9798900000    -0.1476970000    -1.7317830000
   26      H      -3.1374810000    -2.3773070000     1.3260660000
   27      H      -4.8631720000    -2.5813800000     0.9995750000
   28      H      -4.3149980000    -1.2484350000     2.0031260000
   29      H      -5.1406510000     0.4490000000    -1.2776090000
   30      H      -5.5149680000     0.4613620000     0.4552190000
   31      H      -6.0902620000    -0.8590660000    -0.5517360000
 ----------------------------------------------------------------

   14    -655.6213239793      9.26e-09  Convergence criterion met
 Total energy in the final basis set =     -655.6362840756

                    Orbital Energies (a.u.)
 --------------------------------------------------------------

 Alpha MOs
 -- Occupied --
-19.1353 -19.1318 -10.2796 -10.2767 -10.2146 -10.2087 -10.2079 -10.1970
-10.1852 -10.1832 -10.1705 -10.1700 -10.1669 -10.1647 -10.1622  -1.0670
 -1.0619  -0.8663  -0.8332  -0.8079  -0.7487  -0.7456  -0.6950  -0.6893
 -0.6852  -0.6420  -0.5925  -0.5760  -0.5380  -0.5166  -0.4908  -0.4756
 -0.4638  -0.4585  -0.4484  -0.4371  -0.4312  -0.4261  -0.4217  -0.4180
 -0.4130  -0.4081  -0.3983  -0.3899  -0.3859  -0.3798  -0.3767  -0.3724
 -0.3629  -0.3370  -0.2974  -0.2873  -0.2726  -0.2715  -0.2456

          Ground-State Mulliken Net Atomic Charges

     Atom                 Charge (a.u.)
  ----------------------------------------
      1 C                    -1.646609
      2 C                    -0.968568
      3 C                     1.247990
      4 C                    -1.558518
      5 C                     0.219142
      6 C                     1.181537
      7 C                    -0.041755
      8 C                    -0.002049
      9 O                    -0.308568
     10 O                    -0.252457
     11 C                    -0.207742
     12 C                     0.333813
     13 C                    -0.117204
     14 C                    -0.463766
     15 C                    -0.451120
     16 H                     0.216426
     17 H                     0.220076
     18 H                     0.222592
     19 H                     0.164016
     20 H                     0.184655
     21 H                     0.213515
     22 H                     0.215386
     23 H                     0.216569
     24 H                     0.213343
     25 H                     0.192744
     26 H                     0.138958
     27 H                     0.169851
     28 H                     0.168090
     29 H                     0.170667
     30 H                     0.167661
     31 H                     0.161326
  ----------------------------------------
  Sum of atomic charges =     0.000000

                    Cartesian Multipole Moments
 -----------------------------------------------------------------
    Charge (ESU x 10^10)
                -0.0000
    Dipole Moment (Debye)
         X       0.0683      Y      -0.8621      Z       0.1700
       Tot       0.8814
    Quadrupole Moments (Debye-Ang)
        XX     -73.2198     XY       4.0704     YY    -105.9131
        XZ       0.1162     YZ      -6.5981     ZZ     -91.2287

 Total job time:  660.42s(wall), 4939.19s(cpu)
        *  Thank you very much for using Q-Chem.  Have a nice day.  *
