 Q-Chem 5.4, Q-Chem, Inc., Pleasanton, CA (2021)
 Q-Chem 5.4.0 for Intel X86 EM64T Linux

User input:
--------------------------------------------------------------
$molecule
-1 2
C                  5.0191580000     -2.3964690000      0.5722360000
C                  5.8235520000     -1.7070930000     -0.3146570000
C                  5.2376280000     -0.8973770000     -1.3090160000
C                  3.6140730000     -2.3050610000      0.5016410000
C                  3.0224160000     -1.4890560000     -0.5000420000
C                  3.8630290000     -0.7938440000     -1.3955030000
C                  2.8013770000     -3.0576650000      1.4696260000
C                  1.3482370000     -2.9127960000      1.3347920000
C                  0.7575780000     -2.0899590000      0.3242570000
C                  1.5658480000     -1.3473280000     -0.6333020000
C                  0.5161560000     -3.6082370000      2.2271770000
C                 -0.6539100000     -1.9965850000      0.2573410000
C                 -1.4651000000     -2.6776050000      1.1332780000
O                  3.3194660000     -3.7762680000      2.3490470000
O                  1.0519000000     -0.6255510000     -1.5231270000
H                  5.4400110000     -3.0264370000      1.3472190000
H                  6.9040860000     -1.7876690000     -0.2471330000
H                  5.8686990000     -0.3549000000     -2.0065690000
H                 -2.5433500000     -2.5950690000      1.0887320000
H                  3.3867690000     -0.1787320000     -2.1499340000
H                  0.9776670000     -4.2249230000      2.9882570000
H                 -1.0740960000     -1.3611460000     -0.5130410000
C                 -0.8576830000     -3.4883420000      2.1256240000
S                 -1.8865330000     -4.3984290000      3.2295080000
O                 -1.1711360000     -4.7944730000      4.4411070000
O                 -3.2001300000     -3.7648400000      3.3632570000
O                 -2.1076840000     -5.7772810000      2.3169790000
C                 -2.9231170000     -6.7898650000      2.9291520000
H                 -2.4723500000     -7.1365130000      3.8625950000
H                 -2.9572990000     -7.6063670000      2.2086890000
H                 -3.9330130000     -6.4141600000      3.1141680000
$end

$rem
BASIS  =  6-311++G(d,p)
GUI  =  2
JOB_TYPE  =  SP
METHOD  =  B3LYP
SCF_CONVERGENCE  = 8
SOLVENT_METHOD = sm12
$end

$smx
solvent dimethylformamide
charges CM5
$end

--------------------------------------------------------------

             Standard Nuclear Orientation (Angstroms)
    I     Atom           X                Y                Z
 ----------------------------------------------------------------
    1      C       5.0191580000    -2.3964690000     0.5722360000
    2      C       5.8235520000    -1.7070930000    -0.3146570000
    3      C       5.2376280000    -0.8973770000    -1.3090160000
    4      C       3.6140730000    -2.3050610000     0.5016410000
    5      C       3.0224160000    -1.4890560000    -0.5000420000
    6      C       3.8630290000    -0.7938440000    -1.3955030000
    7      C       2.8013770000    -3.0576650000     1.4696260000
    8      C       1.3482370000    -2.9127960000     1.3347920000
    9      C       0.7575780000    -2.0899590000     0.3242570000
   10      C       1.5658480000    -1.3473280000    -0.6333020000
   11      C       0.5161560000    -3.6082370000     2.2271770000
   12      C      -0.6539100000    -1.9965850000     0.2573410000
   13      C      -1.4651000000    -2.6776050000     1.1332780000
   14      O       3.3194660000    -3.7762680000     2.3490470000
   15      O       1.0519000000    -0.6255510000    -1.5231270000
   16      H       5.4400110000    -3.0264370000     1.3472190000
   17      H       6.9040860000    -1.7876690000    -0.2471330000
   18      H       5.8686990000    -0.3549000000    -2.0065690000
   19      H      -2.5433500000    -2.5950690000     1.0887320000
   20      H       3.3867690000    -0.1787320000    -2.1499340000
   21      H       0.9776670000    -4.2249230000     2.9882570000
   22      H      -1.0740960000    -1.3611460000    -0.5130410000
   23      C      -0.8576830000    -3.4883420000     2.1256240000
   24      S      -1.8865330000    -4.3984290000     3.2295080000
   25      O      -1.1711360000    -4.7944730000     4.4411070000
   26      O      -3.2001300000    -3.7648400000     3.3632570000
   27      O      -2.1076840000    -5.7772810000     2.3169790000
   28      C      -2.9231170000    -6.7898650000     2.9291520000
   29      H      -2.4723500000    -7.1365130000     3.8625950000
   30      H      -2.9572990000    -7.6063670000     2.2086890000
   31      H      -3.9330130000    -6.4141600000     3.1141680000
 ----------------------------------------------------------------

   19   -1352.2317745522      6.37e-09  Convergence criterion met
 Total energy in the final basis set =    -1352.3178795933

                    Orbital Energies (a.u.)
 --------------------------------------------------------------

 Alpha MOs
 -- Occupied --
-89.0836 -19.1687 -19.1319 -19.1314 -19.0878 -19.0834 -10.2390 -10.2321
-10.2261 -10.2212 -10.2020 -10.1983 -10.1907 -10.1901 -10.1884 -10.1866
-10.1860 -10.1860 -10.1851 -10.1825 -10.1815  -8.1446  -6.1084  -6.1066
 -6.1051  -1.1489  -1.0396  -1.0229  -1.0168  -1.0094  -0.8844  -0.8677
 -0.8113  -0.7807  -0.7644  -0.7619  -0.7323  -0.6858  -0.6673  -0.6424
 -0.6149  -0.6032  -0.5731  -0.5607  -0.5471  -0.5251  -0.5068  -0.4941
 -0.4814  -0.4763  -0.4710  -0.4544  -0.4530  -0.4477  -0.4360  -0.4351
 -0.4292  -0.4209  -0.4190  -0.4053  -0.4002  -0.3899  -0.3855  -0.3720
 -0.3626  -0.3550  -0.3495  -0.3484  -0.3454  -0.3308  -0.3287  -0.2975
 -0.2834  -0.2792  -0.2669  -0.2655  -0.2549  -0.2457  -0.1542

 Beta MOs
 -- Occupied --
-89.0836 -19.1686 -19.1319 -19.1314 -19.0825 -19.0770 -10.2380 -10.2308
-10.2261 -10.2203 -10.2025 -10.1973 -10.1896 -10.1888 -10.1883 -10.1861
-10.1858 -10.1854 -10.1847 -10.1825 -10.1814  -8.1446  -6.1083  -6.1066
 -6.1051  -1.1487  -1.0394  -1.0228  -1.0078  -0.9983  -0.8820  -0.8663
 -0.8074  -0.7786  -0.7626  -0.7603  -0.7309  -0.6801  -0.6652  -0.6402
 -0.6136  -0.6025  -0.5714  -0.5592  -0.5454  -0.5242  -0.5054  -0.4933
 -0.4790  -0.4755  -0.4700  -0.4539  -0.4528  -0.4474  -0.4355  -0.4285
 -0.4230  -0.4169  -0.4155  -0.4034  -0.3987  -0.3818  -0.3710  -0.3673
 -0.3616  -0.3491  -0.3476  -0.3450  -0.3441  -0.3307  -0.3267  -0.2973
 -0.2744  -0.2629  -0.2597  -0.2563  -0.2497  -0.2401

          Ground-State Mulliken Net Atomic Charges

     Atom                 Charge (a.u.)    Spin (a.u.)
  --------------------------------------------------------
      1 C                    -0.059331       0.012367
      2 C                     1.043404       0.036256
      3 C                     1.027040       0.016215
      4 C                    -0.285846       0.028982
      5 C                    -0.612960       0.012196
      6 C                     0.082312       0.036291
      7 C                    -1.644034       0.047620
      8 C                    -0.657497       0.084064
      9 C                    -0.780117       0.103728
     10 C                    -2.028393       0.066528
     11 C                     0.016977      -0.024690
     12 C                     0.142418       0.021726
     13 C                     0.722004       0.082632
     14 O                    -0.300191       0.197879
     15 O                    -0.299635       0.240503
     16 H                     0.159723      -0.001066
     17 H                     0.363373      -0.002725
     18 H                     0.365629      -0.001483
     19 H                     0.326221      -0.005340
     20 H                     0.164961      -0.002625
     21 H                     0.159795       0.001232
     22 H                     0.206373      -0.000933
     23 C                    -0.169443       0.040832
     24 S                     0.717874       0.006343
     25 O                    -0.187680       0.003087
     26 O                    -0.141223      -0.001363
     27 O                    -0.030862       0.000168
     28 C                     0.066934       0.001165
     29 H                     0.179714       0.000082
     30 H                     0.261864       0.000294
     31 H                     0.190596       0.000036
  --------------------------------------------------------
  Sum of atomic charges =    -1.000000

                    Cartesian Multipole Moments
 -----------------------------------------------------------------
    Charge (ESU x 10^10)
                -4.8032
    Dipole Moment (Debye)
         X      -5.9576      Y      11.2486      Z      -6.6112
       Tot      14.3434
    Quadrupole Moments (Debye-Ang)
        XX    -156.5481     XY      22.9493     YY    -161.5298
        XZ      -1.8171     YZ      30.1194     ZZ    -173.0901

 Total job time:  1049.24s(wall), 8145.86s(cpu)
        *  Thank you very much for using Q-Chem.  Have a nice day.  *
