 Gaussian 16, Revision A.03,
 Gaussian 16:  ES64L-G16RevA.03 25-Dec-2016

 --------------------------------------
 #P UB3LYP/6-311++G(d,p) nosym opt freq
 --------------------------------------

 -------
 Radical
 -------
 Symbolic Z-matrix:
 Charge = -1 Multiplicity = 2

 SCF Done:  E(UB3LYP) =  -649.843075436     A.U. after   23 cycles
 SCF Done:  E(UB3LYP) =  -649.866087006     A.U. after   20 cycles
 SCF Done:  E(UB3LYP) =  -649.870394375     A.U. after   17 cycles
 SCF Done:  E(UB3LYP) =  -649.872741903     A.U. after   16 cycles
 SCF Done:  E(UB3LYP) =  -649.873243242     A.U. after   14 cycles
 SCF Done:  E(UB3LYP) =  -649.873349245     A.U. after   14 cycles
 SCF Done:  E(UB3LYP) =  -649.873463464     A.U. after   15 cycles
 SCF Done:  E(UB3LYP) =  -649.873499841     A.U. after   14 cycles
 SCF Done:  E(UB3LYP) =  -649.873517382     A.U. after   13 cycles
 SCF Done:  E(UB3LYP) =  -649.873526396     A.U. after   13 cycles
 SCF Done:  E(UB3LYP) =  -649.873528230     A.U. after   12 cycles
 SCF Done:  E(UB3LYP) =  -649.873528448     A.U. after   11 cycles
 SCF Done:  E(UB3LYP) =  -649.873528554     A.U. after   10 cycles
 SCF Done:  E(UB3LYP) =  -649.873528571     A.U. after   10 cycles
 SCF Done:  E(UB3LYP) =  -649.873528579     A.U. after   10 cycles
 Optimization completed.
    -- Stationary point found.
 Normal termination of Gaussian 16 at Tue Dec 26 20:53:19 2023.

 ----------------------------------------------------------------------
 #P Geom=AllCheck Guess=TCheck SCRF=Check GenChk UB3LYP/6-311++G(d,p) F
 req
 ----------------------------------------------------------------------

 Structure from the checkpoint file:  "258-rad.chk"
 -------
 Radical
 -------
 Charge = -1 Multiplicity = 2

                          Input orientation:
 ---------------------------------------------------------------------
 Center     Atomic      Atomic             Coordinates (Angstroms)
 Number     Number       Type             X           Y           Z
 ---------------------------------------------------------------------
      1          6           0        3.312863   -0.946942   -0.100403
      2          8           0        1.934452   -1.154441    0.095129
      3          6           0        1.073945   -0.106358   -0.084419
      4          6           0        1.531357    1.154413   -0.455459
      5          6           0        0.624833    2.214853   -0.633375
      6          6           0       -0.722232    2.011482   -0.441221
      7          6           0       -1.212072    0.743668   -0.065016
      8          6           0       -2.672798    0.612587    0.120364
      9          8           0       -3.451073    1.592029   -0.049958
     10          6           0       -3.136325   -0.688488    0.502208
     11          6           0       -2.284770   -1.748329    0.685536
     12          6           0       -0.851314   -1.682348    0.519803
     13          8           0       -0.143924   -2.704394    0.708555
     14          6           0       -0.318271   -0.356223    0.124281
     15          1           0        3.786028   -1.909712    0.097658
     16          1           0        3.543409   -0.638310   -1.129388
     17          1           0        3.720990   -0.197032    0.591160
     18          1           0        2.586962    1.331998   -0.610740
     19          1           0        1.000943    3.191891   -0.923193
     20          1           0       -1.448868    2.804434   -0.569193
     21          1           0       -4.208163   -0.801049    0.642397
     22          1           0       -2.665971   -2.723731    0.975276
 ---------------------------------------------------------------------

 SCF Done:  E(UB3LYP) =  -649.873528579     A.U. after    1 cycles

 Alpha  occ. eigenvalues --  -19.03348 -18.93202 -18.92930 -10.12189 -10.11501
 Alpha  occ. eigenvalues --  -10.08363 -10.07983 -10.05319 -10.05025 -10.04755
 Alpha  occ. eigenvalues --  -10.04360 -10.03652 -10.02645 -10.02566  -0.95292
 Alpha  occ. eigenvalues --   -0.85561  -0.85299  -0.72887  -0.66917  -0.64092
 Alpha  occ. eigenvalues --   -0.61380  -0.58387  -0.53900  -0.48817  -0.48380
 Alpha  occ. eigenvalues --   -0.44081  -0.39430  -0.37797  -0.36486  -0.36369
 Alpha  occ. eigenvalues --   -0.34475  -0.32527  -0.31194  -0.29262  -0.28103
 Alpha  occ. eigenvalues --   -0.28051  -0.25681  -0.25656  -0.24320  -0.23050
 Alpha  occ. eigenvalues --   -0.22744  -0.22100  -0.21352  -0.19847  -0.13680
 Alpha  occ. eigenvalues --   -0.12421  -0.10566  -0.09792  -0.08832  -0.01218
 Alpha virt. eigenvalues --    0.07266   0.09224   0.10383   0.10727   0.10832
 Alpha virt. eigenvalues --    0.11139   0.11318   0.12740   0.13159   0.13825
 Alpha virt. eigenvalues --    0.14944   0.16992   0.17599   0.17728   0.18369

  Beta  occ. eigenvalues --  -19.03351 -18.92524 -18.92226 -10.12189 -10.11517
  Beta  occ. eigenvalues --  -10.08286 -10.07857 -10.05274 -10.04969 -10.04693
  Beta  occ. eigenvalues --  -10.04275 -10.03657 -10.02496 -10.02427  -0.95294
  Beta  occ. eigenvalues --   -0.84393  -0.84088  -0.72705  -0.66377  -0.64016
  Beta  occ. eigenvalues --   -0.61145  -0.58278  -0.53024  -0.48544  -0.48151
  Beta  occ. eigenvalues --   -0.43953  -0.39222  -0.37561  -0.36393  -0.36358
  Beta  occ. eigenvalues --   -0.34359  -0.32227  -0.31071  -0.29105  -0.27801
  Beta  occ. eigenvalues --   -0.27261  -0.25505  -0.25034  -0.23171  -0.22591
  Beta  occ. eigenvalues --   -0.21810  -0.21224  -0.20870  -0.19015  -0.11746
  Beta  occ. eigenvalues --   -0.10499  -0.09985  -0.09157  -0.08188
  Beta virt. eigenvalues --    0.05490   0.07265   0.09218   0.10736   0.11076
  Beta virt. eigenvalues --    0.11129   0.11140   0.12263   0.12745   0.13171
  Beta virt. eigenvalues --    0.13832   0.14945   0.17037   0.17633   0.17844

 Mulliken charges and spin densities:
               1          2
     1  C   -0.278845  -0.001355
     2  O   -0.091076  -0.002664
     3  C    0.244750   0.026278
     4  C   -0.079789   0.049679
     5  C   -0.386914   0.034878
     6  C   -0.010225   0.021615
     7  C    0.087796   0.044604
     8  C   -0.553523   0.072043
     9  O   -0.411485   0.246169
    10  C   -0.074117   0.067870
    11  C    0.065434   0.134064
    12  C   -0.505966   0.012502
    13  O   -0.390118   0.261632
    14  C    0.277145   0.059558
    15  H    0.171892  -0.000222
    16  H    0.125381   0.000790
    17  H    0.125461   0.000790
    18  H    0.119145  -0.003338
    19  H    0.132751  -0.002757
    20  H    0.150952  -0.002286
    21  H    0.139818  -0.007772
    22  H    0.141533  -0.012076
 Sum of Mulliken charges =  -1.00000   1.00000

 Dipole moment (field-independent basis, Debye):
    X=              8.2193    Y=              1.8760    Z=             -1.3338  Tot=              8.5355
 Quadrupole moment (field-independent basis, Debye-Ang):
   XX=           -107.6271   YY=           -109.5758   ZZ=            -88.3577
   XY=             12.0539   XZ=             -0.9803   YZ=              4.4561

  Exact polarizability: 217.483  -4.268 189.931 -12.718 -26.616  92.605
 Approx polarizability: 330.531 -27.836 331.948 -13.696 -48.933 143.902

                      1                      2                      3
                      A                      A                      A
 Frequencies --     46.9118                82.5653                92.3800
 Red. masses --      4.8654                 4.3525                 5.8083
 Frc consts  --      0.0063                 0.0175                 0.0292
 IR Inten    --      2.5913                 0.0029                 9.8698

                      4                      5                      6
                      A                      A                      A
 Frequencies --    178.6254               199.4553               240.7049
 Red. masses --      3.7051                 4.6384                 2.0392
 Frc consts  --      0.0697                 0.1087                 0.0696
 IR Inten    --      0.7788                 3.8359                 0.0181

                      7                      8                      9
                      A                      A                      A
 Frequencies --    289.5609               322.2556               323.9833
 Red. masses --      1.6926                 5.2163                 5.1208
 Frc consts  --      0.0836                 0.3192                 0.3167
 IR Inten    --      0.0474                 0.6237                 0.0054

                     10                     11                     12
                      A                      A                      A
 Frequencies --    342.5285               376.5668               457.5365
 Red. masses --      5.9964                 9.1844                11.0143
 Frc consts  --      0.4145                 0.7673                 1.3585
 IR Inten    --      4.4596                 3.8707                 2.2687

                     13                     14                     15
                      A                      A                      A
 Frequencies --    468.8656               507.8862               525.6235
 Red. masses --      4.3455                 5.9753                 7.2778
 Frc consts  --      0.5628                 0.9081                 1.1847
 IR Inten    --      0.1755                 0.2084                 2.5309

                     16                     17                     18
                      A                      A                      A
 Frequencies --    526.8799               621.8494               642.2984
 Red. masses --      3.5880                 4.9434                 2.6994
 Frc consts  --      0.5869                 1.1263                 0.6561
 IR Inten    --      0.0004                 0.0298                 0.0752

                     19                     20                     21
                      A                      A                      A
 Frequencies --    657.9103               689.3298               744.3685
 Red. masses --      5.2428                 3.3996                 1.5405
 Frc consts  --      1.3370                 0.9518                 0.5029
 IR Inten    --      5.7481                 5.7107                58.0551

                     22                     23                     24
                      A                      A                      A
 Frequencies --    762.5626               789.1549               800.8591
 Red. masses --      6.2772                 5.7208                 4.6813
 Frc consts  --      2.1506                 2.0991                 1.7690
 IR Inten    --     24.4617                 3.1888                 5.6020

                     25                     26                     27
                      A                      A                      A
 Frequencies --    828.2796               849.8981               904.1133
 Red. masses --      1.8566                 1.5393                 6.3353
 Frc consts  --      0.7504                 0.6551                 3.0511
 IR Inten    --     39.4001                 1.7712                24.7359

                     28                     29                     30
                      A                      A                      A
 Frequencies --    934.8029               966.1659              1046.2269
 Red. masses --      1.2788                 1.2671                 3.5348
 Frc consts  --      0.6584                 0.6969                 2.2796
 IR Inten    --      0.0175                 1.3083                45.3044

                     31                     32                     33
                      A                      A                      A
 Frequencies --   1087.7094              1106.6081              1129.5851
 Red. masses --      3.6228                 2.3693                 1.8847
 Frc consts  --      2.5253                 1.7095                 1.4168
 IR Inten    --     33.3079                49.2815                23.0516

                     34                     35                     36
                      A                      A                      A
 Frequencies --   1161.3678              1172.4584              1176.5929
 Red. masses --      1.2817                 1.3801                 2.3477
 Frc consts  --      1.0186                 1.1178                 1.9149
 IR Inten    --      0.6798                14.0773                56.0241

                     37                     38                     39
                      A                      A                      A
 Frequencies --   1199.6221              1227.3089              1265.8156
 Red. masses --      1.4741                 1.9321                 3.5791
 Frc consts  --      1.2499                 1.7147                 3.3788
 IR Inten    --     14.0633                20.4321               169.7866

                     40                     41                     42
                      A                      A                      A
 Frequencies --   1301.7264              1344.1549              1414.4538
 Red. masses --      2.3830                 6.0511                 3.1603
 Frc consts  --      2.3791                 6.4414                 3.7253
 IR Inten    --      0.8477                 7.6875                39.5022

                     43                     44                     45
                      A                      A                      A
 Frequencies --   1427.7637              1447.9703              1472.6236
 Red. masses --      3.8526                 2.1884                 1.3120
 Frc consts  --      4.6272                 2.7033                 1.6764
 IR Inten    --     63.3785                51.9834                31.3341

                     46                     47                     48
                      A                      A                      A
 Frequencies --   1485.2921              1500.4225              1503.3929
 Red. masses --      1.0482                 6.4118                 1.1306
 Frc consts  --      1.3624                 8.5047                 1.5056
 IR Inten    --      5.1200                12.6801                52.9342

                     49                     50                     51
                      A                      A                      A
 Frequencies --   1545.6009              1552.6334              1618.8378
 Red. masses --      5.1700                 4.7421                 6.0368
 Frc consts  --      7.2767                 6.7354                 9.3210
 IR Inten    --    480.0261               260.7816                14.0050

                     52                     53                     54
                      A                      A                      A
 Frequencies --   1627.0225              2967.3336              3011.7206
 Red. masses --      7.3314                 1.0364                 1.1040
 Frc consts  --     11.4347                 5.3767                 5.9001
 IR Inten    --     10.5231               112.3674                69.4957

                     55                     56                     57
                      A                      A                      A
 Frequencies --   3100.4190              3131.6770              3138.8289
 Red. masses --      1.0953                 1.0849                 1.0873
 Frc consts  --      6.2032                 6.2689                 6.3113
 IR Inten    --     41.1400                25.1519                34.7350

                     58                     59                     60
                      A                      A                      A
 Frequencies --   3154.2940              3189.6399              3195.8103
 Red. masses --      1.0939                 1.0908                 1.0905
 Frc consts  --      6.4128                 6.5386                 6.5618
 IR Inten    --     46.3163                 9.1877                26.5414

 - Thermochemistry -
 -------------------
 Temperature   298.150 Kelvin.  Pressure   1.00000 Atm.
 Atom     1 has atomic number  6 and mass  12.00000

 Molecular mass:   188.04734 amu.
 Principal axes and moments of inertia in atomic units:
                           1         2         3
     Eigenvalues --  1595.461202840.421224424.41392
           X            0.97837   0.18106   0.10005
           Y           -0.20071   0.94793   0.24726
           Z           -0.05007  -0.26199   0.96377
 This molecule is an asymmetric top.
 Rotational symmetry number  1.
 Warning -- assumption of classical behavior for rotation
           may cause significant error
 Rotational temperatures (Kelvin)      0.05429     0.03049     0.01958
 Rotational constants (GHZ):           1.13117     0.63538     0.40791
 Zero-point vibrational energy     423949.6 (Joules/Mol)
                                  101.32638 (Kcal/Mol)
 Warning -- explicit consideration of  16 degrees of freedom as
           vibrations may cause significant error
 Vibrational temperatures:     67.50   118.79   132.91   257.00   286.97
          (Kelvin)            346.32   416.61   463.65   466.14   492.82
                              541.80   658.29   674.59   730.74   756.25
                              758.06   894.70   924.12   946.59   991.79
                             1070.98  1097.16  1135.42  1152.26  1191.71
                             1222.81  1300.82  1344.97  1390.10  1505.29
                             1564.97  1592.16  1625.22  1670.95  1686.91
                             1692.85  1725.99  1765.82  1821.23  1872.89
                             1933.94  2035.08  2054.23  2083.31  2118.78
                             2137.00  2158.77  2163.05  2223.77  2233.89
                             2329.15  2340.92  4269.33  4333.19  4460.81
                             4505.78  4516.07  4538.33  4589.18  4598.06

 Zero-point correction=                           0.161474 (Hartree/Particle)
 Thermal correction to Energy=                    0.172814
 Thermal correction to Enthalpy=                  0.173758
 Thermal correction to Gibbs Free Energy=         0.123167
 Sum of electronic and zero-point Energies=           -649.712055
 Sum of electronic and thermal Energies=              -649.700714
 Sum of electronic and thermal Enthalpies=            -649.699770
 Sum of electronic and thermal Free Energies=         -649.750362

                     E (Thermal)             CV                S
                      KCal/Mol        Cal/Mol-Kelvin    Cal/Mol-Kelvin
 Total                  108.443             44.177            106.479
 Electronic               0.000              0.000              1.377
 Translational            0.889              2.981             41.600
 Rotational               0.889              2.981             31.373
 Vibrational            106.665             38.215             32.129
 Vibration     1          0.595              1.979              4.944
 Vibration     2          0.600              1.961              3.829
 Vibration     3          0.602              1.955              3.609
 Vibration     4          0.629              1.869              2.343
 Vibration     5          0.638              1.841              2.138
 Vibration     6          0.658              1.778              1.798
 Vibration     7          0.686              1.693              1.477
 Vibration     8          0.707              1.631              1.299
 Vibration     9          0.709              1.627              1.290
 Vibration    10          0.722              1.590              1.200
 Vibration    11          0.747              1.520              1.053
 Vibration    12          0.816              1.344              0.773
 Vibration    13          0.826              1.319              0.741
 Vibration    14          0.863              1.233              0.639
 Vibration    15          0.881              1.193              0.597
 Vibration    16          0.882              1.191              0.594

 Optimization completed.
    -- Stationary point found.
 Normal termination of Gaussian 16 at Tue Dec 26 21:16:18 2023.
