 Gaussian 16, Revision A.03,
 Gaussian 16:  ES64L-G16RevA.03 25-Dec-2016

 ----------------------------------------------------------------------
 #P UB3LYP/6-311++G(d,p) nosym opt freq SCRF=(PCM,Solvent=n,n-DiMethylF
 ormamide)
 ----------------------------------------------------------------------

 -------
 Reduced
 -------
 Symbolic Z-matrix:
 Charge = -2 Multiplicity = 1

 SCF Done:  E(UB3LYP) =  -993.138298791     A.U. after   17 cycles
 SCF Done:  E(UB3LYP) =  -993.139054589     A.U. after   13 cycles
 SCF Done:  E(UB3LYP) =  -993.139673591     A.U. after   12 cycles
 SCF Done:  E(UB3LYP) =  -993.139785114     A.U. after   11 cycles
 SCF Done:  E(UB3LYP) =  -993.139808226     A.U. after   12 cycles
 SCF Done:  E(UB3LYP) =  -993.139847180     A.U. after   11 cycles
 SCF Done:  E(UB3LYP) =  -993.139860419     A.U. after   11 cycles
 SCF Done:  E(UB3LYP) =  -993.139868473     A.U. after   11 cycles
 SCF Done:  E(UB3LYP) =  -993.139871052     A.U. after   10 cycles
 SCF Done:  E(UB3LYP) =  -993.139872062     A.U. after   10 cycles
 SCF Done:  E(UB3LYP) =  -993.139872503     A.U. after   10 cycles
 SCF Done:  E(UB3LYP) =  -993.139872676     A.U. after    8 cycles
 SCF Done:  E(UB3LYP) =  -993.139872790     A.U. after    8 cycles
 SCF Done:  E(UB3LYP) =  -993.139872839     A.U. after    8 cycles
 Optimization completed.
    -- Stationary point found.
 Normal termination of Gaussian 16 at Sat Feb 10 19:48:15 2024.

 ----------------------------------------------------------------------
 #P Geom=AllCheck Guess=TCheck SCRF=Check GenChk UB3LYP/6-311++G(d,p) F
 req
 ----------------------------------------------------------------------

 Structure from the checkpoint file:  "171-an.chk"
 -------
 Reduced
 -------
 Charge = -2 Multiplicity = 1

                          Input orientation:
 ---------------------------------------------------------------------
 Center     Atomic      Atomic             Coordinates (Angstroms)
 Number     Number       Type             X           Y           Z
 ---------------------------------------------------------------------
      1          6           0       -1.325233    1.913831   -4.245901
      2          6           0       -1.261238    0.541211   -4.327447
      3          6           0       -0.971489   -0.220091   -3.161382
      4          6           0       -1.119847    2.610670   -3.021262
      5          6           0       -0.830985    1.840330   -1.840602
      6          6           0       -0.760329    0.422761   -1.962878
      7          6           0       -1.181355    4.044663   -2.992655
      8          6           0       -0.595554    2.463889   -0.570248
      9          6           0       -1.026941    4.678623   -1.710749
     10          6           0       -0.741715    3.893101   -0.506853
     11          6           0       -1.102957    6.132513   -1.592620
     12          6           0       -0.798394    6.740400   -0.390479
     13          6           0       -0.529860    5.976893    0.778030
     14          6           0       -0.558721    4.597778    0.758729
     15          8           0       -1.353260    4.705241   -4.119323
     16          8           0       -0.243933    1.719344    0.459334
     17          1           0       -1.538853    2.509991   -5.125294
     18          1           0       -1.430041    0.039476   -5.275509
     19          1           0       -0.917693   -1.303065   -3.219627
     20          1           0       -0.533179   -0.141715   -1.065967
     21          1           0       -0.356713    6.503634    1.709134
     22          1           0       -0.818541    7.820715   -0.308786
     23          7           0       -1.520500    6.879610   -2.696881
     24          6           0       -1.238464    8.294587   -2.784598
     25          1           0       -1.454126    6.312105   -3.551106
     26          1           0       -0.177056    8.539569   -2.607024
     27          1           0       -1.826544    8.875389   -2.063059
     28          1           0       -1.507045    8.645487   -3.783321
     29          7           0       -0.459323    3.847365    1.940517
     30          6           0        0.149038    4.416037    3.123015
     31          6           0        0.266690    3.355063    4.215181
     32          8           0        0.837050    3.880659    5.420286
     33          1           0       -0.221017    2.872416    1.700736
     34          1           0       -0.454541    5.244544    3.514004
     35          1           0        1.153778    4.832898    2.918102
     36          1           0        0.857365    2.503495    3.855030
     37          1           0       -0.723099    2.985102    4.489536
     38          1           0        1.741954    4.154451    5.232669
 ---------------------------------------------------------------------

 SCF Done:  E(UB3LYP) =  -993.139872839     A.U. after    1 cycles

 Alpha  occ. eigenvalues --  -19.12752 -19.02219 -19.02210 -14.27770 -14.27667
 Alpha  occ. eigenvalues --  -10.21292 -10.18546 -10.17721 -10.17637 -10.17596
 Alpha  occ. eigenvalues --  -10.17455 -10.17434 -10.14921 -10.14875 -10.14623
 Alpha  occ. eigenvalues --  -10.14622 -10.14217 -10.14178 -10.13674 -10.13632
 Alpha  occ. eigenvalues --  -10.12963 -10.12845  -1.02512  -0.93901  -0.93475
 Alpha  occ. eigenvalues --   -0.89543  -0.88988  -0.82579  -0.79898  -0.75075
 Alpha  occ. eigenvalues --   -0.73483  -0.72298  -0.70708  -0.69097  -0.65173
 Alpha  occ. eigenvalues --   -0.63422  -0.62374  -0.59691  -0.58530  -0.54863
 Alpha  occ. eigenvalues --   -0.53469  -0.51088  -0.50510  -0.49180  -0.47587
 Alpha  occ. eigenvalues --   -0.46249  -0.45681  -0.44305  -0.43627  -0.43148
 Alpha  occ. eigenvalues --   -0.42525  -0.41684  -0.40746  -0.39861  -0.39544
 Alpha  occ. eigenvalues --   -0.38566  -0.37931  -0.37658  -0.37186  -0.35708
 Alpha  occ. eigenvalues --   -0.35383  -0.34506  -0.34210  -0.33996  -0.32951
 Alpha  occ. eigenvalues --   -0.32487  -0.31569  -0.30371  -0.29945  -0.28490
 Alpha  occ. eigenvalues --   -0.28051  -0.23116  -0.22890  -0.22019  -0.21235
 Alpha  occ. eigenvalues --   -0.20243  -0.19822  -0.15853  -0.10521
 Alpha virt. eigenvalues --   -0.01789  -0.00369   0.00214   0.00425   0.00551
 Alpha virt. eigenvalues --    0.01628   0.01892   0.02254   0.02557   0.03377
 Alpha virt. eigenvalues --    0.03743   0.03957   0.04400   0.04739   0.05241

  Beta  occ. eigenvalues --  -19.12752 -19.02219 -19.02210 -14.27770 -14.27667
  Beta  occ. eigenvalues --  -10.21292 -10.18546 -10.17721 -10.17637 -10.17596
  Beta  occ. eigenvalues --  -10.17455 -10.17434 -10.14921 -10.14875 -10.14623
  Beta  occ. eigenvalues --  -10.14622 -10.14217 -10.14178 -10.13674 -10.13632
  Beta  occ. eigenvalues --  -10.12963 -10.12845  -1.02512  -0.93901  -0.93475
  Beta  occ. eigenvalues --   -0.89543  -0.88988  -0.82579  -0.79898  -0.75075
  Beta  occ. eigenvalues --   -0.73483  -0.72298  -0.70708  -0.69097  -0.65173
  Beta  occ. eigenvalues --   -0.63422  -0.62374  -0.59691  -0.58530  -0.54863
  Beta  occ. eigenvalues --   -0.53469  -0.51088  -0.50510  -0.49180  -0.47587
  Beta  occ. eigenvalues --   -0.46249  -0.45681  -0.44305  -0.43627  -0.43148
  Beta  occ. eigenvalues --   -0.42525  -0.41684  -0.40746  -0.39861  -0.39544
  Beta  occ. eigenvalues --   -0.38566  -0.37931  -0.37658  -0.37186  -0.35708
  Beta  occ. eigenvalues --   -0.35383  -0.34506  -0.34210  -0.33996  -0.32951
  Beta  occ. eigenvalues --   -0.32487  -0.31569  -0.30371  -0.29945  -0.28490
  Beta  occ. eigenvalues --   -0.28051  -0.23116  -0.22890  -0.22019  -0.21235
  Beta  occ. eigenvalues --   -0.20243  -0.19822  -0.15853  -0.10521
  Beta virt. eigenvalues --   -0.01789  -0.00369   0.00214   0.00425   0.00551
  Beta virt. eigenvalues --    0.01628   0.01892   0.02254   0.02557   0.03377
  Beta virt. eigenvalues --    0.03743   0.03957   0.04400   0.04739   0.05241

 Mulliken charges and spin densities:
               1          2
     1  C   -0.073485  -0.000000
     2  C   -0.536475   0.000000
     3  C   -0.506029   0.000000
     4  C    0.217446  -0.000000
     5  C    0.197807  -0.000000
     6  C   -0.121235  -0.000000
     7  C   -0.393744   0.000000
     8  C   -0.437530  -0.000000
     9  C    0.229709   0.000000
    10  C    0.275865   0.000000
    11  C   -0.076912  -0.000000
    12  C   -0.276838  -0.000000
    13  C   -0.313552   0.000000
    14  C   -0.217795  -0.000000
    15  O   -0.637473  -0.000000
    16  O   -0.619299  -0.000000
    17  H    0.147516  -0.000000
    18  H    0.156471  -0.000000
    19  H    0.157615   0.000000
    20  H    0.138684  -0.000000
    21  H    0.143959   0.000000
    22  H    0.157694   0.000000
    23  N   -0.273597   0.000000
    24  C   -0.400964   0.000000
    25  H    0.365243  -0.000000
    26  H    0.131298  -0.000000
    27  H    0.137271   0.000000
    28  H    0.138117   0.000000
    29  N   -0.136619  -0.000000
    30  C   -0.208972   0.000000
    31  C   -0.324010  -0.000000
    32  O   -0.326798   0.000000
    33  H    0.402661  -0.000000
    34  H    0.148885  -0.000000
    35  H    0.129309  -0.000000
    36  H    0.155911  -0.000000
    37  H    0.178347  -0.000000
    38  H    0.271515   0.000000
 Sum of Mulliken charges =  -2.00000   0.00000

 Dipole moment (field-independent basis, Debye):
    X=             10.0827    Y=            -32.9140    Z=             13.4075  Tot=             36.9426
 Quadrupole moment (field-independent basis, Debye-Ang):
   XX=           -152.4908   YY=           -280.3785   ZZ=           -224.0784
   XY=             41.0881   XZ=            -16.5533   YZ=             53.8603

  Exact polarizability: 234.646  -0.263 586.727  62.356  65.155 519.155
 Approx polarizability: 258.407  -4.927 639.862  67.775  59.137 573.755

                      1                      2                      3
                      A                      A                      A
 Frequencies --     33.5235                47.2265                65.4180
 Red. masses --      7.1561                 4.9970                 3.1758
 Frc consts  --      0.0047                 0.0066                 0.0080
 IR Inten    --      0.9454                10.6281                 4.3026

                      4                      5                      6
                      A                      A                      A
 Frequencies --     68.6539                86.4707               102.1512
 Red. masses --      6.3411                 2.2178                 3.7463
 Frc consts  --      0.0176                 0.0098                 0.0230
 IR Inten    --      7.3787                 6.0387                24.6804

                      7                      8                      9
                      A                      A                      A
 Frequencies --    126.2705               142.3071               165.7436
 Red. masses --      3.2653                 4.3116                 4.1614
 Frc consts  --      0.0307                 0.0514                 0.0674
 IR Inten    --      8.2546                 0.5283                 3.8573

                     10                     11                     12
                      A                      A                      A
 Frequencies --    181.2964               185.8215               230.7584
 Red. masses --      3.7839                 5.0363                 1.5946
 Frc consts  --      0.0733                 0.1025                 0.0500
 IR Inten    --     18.3146                 4.0363                 3.6934

                     13                     14                     15
                      A                      A                      A
 Frequencies --    235.6096               249.5249               281.9345
 Red. masses --      2.1271                 4.7315                 4.7259
 Frc consts  --      0.0696                 0.1736                 0.2213
 IR Inten    --     16.0100                15.6861                 8.2908

                     16                     17                     18
                      A                      A                      A
 Frequencies --    292.0075               319.1003               329.8823
 Red. masses --      1.3102                 3.9622                 4.0900
 Frc consts  --      0.0658                 0.2377                 0.2622
 IR Inten    --    181.3821                10.7953                30.2399

                     19                     20                     21
                      A                      A                      A
 Frequencies --    377.4124               383.5967               388.2461
 Red. masses --      5.3819                 7.0503                 7.4958
 Frc consts  --      0.4517                 0.6112                 0.6657
 IR Inten    --      4.6574                25.4258                 4.5547

                     22                     23                     24
                      A                      A                      A
 Frequencies --    407.5937               432.5662               449.1373
 Red. masses --      8.0467                12.5587                 3.2634
 Frc consts  --      0.7876                 1.3845                 0.3879
 IR Inten    --      1.4630                25.9225                 5.2418

                     25                     26                     27
                      A                      A                      A
 Frequencies --    475.8220               498.3610               503.8804
 Red. masses --      5.9366                 5.0242                 7.2376
 Frc consts  --      0.7919                 0.7352                 1.0827
 IR Inten    --     16.1029                 3.5549                 4.5236

                     28                     29                     30
                      A                      A                      A
 Frequencies --    528.6077               577.3575               615.7108
 Red. masses --      5.5979                 4.5611                 3.3735
 Frc consts  --      0.9216                 0.8958                 0.7535
 IR Inten    --     59.9291                38.1531                42.7694

                     31                     32                     33
                      A                      A                      A
 Frequencies --    620.4552               629.4976               662.6771
 Red. masses --      5.3625                 4.2945                 5.6183
 Frc consts  --      1.2163                 1.0027                 1.4536
 IR Inten    --     52.0090                 8.6831                15.6838

                     34                     35                     36
                      A                      A                      A
 Frequencies --    716.8893               719.6379               735.9513
 Red. masses --      2.1000                 5.3849                 3.5744
 Frc consts  --      0.6359                 1.6431                 1.1406
 IR Inten    --     22.4411                20.2857               124.1696

                     37                     38                     39
                      A                      A                      A
 Frequencies --    743.4879               764.6878               780.9847
 Red. masses --      4.5849                 1.6078                 2.3101
 Frc consts  --      1.4932                 0.5539                 0.8302
 IR Inten    --    121.8100               213.0351                 5.7077

                     40                     41                     42
                      A                      A                      A
 Frequencies --    799.6870               816.8956               822.3023
 Red. masses --      4.2711                 1.2273                 1.7188
 Frc consts  --      1.6093                 0.4825                 0.6848
 IR Inten    --      1.2863                 3.5468               147.2973

                     43                     44                     45
                      A                      A                      A
 Frequencies --    829.6988               846.7573               856.4075
 Red. masses --      1.3770                 2.3187                 1.6223
 Frc consts  --      0.5585                 0.9795                 0.7010
 IR Inten    --      1.6718               165.8868                 1.5561

                     46                     47                     48
                      A                      A                      A
 Frequencies --    867.9413               898.5510               943.7706
 Red. masses --      2.2912                 2.3566                 5.3519
 Frc consts  --      1.0169                 1.1210                 2.8086
 IR Inten    --    254.2398                57.1213                69.0445

                     49                     50                     51
                      A                      A                      A
 Frequencies --    981.0266               986.5995              1011.3148
 Red. masses --      1.3463                 1.2478                 3.7698
 Frc consts  --      0.7634                 0.7156                 2.2716
 IR Inten    --      4.1102                 0.4157               190.7011

                     52                     53                     54
                      A                      A                      A
 Frequencies --   1022.5684              1036.6085              1064.1051
 Red. masses --      2.7076                 2.6642                 2.6922
 Frc consts  --      1.6681                 1.6867                 1.7961
 IR Inten    --     63.7860               174.8682                53.9848

                     55                     56                     57
                      A                      A                      A
 Frequencies --   1087.5212              1091.5690              1097.2567
 Red. masses --      2.2240                 2.4002                 2.0880
 Frc consts  --      1.5498                 1.6850                 1.4811
 IR Inten    --    265.7135               230.7150               135.5049

                     58                     59                     60
                      A                      A                      A
 Frequencies --   1126.2439              1136.9875              1139.1047
 Red. masses --      1.8578                 2.4716                 1.3863
 Frc consts  --      1.3884                 1.8825                 1.0599
 IR Inten    --    361.0802               106.4110                19.4239

                     61                     62                     63
                      A                      A                      A
 Frequencies --   1156.9833              1167.2345              1182.4733
 Red. masses --      2.1867                 1.5996                 1.4463
 Frc consts  --      1.7246                 1.2840                 1.1915
 IR Inten    --     55.5908               354.3563                86.0223

                     64                     65                     66
                      A                      A                      A
 Frequencies --   1194.9290              1216.2841              1242.9076
 Red. masses --      1.2054                 2.8878                 2.2386
 Frc consts  --      1.0141                 2.5170                 2.0376
 IR Inten    --      8.1727               394.7296                29.4956

                     67                     68                     69
                      A                      A                      A
 Frequencies --   1261.3715              1265.6852              1269.1476
 Red. masses --      3.5498                 3.6132                 7.7912
 Frc consts  --      3.3277                 3.4104                 7.3940
 IR Inten    --     13.6427               299.2715                29.1586

                     70                     71                     72
                      A                      A                      A
 Frequencies --   1299.3577              1327.6154              1335.9881
 Red. masses --      1.1702                 1.5251                 1.7631
 Frc consts  --      1.1640                 1.5837                 1.8541
 IR Inten    --     28.8208               394.9482              1023.6341

                     73                     74                     75
                      A                      A                      A
 Frequencies --   1345.0495              1367.6160              1370.4026
 Red. masses --      7.4677                 2.8888                 2.1196
 Frc consts  --      7.9600                 3.1834                 2.3453
 IR Inten    --    365.4615               622.9518               481.9744

                     76                     77                     78
                      A                      A                      A
 Frequencies --   1384.0108              1420.6179              1425.7595
 Red. masses --      1.3065                 1.5127                 6.1865
 Frc consts  --      1.4745                 1.7987                 7.4094
 IR Inten    --     32.9375                14.3155                31.8438

                     79                     80                     81
                      A                      A                      A
 Frequencies --   1439.8156              1452.9034              1470.2572
 Red. masses --      2.6368                 1.3020                 1.0493
 Frc consts  --      3.2207                 1.6193                 1.3364
 IR Inten    --    408.4448                31.5465                 8.2829

                     82                     83                     84
                      A                      A                      A
 Frequencies --   1474.1774              1495.6379              1499.3267
 Red. masses --      2.4353                 3.6475                 1.1816
 Frc consts  --      3.1182                 4.8073                 1.5650
 IR Inten    --      6.2413                45.7113                12.1230

                     85                     86                     87
                      A                      A                      A
 Frequencies --   1507.7489              1516.0869              1539.0495
 Red. masses --      1.0631                 1.1214                 1.6775
 Frc consts  --      1.4239                 1.5186                 2.3411
 IR Inten    --     18.0578                82.7579               335.9100

                     88                     89                     90
                      A                      A                      A
 Frequencies --   1543.7432              1570.6105              1605.7156
 Red. masses --      4.1513                 1.7646                 5.4516
 Frc consts  --      5.8289                 2.5647                 8.2815
 IR Inten    --     61.2973               563.2679                15.3281

                     91                     92                     93
                      A                      A                      A
 Frequencies --   1607.9847              1623.0911              2884.9394
 Red. masses --      5.3011                 3.0256                 1.0738
 Frc consts  --      8.0756                 4.6962                 5.2655
 IR Inten    --      7.9191               182.0959               273.9712

                     94                     95                     96
                      A                      A                      A
 Frequencies --   2920.1022              2996.1095              2998.1476
 Red. masses --      1.0612                 1.0783                 1.0787
 Frc consts  --      5.3315                 5.7031                 5.7132
 IR Inten    --    324.1557                22.8616               160.2153

                     97                     98                     99
                      A                      A                      A
 Frequencies --   3009.2630              3085.6435              3087.3105
 Red. masses --      1.0737                 1.0934                 1.0967
 Frc consts  --      5.7286                 6.1338                 6.1588
 IR Inten    --    176.1306                57.7945                59.9782

                    100                    101                    102
                      A                      A                      A
 Frequencies --   3139.1116              3155.2688              3162.4244
 Red. masses --      1.0850                 1.0902                 1.0851
 Frc consts  --      6.2993                 6.3948                 6.3937
 IR Inten    --     28.4438                53.0399                74.2754

                    103                    104                    105
                      A                      A                      A
 Frequencies --   3177.4773              3178.8722              3180.3734
 Red. masses --      1.0839                 1.0902                 1.0908
 Frc consts  --      6.4477                 6.4907                 6.5003
 IR Inten    --    640.5106                62.0963                 0.5727

                    106                    107                    108
                      A                      A                      A
 Frequencies --   3182.4804              3245.0018              3815.9616
 Red. masses --      1.0923                 1.0825                 1.0665
 Frc consts  --      6.5183                 6.7159                 9.1500
 IR Inten    --     64.5594               687.0809                52.4770

 - Thermochemistry -
 -------------------
 Temperature   298.150 Kelvin.  Pressure   1.00000 Atm.
 Atom     1 has atomic number  6 and mass  12.00000

 Molecular mass:   296.11609 amu.
 Principal axes and moments of inertia in atomic units:
                           1         2         3
     Eigenvalues --  5137.037928720.65858**********
           X            0.19568  -0.09745   0.97581
           Y            0.19226   0.97955   0.05927
           Z            0.96164  -0.17601  -0.21042
 This molecule is an asymmetric top.
 Rotational symmetry number  1.
 Warning -- assumption of classical behavior for rotation
           may cause significant error
 Rotational temperatures (Kelvin)      0.01686     0.00993     0.00628
 Rotational constants (GHZ):           0.35132     0.20695     0.13093
 Zero-point vibrational energy     780068.4 (Joules/Mol)
                                  186.44082 (Kcal/Mol)
 Warning -- explicit consideration of  31 degrees of freedom as
           vibrations may cause significant error
 Vibrational temperatures:     48.23    67.95    94.12    98.78   124.41
          (Kelvin)            146.97   181.68   204.75   238.47   260.85
                              267.36   332.01   338.99   359.01   405.64
                              420.13   459.11   474.63   543.01   551.91
                              558.60   586.44   622.37   646.21   684.60
                              717.03   724.97   760.55   830.69   885.87
                              892.70   905.71   953.44  1031.44  1035.40
                             1058.87  1069.71  1100.22  1123.66  1150.57
                             1175.33  1183.11  1193.75  1218.29  1232.18
                             1248.77  1292.81  1357.88  1411.48  1419.50
                             1455.06  1471.25  1491.45  1531.01  1564.70
                             1570.52  1578.71  1620.41  1635.87  1638.92
                             1664.64  1679.39  1701.32  1719.24  1749.96
                             1788.27  1814.83  1821.04  1826.02  1869.49
                             1910.14  1922.19  1935.23  1967.69  1971.70
                             1991.28  2043.95  2051.35  2071.57  2090.40
                             2115.37  2121.01  2151.89  2157.20  2169.31
                             2181.31  2214.35  2221.10  2259.76  2310.27
                             2313.53  2335.27  4150.78  4201.38  4310.73
                             4313.67  4329.66  4439.55  4441.95  4516.48
                             4539.73  4550.02  4571.68  4573.69  4575.85
                             4578.88  4668.83  5490.32

 Zero-point correction=                           0.297112 (Hartree/Particle)
 Thermal correction to Energy=                    0.316306
 Thermal correction to Enthalpy=                  0.317250
 Thermal correction to Gibbs Free Energy=         0.249409
 Sum of electronic and zero-point Energies=           -992.842760
 Sum of electronic and thermal Energies=              -992.823567
 Sum of electronic and thermal Enthalpies=            -992.822623
 Sum of electronic and thermal Free Energies=         -992.890464

                     E (Thermal)             CV                S
                      KCal/Mol        Cal/Mol-Kelvin    Cal/Mol-Kelvin
 Total                  198.485             75.083            142.783
 Electronic               0.000              0.000              0.000
 Translational            0.889              2.981             42.954
 Rotational               0.889              2.981             34.778
 Vibrational            196.707             69.121             65.050
 Vibration     1          0.594              1.983              5.609
 Vibration     2          0.595              1.979              4.930
 Vibration     3          0.597              1.971              4.287
 Vibration     4          0.598              1.969              4.192
 Vibration     5          0.601              1.959              3.738
 Vibration     6          0.604              1.947              3.413
 Vibration     7          0.611              1.927              3.002
 Vibration     8          0.616              1.911              2.773
 Vibration     9          0.624              1.885              2.483
 Vibration    10          0.630              1.865              2.315
 Vibration    11          0.632              1.859              2.269
 Vibration    12          0.652              1.794              1.873
 Vibration    13          0.655              1.786              1.836
 Vibration    14          0.662              1.764              1.734
 Vibration    15          0.681              1.707              1.522
 Vibration    16          0.687              1.689              1.462
 Vibration    17          0.705              1.637              1.315
 Vibration    18          0.713              1.616              1.261
 Vibration    19          0.748              1.518              1.050
 Vibration    20          0.753              1.505              1.025
 Vibration    21          0.756              1.495              1.007
 Vibration    22          0.772              1.454              0.935
 Vibration    23          0.793              1.399              0.850
 Vibration    24          0.808              1.363              0.798
 Vibration    25          0.832              1.304              0.721
 Vibration    26          0.854              1.254              0.662
 Vibration    27          0.859              1.241              0.648
 Vibration    28          0.884              1.187              0.590
 Vibration    29          0.934              1.080              0.490
 Vibration    30          0.975              0.999              0.423
 Vibration    31          0.981              0.989              0.416

 Optimization completed.
    -- Stationary point found.
 Normal termination of Gaussian 16 at Sat Feb 10 21:25:56 2024.
