 Q-Chem 5.4, Q-Chem, Inc., Pleasanton, CA (2021)
 Q-Chem 5.4.0 for Intel X86 EM64T Linux

User input:
--------------------------------------------------------------
$molecule
-2 1
C                 -4.3907040000     -0.3345420000      0.2255640000
C                 -2.9119630000     -0.6183720000      0.2709140000
C                 -2.4339250000     -1.9461350000      0.4179930000
C                 -1.0859490000     -2.2183410000      0.4587290000
C                 -0.1182010000     -1.1881220000      0.3468710000
C                  1.2836640000     -1.5625880000      0.4037310000
O                  1.6679530000     -2.7727380000      0.5792820000
C                  2.2173040000     -0.4697280000      0.2416270000
C                  3.6104900000     -0.7275130000      0.2795120000
C                  4.5488290000      0.2722720000      0.1239280000
C                  4.1156600000      1.6132130000     -0.0825750000
C                  2.7664290000      1.8963560000     -0.1274350000
C                  1.7762660000      0.8906320000      0.0294230000
C                  0.3823580000      1.2575190000     -0.0255980000
O                  0.0342530000      2.4939330000     -0.2454520000
C                 -0.5637610000      0.1795030000      0.1658650000
C                 -1.9893090000      0.4241390000      0.1484230000
N                 -2.4480130000      1.7419150000      0.0471570000
H                 -4.7145490000      0.1369770000     -0.7236960000
H                 -4.7104720000      0.3477620000      1.0234970000
H                 -4.9718880000     -1.2581920000      0.3180130000
H                 -3.1586330000     -2.7530140000      0.5200700000
H                 -0.7108570000     -3.2276530000      0.5861250000
H                  3.9046530000     -1.7607620000      0.4370560000
H                  5.6119610000      0.0401080000      0.1577430000
H                  4.8472730000      2.4103160000     -0.2045600000
H                  2.4069490000      2.9082160000     -0.2844610000
H                 -3.3057260000      1.8561780000     -0.4776680000
H                 -1.6600910000      2.3686610000     -0.1986500000
$end

$rem
BASIS  =  6-311++G(d,p)
GUI  =  2
JOB_TYPE  =  SP
METHOD  =  B3LYP
SCF_CONVERGENCE  = 8
SOLVENT_METHOD = sm12
$end

$smx
solvent dimethylformamide
charges CM5
$end

--------------------------------------------------------------

             Standard Nuclear Orientation (Angstroms)
    I     Atom           X                Y                Z
 ----------------------------------------------------------------
    1      C      -4.3907040000    -0.3345420000     0.2255640000
    2      C      -2.9119630000    -0.6183720000     0.2709140000
    3      C      -2.4339250000    -1.9461350000     0.4179930000
    4      C      -1.0859490000    -2.2183410000     0.4587290000
    5      C      -0.1182010000    -1.1881220000     0.3468710000
    6      C       1.2836640000    -1.5625880000     0.4037310000
    7      O       1.6679530000    -2.7727380000     0.5792820000
    8      C       2.2173040000    -0.4697280000     0.2416270000
    9      C       3.6104900000    -0.7275130000     0.2795120000
   10      C       4.5488290000     0.2722720000     0.1239280000
   11      C       4.1156600000     1.6132130000    -0.0825750000
   12      C       2.7664290000     1.8963560000    -0.1274350000
   13      C       1.7762660000     0.8906320000     0.0294230000
   14      C       0.3823580000     1.2575190000    -0.0255980000
   15      O       0.0342530000     2.4939330000    -0.2454520000
   16      C      -0.5637610000     0.1795030000     0.1658650000
   17      C      -1.9893090000     0.4241390000     0.1484230000
   18      N      -2.4480130000     1.7419150000     0.0471570000
   19      H      -4.7145490000     0.1369770000    -0.7236960000
   20      H      -4.7104720000     0.3477620000     1.0234970000
   21      H      -4.9718880000    -1.2581920000     0.3180130000
   22      H      -3.1586330000    -2.7530140000     0.5200700000
   23      H      -0.7108570000    -3.2276530000     0.5861250000
   24      H       3.9046530000    -1.7607620000     0.4370560000
   25      H       5.6119610000     0.0401080000     0.1577430000
   26      H       4.8472730000     2.4103160000    -0.2045600000
   27      H       2.4069490000     2.9082160000    -0.2844610000
   28      H      -3.3057260000     1.8561780000    -0.4776680000
   29      H      -1.6600910000     2.3686610000    -0.1986500000
 ----------------------------------------------------------------

   18    -783.6226406609      3.87e-09  Convergence criterion met
 Total energy in the final basis set =     -783.9081490686

                    Orbital Energies (a.u.)
 --------------------------------------------------------------

 Alpha MOs
 -- Occupied --
-19.0363 -19.0294 -14.2994 -10.2052 -10.1927 -10.1877 -10.1775 -10.1729
-10.1725 -10.1687 -10.1685 -10.1674 -10.1637 -10.1593 -10.1547 -10.1537
-10.1522 -10.1517  -0.9556  -0.9477  -0.9023  -0.8441  -0.8266  -0.7792
 -0.7477  -0.7428  -0.7190  -0.6880  -0.6470  -0.6218  -0.6046  -0.5727
 -0.5466  -0.5355  -0.5084  -0.4914  -0.4661  -0.4540  -0.4484  -0.4344
 -0.4279  -0.4228  -0.4185  -0.4082  -0.3952  -0.3834  -0.3769  -0.3707
 -0.3671  -0.3601  -0.3447  -0.3396  -0.3342  -0.3212  -0.3165  -0.2965
 -0.2482  -0.2377  -0.2327  -0.2161  -0.2060  -0.2007  -0.1176

          Ground-State Mulliken Net Atomic Charges

     Atom                 Charge (a.u.)
  ----------------------------------------
      1 C                     2.958824
      2 C                     1.797880
      3 C                    -0.598842
      4 C                    -1.038224
      5 C                    -1.378618
      6 C                    -3.193992
      7 O                    -0.314767
      8 C                    -1.707885
      9 C                    -0.186241
     10 C                     1.524999
     11 C                     1.577466
     12 C                     0.099757
     13 C                    -1.377793
     14 C                    -2.008369
     15 O                    -0.285523
     16 C                    -1.051177
     17 C                     0.328230
     18 N                    -0.132024
     19 H                     0.302670
     20 H                     0.263209
     21 H                     0.400779
     22 H                     0.180808
     23 H                     0.114780
     24 H                     0.123174
     25 H                     0.398533
     26 H                     0.406229
     27 H                     0.147553
     28 H                     0.315220
     29 H                     0.333345
  ----------------------------------------
  Sum of atomic charges =    -2.000000

                    Cartesian Multipole Moments
 -----------------------------------------------------------------
    Charge (ESU x 10^10)
                -9.6064
    Dipole Moment (Debye)
         X      -8.2487      Y       2.5086      Z      -2.7584
       Tot       9.0522
    Quadrupole Moments (Debye-Ang)
        XX    -156.7552     XY       5.8657     YY    -164.1771
        XZ       0.8447     YZ       4.8269     ZZ    -122.4735

 Total job time:  836.06s(wall), 6369.37s(cpu)
        *  Thank you very much for using Q-Chem.  Have a nice day.  *
