 Gaussian 16, Revision A.03,
 Gaussian 16:  ES64L-G16RevA.03 25-Dec-2016

 ----------------------------------------------------------------------
 #P UB3LYP/6-311++G(d,p) nosym opt freq SCRF=(PCM,Solvent=n,n-DiMethylF
 ormamide)
 ----------------------------------------------------------------------

 --------
 Oxidized
 --------
 Symbolic Z-matrix:
 Charge =  0 Multiplicity = 1

 SCF Done:  E(UB3LYP) =  -689.337451282     A.U. after   16 cycles
 SCF Done:  E(UB3LYP) =  -689.337614221     A.U. after   13 cycles
 SCF Done:  E(UB3LYP) =  -689.337698934     A.U. after   13 cycles
 SCF Done:  E(UB3LYP) =  -689.337857582     A.U. after   12 cycles
 SCF Done:  E(UB3LYP) =  -689.337837585     A.U. after   12 cycles
 SCF Done:  E(UB3LYP) =  -689.337883353     A.U. after   12 cycles
 SCF Done:  E(UB3LYP) =  -689.337897388     A.U. after   12 cycles
 SCF Done:  E(UB3LYP) =  -689.337903651     A.U. after   10 cycles
 SCF Done:  E(UB3LYP) =  -689.337907451     A.U. after   11 cycles
 SCF Done:  E(UB3LYP) =  -689.337910122     A.U. after   10 cycles
 SCF Done:  E(UB3LYP) =  -689.338157698     A.U. after   10 cycles
 SCF Done:  E(UB3LYP) =  -689.338158680     A.U. after   10 cycles
 SCF Done:  E(UB3LYP) =  -689.338160179     A.U. after   10 cycles
 SCF Done:  E(UB3LYP) =  -689.338162537     A.U. after   12 cycles
 SCF Done:  E(UB3LYP) =  -689.338163529     A.U. after   11 cycles
 SCF Done:  E(UB3LYP) =  -689.338164938     A.U. after   11 cycles
 SCF Done:  E(UB3LYP) =  -689.338165082     A.U. after    8 cycles
 SCF Done:  E(UB3LYP) =  -689.338165116     A.U. after    8 cycles
 SCF Done:  E(UB3LYP) =  -689.338165141     A.U. after    9 cycles
 Optimization completed.
    -- Stationary point found.
 Normal termination of Gaussian 16 at Sat Feb 10 15:50:10 2024.

 ----------------------------------------------------------------------
 #P Geom=AllCheck Guess=TCheck SCRF=Check GenChk UB3LYP/6-311++G(d,p) F
 req
 ----------------------------------------------------------------------

 Structure from the checkpoint file:  "089.chk"
 --------
 Oxidized
 --------
 Charge =  0 Multiplicity = 1

                          Input orientation:
 ---------------------------------------------------------------------
 Center     Atomic      Atomic             Coordinates (Angstroms)
 Number     Number       Type             X           Y           Z
 ---------------------------------------------------------------------
      1          6           0        1.655442    1.412903   -0.612678
      2          6           0        0.295008    1.850978   -0.183646
      3          6           0       -0.592084    0.938509    0.268467
      4          6           0       -0.187286   -0.500533    0.385086
      5          6           0        1.130219   -0.954810   -0.115128
      6          6           0        2.031817   -0.045242   -0.568373
      7          8           0        2.468561    2.228120   -1.016838
      8          8           0       -0.947429   -1.306396    0.911791
      9          8           0        3.281714   -0.231059   -0.997942
     10          6           0        3.873484   -1.538085   -1.151154
     11          6           0        0.050193    3.327465   -0.312356
     12          6           0       -1.993905    1.228724    0.719515
     13          1           0        4.867484   -1.341467   -1.547307
     14          1           0        3.304103   -2.137846   -1.861505
     15          1           0        3.940039   -2.049876   -0.193614
     16          8           0        1.438911   -2.275230    0.041037
     17          6           0        0.718221   -3.208256   -0.791710
     18          1           0        1.064884   -4.197339   -0.497998
     19          1           0        0.955782   -3.032168   -1.844882
     20          1           0       -0.356241   -3.128478   -0.628779
     21          1           0        0.805537    3.885632    0.246781
     22          1           0       -0.931865    3.618109    0.050840
     23          1           0        0.142054    3.640198   -1.356430
     24          1           0       -2.285906    2.258849    0.533694
     25          1           0       -2.098980    1.024987    1.789229
     26          1           0       -2.698836    0.568572    0.208229
 ---------------------------------------------------------------------

 SCF Done:  E(UB3LYP) =  -689.338165141     A.U. after    1 cycles

 Alpha  occ. eigenvalues --  -19.18170 -19.15943 -19.14017 -19.13313 -10.28773
 Alpha  occ. eigenvalues --  -10.28129 -10.26895 -10.25065 -10.22945 -10.22277
 Alpha  occ. eigenvalues --  -10.21454 -10.21278 -10.17569 -10.17555  -1.10469
 Alpha  occ. eigenvalues --   -1.08040  -1.06616  -1.05362  -0.86361  -0.80970
 Alpha  occ. eigenvalues --   -0.75445  -0.74509  -0.71698  -0.67675  -0.66484
 Alpha  occ. eigenvalues --   -0.59968  -0.59379  -0.55589  -0.53489  -0.51543
 Alpha  occ. eigenvalues --   -0.49828  -0.47572  -0.46728  -0.46494  -0.45735
 Alpha  occ. eigenvalues --   -0.45406  -0.44508  -0.43059  -0.42328  -0.41273
 Alpha  occ. eigenvalues --   -0.41023  -0.39947  -0.39766  -0.38347  -0.37268
 Alpha  occ. eigenvalues --   -0.36014  -0.35977  -0.31330  -0.28925  -0.28693
 Alpha  occ. eigenvalues --   -0.27524  -0.24712
 Alpha virt. eigenvalues --   -0.12519  -0.01260  -0.00717  -0.00146   0.00290
 Alpha virt. eigenvalues --    0.00984   0.01844   0.02180   0.02489   0.03407
 Alpha virt. eigenvalues --    0.03755   0.04178   0.04611   0.05291   0.05395

  Beta  occ. eigenvalues --  -19.18170 -19.15943 -19.14017 -19.13313 -10.28773
  Beta  occ. eigenvalues --  -10.28129 -10.26895 -10.25065 -10.22945 -10.22277
  Beta  occ. eigenvalues --  -10.21454 -10.21278 -10.17569 -10.17555  -1.10469
  Beta  occ. eigenvalues --   -1.08040  -1.06616  -1.05362  -0.86361  -0.80970
  Beta  occ. eigenvalues --   -0.75445  -0.74509  -0.71698  -0.67675  -0.66484
  Beta  occ. eigenvalues --   -0.59968  -0.59379  -0.55589  -0.53489  -0.51543
  Beta  occ. eigenvalues --   -0.49828  -0.47572  -0.46728  -0.46494  -0.45735
  Beta  occ. eigenvalues --   -0.45406  -0.44508  -0.43059  -0.42328  -0.41273
  Beta  occ. eigenvalues --   -0.41023  -0.39947  -0.39766  -0.38347  -0.37268
  Beta  occ. eigenvalues --   -0.36014  -0.35977  -0.31330  -0.28925  -0.28693
  Beta  occ. eigenvalues --   -0.27524  -0.24712
  Beta virt. eigenvalues --   -0.12519  -0.01260  -0.00717  -0.00146   0.00290
  Beta virt. eigenvalues --    0.00984   0.01844   0.02180   0.02489   0.03407
  Beta virt. eigenvalues --    0.03755   0.04178   0.04611   0.05291   0.05395

 Mulliken charges and spin densities:
               1          2
     1  C   -0.666171   0.000000
     2  C    0.695277  -0.000000
     3  C    0.538163  -0.000000
     4  C   -0.346858   0.000000
     5  C    0.177794   0.000000
     6  C    0.127024  -0.000000
     7  O   -0.276866  -0.000000
     8  O   -0.308070   0.000000
     9  O   -0.205416  -0.000000
    10  C   -0.271111   0.000000
    11  C   -0.531300  -0.000000
    12  C   -0.506787  -0.000000
    13  H    0.196479  -0.000000
    14  H    0.183829  -0.000000
    15  H    0.197784  -0.000000
    16  O   -0.207642  -0.000000
    17  C   -0.303958   0.000000
    18  H    0.178997  -0.000000
    19  H    0.148304   0.000000
    20  H    0.165821  -0.000000
    21  H    0.182449   0.000000
    22  H    0.132509  -0.000000
    23  H    0.190972   0.000000
    24  H    0.129946  -0.000000
    25  H    0.197916   0.000000
    26  H    0.180918  -0.000000
 Sum of Mulliken charges =  -0.00000  -0.00000

 Dipole moment (field-independent basis, Debye):
    X=             -1.1376    Y=             -1.3899    Z=             -1.6926  Tot=              2.4680
 Quadrupole moment (field-independent basis, Debye-Ang):
   XX=            -84.4869   YY=            -77.4166   ZZ=            -83.2701
   XY=            -18.3883   XZ=              1.7452   YZ=             12.2070

  Exact polarizability: 212.072  32.046 212.288 -43.479 -21.478 131.438
 Approx polarizability: 252.986  70.226 243.295 -58.228 -41.752 157.863

                      1                      2                      3
                      A                      A                      A
 Frequencies --     24.5947                56.1460                67.4106
 Red. masses --      3.1064                 4.5152                 1.1125
 Frc consts  --      0.0011                 0.0084                 0.0030
 IR Inten    --      8.2051                 5.8110                 0.9779

                      4                      5                      6
                      A                      A                      A
 Frequencies --     78.3915                92.0078               107.5882
 Red. masses --      1.3714                 3.6575                 2.2119
 Frc consts  --      0.0050                 0.0182                 0.0151
 IR Inten    --      1.7236                 3.4216                 1.8762

                      7                      8                      9
                      A                      A                      A
 Frequencies --    119.4966               136.7837               186.1718
 Red. masses --      1.7466                 1.4138                 3.3539
 Frc consts  --      0.0147                 0.0156                 0.0685
 IR Inten    --      4.7418                 3.2581                 5.9025

                     10                     11                     12
                      A                      A                      A
 Frequencies --    223.2587               226.7623               253.9352
 Red. masses --      3.5208                 1.1365                 3.7051
 Frc consts  --      0.1034                 0.0344                 0.1408
 IR Inten    --      9.4422                 0.7751                 4.2292

                     13                     14                     15
                      A                      A                      A
 Frequencies --    315.4282               332.9315               347.2243
 Red. masses --      4.2120                 3.7980                 5.9748
 Frc consts  --      0.2469                 0.2480                 0.4244
 IR Inten    --      4.9021                 3.1211                 4.1818

                     16                     17                     18
                      A                      A                      A
 Frequencies --    361.6114               386.4336               421.2275
 Red. masses --      3.4293                 7.3186                 7.6360
 Frc consts  --      0.2642                 0.6439                 0.7983
 IR Inten    --      1.7315                14.7858                29.2994

                     19                     20                     21
                      A                      A                      A
 Frequencies --    430.2324               450.9953               453.9432
 Red. masses --      5.5643                 4.3494                 6.9932
 Frc consts  --      0.6068                 0.5212                 0.8490
 IR Inten    --     12.1003                 6.3282                 8.2352

                     22                     23                     24
                      A                      A                      A
 Frequencies --    544.0498               607.5529               637.5908
 Red. masses --      7.3469                 6.6163                 6.5238
 Frc consts  --      1.2813                 1.4389                 1.5626
 IR Inten    --      8.9370                 3.0027                 5.0678

                     25                     26                     27
                      A                      A                      A
 Frequencies --    720.9913               748.9847               793.6508
 Red. masses --      3.2041                 6.4948                 8.8830
 Frc consts  --      0.9813                 2.1467                 3.2966
 IR Inten    --     31.5097                32.1552                 5.2268

                     28                     29                     30
                      A                      A                      A
 Frequencies --    860.1702               931.4906               951.4611
 Red. masses --      4.0219                 3.5480                 6.2368
 Frc consts  --      1.7533                 1.8138                 3.3265
 IR Inten    --     45.1755                58.9479                45.0217

                     31                     32                     33
                      A                      A                      A
 Frequencies --    979.3327              1028.7017              1058.9070
 Red. masses --      3.0749                 1.4816                 1.5705
 Frc consts  --      1.7375                 0.9237                 1.0375
 IR Inten    --     12.9081                 3.3115                 2.2124

                     34                     35                     36
                      A                      A                      A
 Frequencies --   1067.8567              1101.6311              1130.6850
 Red. masses --      2.4503                 4.0058                 2.6409
 Frc consts  --      1.6462                 2.8642                 1.9892
 IR Inten    --    279.3180                13.1402               105.8809

                     37                     38                     39
                      A                      A                      A
 Frequencies --   1159.9554              1162.5426              1174.0940
 Red. masses --      1.2977                 1.2651                 2.5908
 Frc consts  --      1.0288                 1.0074                 2.1042
 IR Inten    --     42.9683                 3.3736               147.0117

                     40                     41                     42
                      A                      A                      A
 Frequencies --   1213.0188              1222.3197              1264.4748
 Red. masses --      1.6444                 2.0257                 5.3873
 Frc consts  --      1.4256                 1.7832                 5.0750
 IR Inten    --     69.8122               231.3180               823.4871

                     43                     44                     45
                      A                      A                      A
 Frequencies --   1317.1996              1331.6879              1405.8433
 Red. masses --     10.1718                 4.4983                 1.3853
 Frc consts  --     10.3981                 4.7001                 1.6132
 IR Inten    --     24.4273                 5.2965                30.6869

                     46                     47                     48
                      A                      A                      A
 Frequencies --   1412.9108              1462.7739              1463.5463
 Red. masses --      1.2012                 1.0590                 1.0805
 Frc consts  --      1.4129                 1.3350                 1.3636
 IR Inten    --      5.0490                12.4274                23.6667

                     49                     50                     51
                      A                      A                      A
 Frequencies --   1463.8447              1466.5155              1477.8906
 Red. masses --      1.1096                 1.0439                 1.0926
 Frc consts  --      1.4010                 1.3228                 1.4061
 IR Inten    --     20.8827                17.7616                 5.3800

                     52                     53                     54
                      A                      A                      A
 Frequencies --   1479.4101              1482.3263              1483.7638
 Red. masses --      1.0684                 1.0917                 1.1014
 Frc consts  --      1.3777                 1.4133                 1.4286
 IR Inten    --     25.0853                 6.6218                19.7833

                     55                     56                     57
                      A                      A                      A
 Frequencies --   1488.9418              1498.7528              1637.1839
 Red. masses --      1.0834                 1.0499                 9.0025
 Frc consts  --      1.4152                 1.3895                14.2171
 IR Inten    --     20.1100                28.3337               683.7797

                     58                     59                     60
                      A                      A                      A
 Frequencies --   1674.5932              1698.0695              1701.3538
 Red. masses --     11.5399                 8.3228                12.8035
 Frc consts  --     19.0666                14.1394                21.8357
 IR Inten    --    776.9948                10.1614               289.7290

                     61                     62                     63
                      A                      A                      A
 Frequencies --   3028.7549              3040.1106              3042.3986
 Red. masses --      1.0365                 1.0406                 1.0425
 Frc consts  --      5.6020                 5.6667                 5.6856
 IR Inten    --     77.6326                16.0064                11.6944

                     64                     65                     66
                      A                      A                      A
 Frequencies --   3057.2966              3085.4788              3086.3863
 Red. masses --      1.0294                 1.0986                 1.0976
 Frc consts  --      5.6690                 6.1620                 6.1601
 IR Inten    --     57.0724                16.0218                12.0812

                     67                     68                     69
                      A                      A                      A
 Frequencies --   3112.6289              3140.7788              3145.6976
 Red. masses --      1.0978                 1.1057                 1.1000
 Frc consts  --      6.2664                 6.4263                 6.4130
 IR Inten    --     37.3986                30.1621                 5.5728

                     70                     71                     72
                      A                      A                      A
 Frequencies --   3147.8638              3158.8656              3161.9264
 Red. masses --      1.1065                 1.1085                 1.0946
 Frc consts  --      6.4601                 6.5170                 6.4476
 IR Inten    --     20.9701                17.4270                30.8952

 - Thermochemistry -
 -------------------
 Temperature   298.150 Kelvin.  Pressure   1.00000 Atm.
 Atom     1 has atomic number  6 and mass  12.00000

 Molecular mass:   196.07356 amu.
 Principal axes and moments of inertia in atomic units:
                           1         2         3
     Eigenvalues --  1989.055122765.047874604.84217
           X           -0.55800   0.75300   0.34876
           Y            0.81441   0.57759   0.05595
           Z            0.15932  -0.31525   0.93554
 This molecule is an asymmetric top.
 Rotational symmetry number  1.
 Warning -- assumption of classical behavior for rotation
           may cause significant error
 Rotational temperatures (Kelvin)      0.04355     0.03132     0.01881
 Rotational constants (GHZ):           0.90734     0.65270     0.39192
 Zero-point vibrational energy     535848.2 (Joules/Mol)
                                  128.07080 (Kcal/Mol)
 Warning -- explicit consideration of  23 degrees of freedom as
           vibrations may cause significant error
 Vibrational temperatures:     35.39    80.78    96.99   112.79   132.38
          (Kelvin)            154.80   171.93   196.80   267.86   321.22
                              326.26   365.36   453.83   479.01   499.58
                              520.28   555.99   606.05   619.01   648.88
                              653.12   782.77   874.13   917.35  1037.35
                             1077.62  1141.89  1237.59  1340.21  1368.94
                             1409.04  1480.07  1523.53  1536.41  1585.00
                             1626.80  1668.92  1672.64  1689.26  1745.26
                             1758.65  1819.30  1895.16  1916.00  2022.69
                             2032.86  2104.61  2105.72  2106.15  2109.99
                             2126.36  2128.54  2132.74  2134.81  2142.26
                             2156.37  2355.54  2409.37  2443.14  2447.87
                             4357.70  4374.04  4377.33  4398.77  4439.32
                             4440.62  4478.38  4518.88  4525.96  4529.07
                             4544.90  4549.31

 Zero-point correction=                           0.204094 (Hartree/Particle)
 Thermal correction to Energy=                    0.219370
 Thermal correction to Enthalpy=                  0.220314
 Thermal correction to Gibbs Free Energy=         0.160606
 Sum of electronic and zero-point Energies=           -689.134071
 Sum of electronic and thermal Energies=              -689.118795
 Sum of electronic and thermal Enthalpies=            -689.117851
 Sum of electronic and thermal Free Energies=         -689.177559

                     E (Thermal)             CV                S
                      KCal/Mol        Cal/Mol-Kelvin    Cal/Mol-Kelvin
 Total                  137.657             53.605            125.667
 Electronic               0.000              0.000              0.000
 Translational            0.889              2.981             41.725
 Rotational               0.889              2.981             31.605
 Vibrational            135.879             47.644             52.337
 Vibration     1          0.593              1.985              6.224
 Vibration     2          0.596              1.975              4.588
 Vibration     3          0.598              1.970              4.228
 Vibration     4          0.600              1.964              3.931
 Vibration     5          0.602              1.955              3.617
 Vibration     6          0.606              1.943              3.312
 Vibration     7          0.609              1.933              3.108
 Vibration     8          0.614              1.917              2.848
 Vibration     9          0.632              1.859              2.266
 Vibration    10          0.649              1.806              1.933
 Vibration    11          0.650              1.800              1.904
 Vibration    12          0.665              1.756              1.703
 Vibration    13          0.703              1.644              1.334
 Vibration    14          0.715              1.610              1.246
 Vibration    15          0.725              1.581              1.179
 Vibration    16          0.736              1.551              1.115
 Vibration    17          0.755              1.499              1.014
 Vibration    18          0.784              1.424              0.888
 Vibration    19          0.791              1.404              0.858
 Vibration    20          0.810              1.359              0.793
 Vibration    21          0.812              1.352              0.784
 Vibration    22          0.899              1.153              0.557
 Vibration    23          0.966              1.016              0.437

 Optimization completed.
    -- Stationary point found.
 Normal termination of Gaussian 16 at Sat Feb 10 16:40:05 2024.
