 Gaussian 16, Revision A.03,
 Gaussian 16:  ES64L-G16RevA.03 25-Dec-2016

 ----------------------------------------------------------------------
 #P UB3LYP/6-311++G(d,p) nosym opt freq SCRF=(PCM,Solvent=n,n-DiMethylF
 ormamide)
 ----------------------------------------------------------------------

 -------
 Radical
 -------
 Symbolic Z-matrix:
 Charge = -1 Multiplicity = 2

 SCF Done:  E(UB3LYP) =  -689.478975743     A.U. after   17 cycles
 SCF Done:  E(UB3LYP) =  -689.479500450     A.U. after   15 cycles
 SCF Done:  E(UB3LYP) =  -689.479790753     A.U. after   14 cycles
 SCF Done:  E(UB3LYP) =  -689.479888199     A.U. after   14 cycles
 SCF Done:  E(UB3LYP) =  -689.479911260     A.U. after   13 cycles
 SCF Done:  E(UB3LYP) =  -689.479916564     A.U. after   13 cycles
 SCF Done:  E(UB3LYP) =  -689.479918889     A.U. after   11 cycles
 SCF Done:  E(UB3LYP) =  -689.479919546     A.U. after   10 cycles
 SCF Done:  E(UB3LYP) =  -689.479919629     A.U. after   10 cycles
 SCF Done:  E(UB3LYP) =  -689.479919660     A.U. after    9 cycles
 Optimization completed.
    -- Stationary point found.
 Normal termination of Gaussian 16 at Sat Feb 10 11:57:38 2024.

 ----------------------------------------------------------------------
 #P Geom=AllCheck Guess=TCheck SCRF=Check GenChk UB3LYP/6-311++G(d,p) F
 req
 ----------------------------------------------------------------------

 Structure from the checkpoint file:  "089-rad.chk"
 -------
 Radical
 -------
 Charge = -1 Multiplicity = 2

                          Input orientation:
 ---------------------------------------------------------------------
 Center     Atomic      Atomic             Coordinates (Angstroms)
 Number     Number       Type             X           Y           Z
 ---------------------------------------------------------------------
      1          6           0        1.618680    1.055232   -0.882784
      2          6           0        0.405974    1.580518   -0.273740
      3          6           0       -0.533568    0.746103    0.298841
      4          6           0       -0.347274   -0.696741    0.335215
      5          6           0        0.868640   -1.217121   -0.269432
      6          6           0        1.801745   -0.386978   -0.843338
      7          8           0        2.480923    1.801781   -1.441877
      8          8           0       -1.186453   -1.480618    0.878074
      9          8           0        2.905206   -0.933056   -1.463187
     10          6           0        4.146350   -0.740389   -0.770341
     11          6           0        0.201433    3.075141   -0.301201
     12          6           0       -1.788591    1.304803    0.922617
     13          1           0        4.351514    0.322663   -0.629943
     14          1           0        4.921773   -1.185203   -1.394557
     15          1           0        4.125887   -1.249103    0.199509
     16          8           0        1.115655   -2.571681   -0.200178
     17          6           0        0.328964   -3.374201   -1.091371
     18          1           0       -0.736883   -3.234213   -0.900221
     19          1           0        0.603527   -4.411691   -0.898997
     20          1           0        0.557769   -3.125831   -2.133291
     21          1           0        1.045992    3.561453   -0.787586
     22          1           0        0.099633    3.485903    0.709517
     23          1           0       -0.711559    3.347075   -0.842955
     24          1           0       -1.558283    1.987361    1.748583
     25          1           0       -2.408585    0.497030    1.308960
     26          1           0       -2.377547    1.878025    0.198014
 ---------------------------------------------------------------------

 SCF Done:  E(UB3LYP) =  -689.479919660     A.U. after    1 cycles

 Alpha  occ. eigenvalues --  -19.13253 -19.13231 -19.07234 -19.07233 -10.21591
 Alpha  occ. eigenvalues --  -10.21588 -10.21057 -10.20994 -10.20710 -10.20702
 Alpha  occ. eigenvalues --  -10.16468 -10.16409 -10.15198 -10.15196  -1.05597
 Alpha  occ. eigenvalues --   -1.03670  -0.98988  -0.98739  -0.82463  -0.76946
 Alpha  occ. eigenvalues --   -0.72196  -0.70371  -0.69231  -0.64374  -0.63936
 Alpha  occ. eigenvalues --   -0.56147  -0.55709  -0.51192  -0.49331  -0.48227
 Alpha  occ. eigenvalues --   -0.46624  -0.44327  -0.43707  -0.43594  -0.42729
 Alpha  occ. eigenvalues --   -0.41799  -0.40537  -0.39315  -0.38855  -0.38217
 Alpha  occ. eigenvalues --   -0.37932  -0.36198  -0.36048  -0.35251  -0.34505
 Alpha  occ. eigenvalues --   -0.34234  -0.28228  -0.27848  -0.26405  -0.23697
 Alpha  occ. eigenvalues --   -0.23449  -0.22581  -0.15600
 Alpha virt. eigenvalues --   -0.00756   0.00173   0.00975   0.01217   0.02007
 Alpha virt. eigenvalues --    0.02808   0.03224   0.03328   0.03626   0.04203
 Alpha virt. eigenvalues --    0.04266   0.05238   0.05760   0.06193   0.06934

  Beta  occ. eigenvalues --  -19.13240 -19.13219 -19.06559 -19.06558 -10.21419
  Beta  occ. eigenvalues --  -10.21417 -10.20960 -10.20896 -10.20702 -10.20695
  Beta  occ. eigenvalues --  -10.16369 -10.16308 -10.15206 -10.15204  -1.05498
  Beta  occ. eigenvalues --   -1.03561  -0.97834  -0.97578  -0.81950  -0.76759
  Beta  occ. eigenvalues --   -0.71856  -0.70237  -0.69074  -0.63830  -0.63589
  Beta  occ. eigenvalues --   -0.55849  -0.55360  -0.51062  -0.49114  -0.48052
  Beta  occ. eigenvalues --   -0.46281  -0.44174  -0.43595  -0.43368  -0.42386
  Beta  occ. eigenvalues --   -0.41557  -0.39841  -0.38923  -0.38707  -0.38152
  Beta  occ. eigenvalues --   -0.36845  -0.35593  -0.35333  -0.34397  -0.33689
  Beta  occ. eigenvalues --   -0.33340  -0.27990  -0.27663  -0.23521  -0.23155
  Beta  occ. eigenvalues --   -0.22822  -0.21941
  Beta virt. eigenvalues --   -0.08452  -0.00682   0.00485   0.01033   0.02038
  Beta virt. eigenvalues --    0.02167   0.02918   0.03267   0.03650   0.03709
  Beta virt. eigenvalues --    0.04225   0.05222   0.05763   0.06193   0.06256

 Mulliken charges and spin densities:
               1          2
     1  C   -0.758720   0.083686
     2  C    0.725163   0.083277
     3  C    0.727881   0.083759
     4  C   -0.744441   0.083608
     5  C   -0.016175   0.085138
     6  C   -0.032766   0.084539
     7  O   -0.501804   0.245116
     8  O   -0.502120   0.245141
     9  O   -0.190157  -0.001243
    10  C   -0.279141   0.001644
    11  C   -0.430545  -0.003362
    12  C   -0.433558  -0.003569
    13  H    0.166984  -0.000520
    14  H    0.160580   0.000936
    15  H    0.145318   0.000431
    16  O   -0.188960  -0.001431
    17  C   -0.280302   0.001652
    18  H    0.166134  -0.000564
    19  H    0.160825   0.000962
    20  H    0.146227   0.000439
    21  H    0.182561  -0.001538
    22  H    0.147419   0.003075
    23  H    0.150129   0.003620
    24  H    0.150781   0.003666
    25  H    0.181845  -0.001539
    26  H    0.146843   0.003078
 Sum of Mulliken charges =  -1.00000   1.00000

 Dipole moment (field-independent basis, Debye):
    X=             -4.1641    Y=              0.7689    Z=              1.7667  Tot=              4.5883
 Quadrupole moment (field-independent basis, Debye-Ang):
   XX=           -102.4917   YY=            -99.6011   ZZ=            -97.0445
   XY=            -12.2014   XZ=             15.5752   YZ=             12.6599

  Exact polarizability: 234.628  28.622 242.857 -54.376 -21.452 157.313
 Approx polarizability: 253.233  44.487 256.447 -60.853 -32.668 178.926

                      1                      2                      3
                      A                      A                      A
 Frequencies --     51.3565                65.3912                74.7151
 Red. masses --      1.0752                 3.4481                 3.3034
 Frc consts  --      0.0017                 0.0087                 0.0109
 IR Inten    --      0.1879                16.6658                 6.1774

                      4                      5                      6
                      A                      A                      A
 Frequencies --     85.5411                94.1846               113.4701
 Red. masses --      3.1034                 2.8489                 1.1491
 Frc consts  --      0.0134                 0.0149                 0.0087
 IR Inten    --      1.3745                21.6437                 2.8524

                      7                      8                      9
                      A                      A                      A
 Frequencies --    140.2494               156.1264               161.4173
 Red. masses --      3.2679                 1.0979                 1.4819
 Frc consts  --      0.0379                 0.0158                 0.0227
 IR Inten    --      0.1164                 1.0450                 2.9776

                     10                     11                     12
                      A                      A                      A
 Frequencies --    170.9658               251.9411               257.8619
 Red. masses --      1.9089                 3.6769                 4.0554
 Frc consts  --      0.0329                 0.1375                 0.1589
 IR Inten    --      4.0769                 1.5005                 9.8187

                     13                     14                     15
                      A                      A                      A
 Frequencies --    315.8175               321.4491               335.1812
 Red. masses --      2.6557                 3.5052                 7.1080
 Frc consts  --      0.1561                 0.2134                 0.4705
 IR Inten    --      3.2406                 1.5629                 2.4463

                     16                     17                     18
                      A                      A                      A
 Frequencies --    345.9107               391.4652               407.3153
 Red. masses --      7.7760                10.8355                 7.3676
 Frc consts  --      0.5482                 0.9783                 0.7202
 IR Inten    --      3.0883                19.4648                 0.8820

                     19                     20                     21
                      A                      A                      A
 Frequencies --    435.3919               462.3000               488.5261
 Red. masses --      6.0779                 6.4598                 5.0283
 Frc consts  --      0.6788                 0.8134                 0.7070
 IR Inten    --      7.3224                 3.8274                18.4704

                     22                     23                     24
                      A                      A                      A
 Frequencies --    550.0127               609.3111               642.0615
 Red. masses --      7.5337                 5.8595                 5.2466
 Frc consts  --      1.3428                 1.2817                 1.2743
 IR Inten    --      7.3890                20.8194                 1.0517

                     25                     26                     27
                      A                      A                      A
 Frequencies --    722.6309               736.6307               778.7112
 Red. masses --      3.7015                 6.8585                 8.7816
 Frc consts  --      1.1389                 2.1927                 3.1374
 IR Inten    --      0.3230                18.8274                 0.3542

                     28                     29                     30
                      A                      A                      A
 Frequencies --    886.6421               935.3197               969.5553
 Red. masses --      3.9780                 4.4874                 5.0301
 Frc consts  --      1.8425                 2.3129                 2.7860
 IR Inten    --     46.6705                62.8399                65.3449

                     31                     32                     33
                      A                      A                      A
 Frequencies --    986.4712              1023.8605              1038.6525
 Red. masses --      1.9730                 1.4124                 3.8893
 Frc consts  --      1.1312                 0.8723                 2.4721
 IR Inten    --      8.2661                 0.6260               149.4459

                     34                     35                     36
                      A                      A                      A
 Frequencies --   1053.5685              1094.7263              1118.2416
 Red. masses --      1.5155                 5.1630                 3.0845
 Frc consts  --      0.9912                 3.6455                 2.2725
 IR Inten    --      0.0464               132.0777               325.0653

                     37                     38                     39
                      A                      A                      A
 Frequencies --   1157.4821              1160.9132              1173.8168
 Red. masses --      1.2724                 1.2690                 2.9663
 Frc consts  --      1.0044                 1.0076                 2.4080
 IR Inten    --      7.5813                 9.4741               106.8280

                     40                     41                     42
                      A                      A                      A
 Frequencies --   1205.8282              1213.5426              1234.5921
 Red. masses --      1.4681                 2.6502                 3.8917
 Frc consts  --      1.2577                 2.2995                 3.4949
 IR Inten    --      0.6314                 2.5154               204.5849

                     43                     44                     45
                      A                      A                      A
 Frequencies --   1289.3899              1376.5506              1390.4166
 Red. masses --      5.1394                 1.3872                 1.2611
 Frc consts  --      5.0342                 1.5487                 1.4364
 IR Inten    --    281.5203                77.1181                 2.3073

                     46                     47                     48
                      A                      A                      A
 Frequencies --   1411.0875              1452.7962              1460.7760
 Red. masses --      2.9220                 1.2072                 1.3356
 Frc consts  --      3.4280                 1.5012                 1.6792
 IR Inten    --     28.7800                 8.4921               326.3624

                     49                     50                     51
                      A                      A                      A
 Frequencies --   1468.7095              1475.0532              1476.7274
 Red. masses --      1.1307                 1.0835                 1.0798
 Frc consts  --      1.4370                 1.3889                 1.3874
 IR Inten    --      1.2590                 4.6920                13.8553

                     52                     53                     54
                      A                      A                      A
 Frequencies --   1479.2784              1482.7335              1488.8072
 Red. masses --      1.0619                 1.2800                 4.2357
 Frc consts  --      1.3691                 1.6580                 5.5316
 IR Inten    --      0.2567                10.4385               994.7347

                     55                     56                     57
                      A                      A                      A
 Frequencies --   1492.5321              1496.0482              1498.1543
 Red. masses --      1.0597                 1.4565                 1.1098
 Frc consts  --      1.3908                 1.9206                 1.4676
 IR Inten    --     24.7345                 7.5980                82.1651

                     58                     59                     60
                      A                      A                      A
 Frequencies --   1500.9274              1534.4416              1625.9168
 Red. masses --      2.0260                 6.8870                 9.5305
 Frc consts  --      2.6891                 9.5539                14.8444
 IR Inten    --     48.6730                33.9268                15.2298

                     61                     62                     63
                      A                      A                      A
 Frequencies --   3007.8499              3009.3212              3009.8638
 Red. masses --      1.0404                 1.0417                 1.0354
 Frc consts  --      5.5455                 5.5579                 5.5268
 IR Inten    --    177.5387                 8.3930               147.6200

                     64                     65                     66
                      A                      A                      A
 Frequencies --   3010.7900              3043.2037              3048.3213
 Red. masses --      1.0359                 1.0994                 1.0996
 Frc consts  --      5.5328                 5.9990                 6.0201
 IR Inten    --     27.8150                84.8494                 0.1026

                     67                     68                     69
                      A                      A                      A
 Frequencies --   3084.3643              3084.7573              3119.9169
 Red. masses --      1.0989                 1.0983                 1.1049
 Frc consts  --      6.1594                 6.1574                 6.3364
 IR Inten    --     69.1924                29.4323                34.4029

                     70                     71                     72
                      A                      A                      A
 Frequencies --   3120.1467              3121.9728              3124.3856
 Red. masses --      1.1050                 1.0953                 1.0949
 Frc consts  --      6.3384                 6.2899                 6.2972
 IR Inten    --     52.3979                13.6800                15.9479

 - Thermochemistry -
 -------------------
 Temperature   298.150 Kelvin.  Pressure   1.00000 Atm.
 Atom     1 has atomic number  6 and mass  12.00000

 Molecular mass:   196.07356 amu.
 Principal axes and moments of inertia in atomic units:
                           1         2         3
     Eigenvalues --  2208.528082563.045524489.17875
           X           -0.56715   0.73045   0.38050
           Y            0.79030   0.61271   0.00174
           Z            0.23186  -0.30170   0.92478
 This molecule is an asymmetric top.
 Rotational symmetry number  1.
 Warning -- assumption of classical behavior for rotation
           may cause significant error
 Rotational temperatures (Kelvin)      0.03922     0.03379     0.01929
 Rotational constants (GHZ):           0.81717     0.70414     0.40202
 Zero-point vibrational energy     529971.9 (Joules/Mol)
                                  126.66633 (Kcal/Mol)
 Warning -- explicit consideration of  23 degrees of freedom as
           vibrations may cause significant error
 Vibrational temperatures:     73.89    94.08   107.50   123.07   135.51
          (Kelvin)            163.26   201.79   224.63   232.24   245.98
                              362.49   371.01   454.39   462.49   482.25
                              497.69   563.23   586.04   626.43   665.15
                              702.88   791.35   876.66   923.78  1039.70
                             1059.85  1120.39  1275.68  1345.72  1394.97
                             1419.31  1473.11  1494.39  1515.85  1575.07
                             1608.90  1665.36  1670.30  1688.86  1734.92
                             1746.02  1776.30  1855.14  1980.55  2000.50
                             2030.24  2090.25  2101.73  2113.15  2122.27
                             2124.68  2128.35  2133.32  2142.06  2147.42
                             2152.48  2155.51  2159.50  2207.72  2339.33
                             4327.63  4329.74  4330.52  4331.86  4378.49
                             4385.85  4437.71  4438.28  4488.86  4489.20
                             4491.82  4495.29

 Zero-point correction=                           0.201856 (Hartree/Particle)
 Thermal correction to Energy=                    0.217039
 Thermal correction to Enthalpy=                  0.217984
 Thermal correction to Gibbs Free Energy=         0.158673
 Sum of electronic and zero-point Energies=           -689.278064
 Sum of electronic and thermal Energies=              -689.262880
 Sum of electronic and thermal Enthalpies=            -689.261936
 Sum of electronic and thermal Free Energies=         -689.321246

                     E (Thermal)             CV                S
                      KCal/Mol        Cal/Mol-Kelvin    Cal/Mol-Kelvin
 Total                  136.194             53.714            124.829
 Electronic               0.000              0.000              1.377
 Translational            0.889              2.981             41.725
 Rotational               0.889              2.981             31.608
 Vibrational            134.417             47.752             50.118
 Vibration     1          0.596              1.977              4.764
 Vibration     2          0.597              1.971              4.287
 Vibration     3          0.599              1.966              4.025
 Vibration     4          0.601              1.959              3.760
 Vibration     5          0.603              1.953              3.571
 Vibration     6          0.607              1.938              3.209
 Vibration     7          0.615              1.913              2.800
 Vibration     8          0.620              1.896              2.596
 Vibration     9          0.622              1.890              2.533
 Vibration    10          0.626              1.878              2.425
 Vibration    11          0.664              1.760              1.717
 Vibration    12          0.667              1.749              1.676
 Vibration    13          0.703              1.643              1.332
 Vibration    14          0.707              1.632              1.303
 Vibration    15          0.716              1.605              1.235
 Vibration    16          0.724              1.584              1.185
 Vibration    17          0.759              1.488              0.995
 Vibration    18          0.772              1.454              0.936
 Vibration    19          0.796              1.393              0.841
 Vibration    20          0.820              1.334              0.759
 Vibration    21          0.844              1.275              0.687
 Vibration    22          0.905              1.140              0.544
 Vibration    23          0.968              1.012              0.434

                           ! Non-Optimized Parameters !
 Normal termination of Gaussian 16 at Sat Feb 10 12:40:40 2024.
