 Gaussian 16, Revision A.03,
 Gaussian 16:  ES64L-G16RevA.03 25-Dec-2016

 ----------------------------------------------------------------
 #P UB3LYP/6-311++G(d,p) SCRF=(PCM,Solvent=n,n-DiMethylFormamide)
 ----------------------------------------------------------------

 ------------------
 Quinone PCM in DMF
 ------------------
 Symbolic Z-matrix:
 Charge =  0 Multiplicity = 1

                         Standard orientation:
 ---------------------------------------------------------------------
 Center     Atomic      Atomic             Coordinates (Angstroms)
 Number     Number       Type             X           Y           Z
 ---------------------------------------------------------------------
      1          6           0        2.405212   -1.089469    0.000195
      2          6           0        3.572503   -0.176454    0.000172
      3          6           0        3.421757    1.152448   -0.000219
      4          6           0        2.069821    1.774977   -0.000342
      5          6           0        1.036726   -0.463348   -0.000045
      6          6           0        0.902670    0.880911   -0.000283
      7          8           0        2.547661   -2.298228    0.000293
      8          8           0        1.948116    2.992253   -0.000322
      9         16           0       -0.256613   -1.667699   -0.000005
     10          6           0       -1.727494   -0.633878   -0.000054
     11          6           0       -2.316714   -0.261365   -1.211297
     12          6           0       -2.315843   -0.260481    1.211301
     13          6           0       -3.487792    0.493755    1.207607
     14          6           0       -3.488620    0.492848   -1.207295
     15          6           0       -4.073421    0.871575    0.000250
     16          1           0        4.542240   -0.661649    0.000400
     17          1           0        4.261746    1.838164   -0.000366
     18          1           0       -0.064062    1.368795   -0.000412
     19          1           0       -1.860792   -0.563111   -2.146693
     20          1           0       -1.859371   -0.561616    2.146629
     21          1           0       -3.942866    0.782924    2.147976
     22          1           0       -3.944285    0.781566   -2.147506
     23          1           0       -4.985847    1.456803    0.000347
 ---------------------------------------------------------------------

 SCF Done:  E(UB3LYP) =  -1010.89675372     A.U. after   17 cycles

 The electronic state is 1-A.
 Alpha  occ. eigenvalues --  -88.88507 -19.15336 -19.14098 -10.30083 -10.28778
 Alpha  occ. eigenvalues --  -10.25011 -10.22413 -10.21705 -10.21598 -10.20659
 Alpha  occ. eigenvalues --  -10.19665 -10.19664 -10.19226 -10.19149 -10.19129
 Alpha  occ. eigenvalues --   -7.97066  -5.93446  -5.93030  -5.92513  -1.08634
 Alpha  occ. eigenvalues --   -1.07060  -0.88960  -0.87201  -0.82775  -0.78284
 Alpha  occ. eigenvalues --   -0.76768  -0.73679  -0.70411  -0.64558  -0.62651
 Alpha  occ. eigenvalues --   -0.61255  -0.59413  -0.54012  -0.52694  -0.51608
 Alpha  occ. eigenvalues --   -0.48957  -0.47681  -0.47070  -0.46146  -0.45887
 Alpha  occ. eigenvalues --   -0.45005  -0.44100  -0.44100  -0.42629  -0.41258
 Alpha  occ. eigenvalues --   -0.40251  -0.38159  -0.36707  -0.35035  -0.34230
 Alpha  occ. eigenvalues --   -0.31573  -0.30129  -0.28710  -0.27619  -0.27327
 Alpha  occ. eigenvalues --   -0.25369
 Alpha virt. eigenvalues --   -0.14000  -0.04464  -0.03527  -0.03312  -0.00817
 Alpha virt. eigenvalues --   -0.00550   0.00272   0.01163   0.01310   0.01855
 Alpha virt. eigenvalues --    0.02182   0.02795   0.03631   0.04006   0.04144

  Beta  occ. eigenvalues --  -88.88507 -19.15336 -19.14098 -10.30083 -10.28778
  Beta  occ. eigenvalues --  -10.25011 -10.22413 -10.21705 -10.21598 -10.20659
  Beta  occ. eigenvalues --  -10.19665 -10.19664 -10.19226 -10.19149 -10.19129
  Beta  occ. eigenvalues --   -7.97066  -5.93446  -5.93030  -5.92513  -1.08634
  Beta  occ. eigenvalues --   -1.07060  -0.88960  -0.87201  -0.82775  -0.78284
  Beta  occ. eigenvalues --   -0.76768  -0.73679  -0.70411  -0.64558  -0.62651
  Beta  occ. eigenvalues --   -0.61255  -0.59413  -0.54012  -0.52694  -0.51608
  Beta  occ. eigenvalues --   -0.48957  -0.47681  -0.47070  -0.46146  -0.45887
  Beta  occ. eigenvalues --   -0.45005  -0.44100  -0.44100  -0.42629  -0.41258
  Beta  occ. eigenvalues --   -0.40251  -0.38159  -0.36707  -0.35035  -0.34230
  Beta  occ. eigenvalues --   -0.31573  -0.30129  -0.28710  -0.27619  -0.27327
  Beta  occ. eigenvalues --   -0.25369
  Beta virt. eigenvalues --   -0.14000  -0.04464  -0.03527  -0.03312  -0.00817
  Beta virt. eigenvalues --   -0.00550   0.00272   0.01163   0.01310   0.01855
  Beta virt. eigenvalues --    0.02182   0.02795   0.03631   0.04006   0.04144

 Mulliken charges and spin densities:
               1          2
     1  C   -0.741046  -0.000000
     2  C    0.053444   0.000000
     3  C    0.204649  -0.000000
     4  C   -0.355445   0.000000
     5  C    0.319385   0.000000
     6  C   -0.193544   0.000000
     7  O   -0.236494   0.000000
     8  O   -0.296932  -0.000000
     9  S   -0.015986  -0.000000
    10  C    1.188324  -0.000000
    11  C   -0.328117   0.000000
    12  C   -0.328902   0.000000
    13  C   -0.391260  -0.000000
    14  C   -0.391136  -0.000000
    15  C   -0.284990   0.000000
    16  H    0.242688  -0.000000
    17  H    0.251014  -0.000000
    18  H    0.257003   0.000000
    19  H    0.220495   0.000000
    20  H    0.220494   0.000000
    21  H    0.206040  -0.000000
    22  H    0.206037  -0.000000
    23  H    0.194278   0.000000
 Sum of Mulliken charges =  -0.00000  -0.00000

 Dipole moment (field-independent basis, Debye):
    X=             -2.2098    Y=              0.7562    Z=              0.0000  Tot=              2.3356
 Quadrupole moment (field-independent basis, Debye-Ang):
   XX=            -73.5330   YY=           -118.0808   ZZ=            -87.5161
   XY=             -2.4417   XZ=              0.0019   YZ=              0.0047

 Normal termination of Gaussian 16 at Wed Jan 24 22:50:11 2024.
