 Q-Chem 5.4, Q-Chem, Inc., Pleasanton, CA (2021)
 Q-Chem 5.4.0 for Intel X86 EM64T Linux

User input:
--------------------------------------------------------------
$molecule
-2 1
C                 -1.3673760000      2.0357070000     -4.7058270000
C                 -1.3805700000      0.6869930000     -4.9929490000
C                 -1.2847940000     -0.2589200000     -3.9324510000
C                 -1.2668470000      2.5236320000     -3.3759940000
C                 -1.1698560000      1.5668760000     -2.3033440000
C                 -1.1799130000      0.1851820000     -2.6311370000
C                 -1.2488170000      3.9416500000     -3.1379580000
C                 -1.0488340000      1.9709960000     -0.9286340000
C                 -1.1636350000      4.3604070000     -1.7606680000
C                 -1.0651220000      3.3901140000     -0.6728040000
C                 -1.1213080000      5.7787900000     -1.4338970000
C                 -0.8910200000      6.1844720000     -0.1314510000
C                 -0.7950140000      5.2408640000      0.9264340000
C                 -0.9286480000      3.8843220000      0.6901210000
O                 -1.2917310000      4.7695050000     -4.1513130000
O                 -0.9156780000      1.0625080000      0.0045970000
H                 -1.4338750000      2.7826100000     -5.4901820000
H                 -1.4630730000      0.3454700000     -6.0236240000
H                 -1.2938820000     -1.3258820000     -4.1498060000
H                 -1.1005430000     -0.5084600000     -1.8004380000
H                 -0.6661970000      5.6045300000      1.9410640000
H                 -0.8328760000      7.2423380000      0.1048630000
N                 -1.3345230000      6.7027290000     -2.4605260000
N                 -0.9536390000      2.9588320000      1.7371350000
C                 -0.8455130000      8.0457040000     -2.3543480000
C                 -0.3564530000      3.2653750000      3.0034860000
H                 -1.2859300000      6.2116040000     -3.3770280000
H                 -0.8578880000      1.9989540000      1.3460130000
H                  0.2142550000      8.1096600000     -2.0276830000
H                 -1.4260680000      8.6524220000     -1.6393520000
H                 -0.9275970000      8.5327060000     -3.3327830000
H                 -0.9473060000      3.9924080000      3.5854000000
H                  0.6667900000      3.6900070000      2.9226030000
H                 -0.2954190000      2.3476730000      3.5996110000
$end
$rem
MAX_SCF_CYCLES=200
BASIS  =  6-311++G(d,p)
GUI  =  2
JOB_TYPE  =  SP
METHOD  =  B3LYP
SOLVENT_METHOD = COSMO
$end
$solvent
dielectric 37.219
opticaldielectric 1.43
$end

--------------------------------------------------------------

             Standard Nuclear Orientation (Angstroms)
    I     Atom           X                Y                Z
 ----------------------------------------------------------------
    1      C       3.1843610430    -1.3934986964    -0.0299360216
    2      C       4.3830478582    -0.7125596796    -0.0633209397
    3      C       4.3831982202     0.7117226274    -0.0627368377
    4      C       1.9345734954    -0.7204983419     0.0117089318
    5      C       1.9347195060     0.7201150949     0.0121827709
    6      C       3.1846493094     1.3928829289    -0.0288858540
    7      C       0.7160854062    -1.4836821486     0.0361736030
    8      C       0.7163962978     1.4835694827     0.0369383964
    9      C      -0.5121170079    -0.7304514760     0.0970302078
   10      C      -0.5120050415     0.7305828407     0.0973656435
   11      C      -1.7912897622    -1.4261605532     0.1063651081
   12      C      -2.9715386472    -0.7101590028     0.0150941916
   13      C      -2.9714054154     0.7106625381     0.0152129994
   14      C      -1.7910930125     1.4264836918     0.1067049934
   15      O       0.7690138587    -2.7908869795    -0.0137060252
   16      O       0.7696414877     2.7907640032    -0.0121380878
   17      H       3.1485579374    -2.4780262263    -0.0340771683
   18      H       5.3246482772    -1.2588033580    -0.0905634593
   19      H       5.3249145073     1.2577887393    -0.0894937658
   20      H       3.1490705737     2.4774211567    -0.0321471212
   21      H      -3.9225476111     1.2333883089    -0.0049639241
   22      H      -3.9227466004    -1.2327485442    -0.0051321853
   23      N      -1.7882958286    -2.8185776152     0.2257668558
   24      N      -1.7879981660     2.8189923274     0.2263073683
   25      C      -2.9000339589    -3.5982444011    -0.2326482739
   26      C      -2.8986275949     3.5987760443    -0.2348696163
   27      H      -0.8202896461    -3.1715919793     0.0778281836
   28      H      -0.8197908784     3.1716528346     0.0789450167
   29      H      -3.2451008464    -3.3257711488    -1.2527442379
   30      H      -3.7804834763    -3.5080276220     0.4254092461
   31      H      -2.6123084135    -4.6557510248    -0.2443756623
   32      H      -3.7804340422     3.5093052834     0.4214234024
   33      H      -3.2416530342     3.3258025395    -1.2555064988
   34      H      -2.6105457304     4.6561961697    -0.2466443084
 ----------------------------------------------------------------

   12    -878.3174728781      6.97e-06  Convergence criterion met
 Total energy in the final basis set =     -878.3174728781
    5    -878.5815884463      7.93e-06  Convergence criterion met
 Total energy in the final basis set =     -878.5815884463

                    Orbital Energies (a.u.)
 --------------------------------------------------------------

 Alpha MOs
 -- Occupied --
-19.0324 -19.0324 -14.2756 -14.2756 -10.1831 -10.1830 -10.1756 -10.1756
-10.1754 -10.1754 -10.1518 -10.1514 -10.1488 -10.1487 -10.1464 -10.1460
-10.1408 -10.1404 -10.1314 -10.1309  -0.9528  -0.9493  -0.8955  -0.8905
 -0.8297  -0.8000  -0.7523  -0.7269  -0.7155  -0.7096  -0.6655  -0.6467
 -0.6327  -0.6002  -0.5903  -0.5481  -0.5368  -0.5081  -0.4947  -0.4720
 -0.4708  -0.4489  -0.4352  -0.4335  -0.4288  -0.4181  -0.4127  -0.4028
 -0.4009  -0.3838  -0.3833  -0.3825  -0.3731  -0.3585  -0.3529  -0.3478
 -0.3399  -0.3366  -0.3350  -0.3203  -0.3088  -0.3061  -0.2838  -0.2373
 -0.2337  -0.2242  -0.2164  -0.2103  -0.2063  -0.1611  -0.1095

          Ground-State Mulliken Net Atomic Charges

     Atom                 Charge (a.u.)
  ----------------------------------------
      1 C                    -0.068777
      2 C                    -0.570405
      3 C                    -0.571627
      4 C                     0.048509
      5 C                     0.050914
      6 C                    -0.068725
      7 C                    -0.237040
      8 C                    -0.236491
      9 C                     0.336292
     10 C                     0.338345
     11 C                    -0.122380
     12 C                    -0.309807
     13 C                    -0.311786
     14 C                    -0.123326
     15 O                    -0.663412
     16 O                    -0.663346
     17 H                     0.157653
     18 H                     0.180707
     19 H                     0.180707
     20 H                     0.157532
     21 H                     0.166737
     22 H                     0.167081
     23 N                    -0.312259
     24 N                    -0.312334
     25 C                    -0.421965
     26 C                    -0.422144
     27 H                     0.384005
     28 H                     0.383851
     29 H                     0.134498
     30 H                     0.142885
     31 H                     0.154313
     32 H                     0.142926
     33 H                     0.134633
     34 H                     0.154237
  ----------------------------------------
  Sum of atomic charges =    -2.000000

                    Cartesian Multipole Moments
 -----------------------------------------------------------------
    Charge (ESU x 10^10)
                -9.6064
    Dipole Moment (Debye)
         X      -4.3871      Y      -0.0036      Z      -1.4979
       Tot       4.6358
    Quadrupole Moments (Debye-Ang)
        XX    -150.0865     XY       0.0090     YY    -172.5143
        XZ       2.4440     YZ      -0.0255     ZZ    -134.5477

 Total job time:  120.59s(wall), 900.47s(cpu)
        *  Thank you very much for using Q-Chem.  Have a nice day.  *
