 Q-Chem 5.4, Q-Chem, Inc., Pleasanton, CA (2021)
 Q-Chem 5.4.0 for Intel X86 EM64T Linux

User input:
--------------------------------------------------------------
$molecule
-1 2
N                 -4.5507310000      1.0213580000     -0.4183320000
C                 -3.2855840000      0.4494510000     -0.3604640000
C                 -3.1441430000     -0.9628090000     -0.3821520000
Cl                -4.6063350000     -1.9606060000     -0.5774540000
C                 -1.9284700000     -1.5757760000     -0.2752370000
C                 -0.7527600000     -0.8203920000     -0.1283050000
C                  0.4976180000     -1.5799830000     -0.0183410000
O                  0.5098610000     -2.8337690000     -0.0517790000
C                  1.7166650000     -0.7946560000      0.1292440000
C                  2.9613680000     -1.4523630000      0.2362640000
C                  4.1331460000     -0.7375150000      0.3787940000
C                  4.0915880000      0.6735760000      0.4197890000
C                  2.8838770000      1.3338690000      0.3175340000
C                  1.6707030000      0.6234870000      0.1693100000
C                  0.4216190000      1.3892170000      0.0670410000
O                  0.4470000000      2.6413640000      0.1256440000
C                 -0.8161730000      0.6131350000     -0.0981110000
C                 -2.1093380000      1.1936050000     -0.2290760000
Br                -2.3783140000      3.1154410000     -0.2734010000
H                 -4.5568360000      1.9972740000     -0.6794580000
H                 -5.2530910000      0.4563950000     -0.8715410000
H                 -1.8302680000     -2.6532790000     -0.2987610000
H                  2.9571770000     -2.5356570000      0.2021800000
H                  5.0838380000     -1.2559030000      0.4597880000
H                  5.0118570000      1.2392460000      0.5321260000
H                  2.8257250000      2.4152900000      0.3472860000
$end
$rem
MAX_SCF_CYCLES=200
BASIS  =  6-311++G(d,p)
GUI  =  2
JOB_TYPE  =  SP
METHOD  =  B3LYP
SOLVENT_METHOD = COSMO
$end
$solvent
dielectric 37.219
opticaldielectric 1.43
$end

--------------------------------------------------------------

             Standard Nuclear Orientation (Angstroms)
    I     Atom           X                Y                Z
 ----------------------------------------------------------------
    1      N       3.7422604482    -0.1177154641     0.0979261007
    2      C       2.4154363526     0.2893346619     0.0281316308
    3      C       2.0978355458     1.6727871560     0.0161667814
    4      Cl      3.4329663877     2.8512865045    -0.0014992884
    5      C       0.8093822963     2.1252084649     0.0012206699
    6      C      -0.2690884359     1.2244510151     0.0062107139
    7      C      -1.6108185455     1.8178350072    -0.0068836543
    8      O      -1.7795236506     3.0606672121    -0.0192942420
    9      C      -2.7282713518     0.8819426625    -0.0064807980
   10      C      -4.0510796035     1.3750954543    -0.0236851530
   11      C      -5.1303863447     0.5151652173    -0.0219270294
   12      C      -4.9134744278    -0.8802277494    -0.0016007761
   13      C      -3.6273193396    -1.3807218060     0.0162759847
   14      C      -2.5060174617    -0.5198634018     0.0132758395
   15      C      -1.1655910916    -1.1197378708     0.0337694479
   16      O      -1.0368543104    -2.3664392092     0.0671345532
   17      C      -0.0266180589    -0.1901184734     0.0177789515
   18      C       1.3366423897    -0.5998670765     0.0178122925
   19      Br      1.8520734763    -2.4706198319    -0.0309865634
   20      H       3.9004935631    -1.0765457210    -0.1781951002
   21      H       4.4105591075     0.5445813010    -0.2662593678
   22      H       0.5773786087     3.1821657803    -0.0137876218
   23      H      -4.1817309652     2.4509353454    -0.0379653622
   24      H      -6.1427042582     0.9077577836    -0.0355264585
   25      H      -5.7606185549    -1.5598166780     0.0001018208
   26      H      -3.4349687516    -2.4467696136     0.0330551097
 ----------------------------------------------------------------

   11   -3777.5543257719      5.18e-06  Convergence criterion met
 Total energy in the final basis set =    -3777.5543257719
    4   -3777.6338934554      8.55e-06  Convergence criterion met
 Total energy in the final basis set =    -3777.6338934554

                    Orbital Energies (a.u.)
 --------------------------------------------------------------

 Alpha MOs
 -- Occupied --
********-101.5626 -62.4815 -56.3019 -56.2982 -56.2978 -19.0827 -19.0788
-14.3272 -10.2413 -10.2399 -10.2334 -10.2319 -10.2314 -10.1959 -10.1851
-10.1817 -10.1758 -10.1742 -10.1739 -10.1732 -10.1715 -10.1700  -9.4770
 -8.6903  -7.2414  -7.2320  -7.2316  -6.5216  -6.5092  -6.5082  -2.6325
 -2.6291  -2.6284  -2.6186  -2.6185  -1.0120  -1.0092  -0.9453  -0.8778
 -0.8615  -0.8497  -0.8036  -0.7790  -0.7526  -0.7364  -0.7351  -0.6699
 -0.6409  -0.6220  -0.5980  -0.5653  -0.5459  -0.5339  -0.5175  -0.4949
 -0.4721  -0.4646  -0.4588  -0.4379  -0.4318  -0.4254  -0.4234  -0.4204
 -0.4098  -0.4091  -0.4034  -0.3897  -0.3649  -0.3590  -0.3562  -0.3518
 -0.3393  -0.3290  -0.3183  -0.3091  -0.2988  -0.2676  -0.2588  -0.2526
 -0.2518  -0.2345  -0.2270  -0.1452

 Beta MOs
 -- Occupied --
********-101.5626 -62.4815 -56.3019 -56.2982 -56.2978 -19.0778 -19.0727
-14.3270 -10.2409 -10.2395 -10.2328 -10.2302 -10.2296 -10.1949 -10.1852
-10.1811 -10.1751 -10.1735 -10.1735 -10.1727 -10.1715 -10.1700  -9.4770
 -8.6902  -7.2414  -7.2319  -7.2316  -6.5216  -6.5092  -6.5082  -2.6325
 -2.6291  -2.6284  -2.6185  -2.6185  -1.0031  -0.9987  -0.9445  -0.8770
 -0.8591  -0.8485  -0.8024  -0.7760  -0.7503  -0.7350  -0.7332  -0.6630
 -0.6392  -0.6196  -0.5971  -0.5631  -0.5441  -0.5326  -0.5161  -0.4932
 -0.4694  -0.4637  -0.4580  -0.4328  -0.4284  -0.4239  -0.4213  -0.4174
 -0.4063  -0.4031  -0.3993  -0.3691  -0.3640  -0.3551  -0.3543  -0.3456
 -0.3382  -0.3288  -0.3097  -0.3058  -0.2977  -0.2545  -0.2501  -0.2473
 -0.2462  -0.2296  -0.2206

          Ground-State Mulliken Net Atomic Charges

     Atom                 Charge (a.u.)    Spin (a.u.)
  --------------------------------------------------------
      1 N                    -0.236215       0.009496
      2 C                    -0.888245       0.023796
      3 C                     1.032554       0.031818
      4 Cl                    0.401654       0.002372
      5 C                    -0.169996       0.013014
      6 C                    -0.302476       0.030648
      7 C                    -0.567727       0.093263
      8 O                    -0.480594       0.179219
      9 C                    -0.012181       0.021630
     10 C                     0.045411       0.021839
     11 C                    -0.463578       0.039895
     12 C                    -0.518024       0.028989
     13 C                     0.142873       0.034563
     14 C                     0.170322       0.020263
     15 C                    -1.007281       0.105136
     16 O                    -0.380779       0.221816
     17 C                     0.743477       0.072629
     18 C                     0.133980       0.055581
     19 Br                   -0.162927       0.003709
     20 H                     0.275024      -0.000382
     21 H                     0.261674       0.000149
     22 H                     0.219434      -0.000671
     23 H                     0.175129      -0.000958
     24 H                     0.205654      -0.003115
     25 H                     0.203175      -0.002558
     26 H                     0.179663      -0.002140
  --------------------------------------------------------
  Sum of atomic charges =    -1.000000

                    Cartesian Multipole Moments
 -----------------------------------------------------------------
    Charge (ESU x 10^10)
                -4.8032
    Dipole Moment (Debye)
         X       5.4461      Y      -1.7091      Z      -1.2892
       Tot       5.8518
    Quadrupole Moments (Debye-Ang)
        XX    -131.4662     XY       4.3840     YY    -169.0381
        XZ      -5.0237     YZ       0.6721     ZZ    -136.2479

 Total job time:  123.56s(wall), 908.01s(cpu)
        *  Thank you very much for using Q-Chem.  Have a nice day.  *
