 Gaussian 16, Revision A.03,
 Gaussian 16:  ES64L-G16RevA.03 25-Dec-2016

 ----------------------------------------------------------------------
 #P UB3LYP/6-311++G(d,p) nosym opt freq SCRF=(PCM,Solvent=n,n-DiMethylF
 ormamide)
 ----------------------------------------------------------------------

 -------
 Radical
 -------
 Symbolic Z-matrix:
 Charge = -1 Multiplicity = 2

 SCF Done:  E(UB3LYP) =  -767.746091862     A.U. after   18 cycles
 SCF Done:  E(UB3LYP) =  -767.746345483     A.U. after   13 cycles
 SCF Done:  E(UB3LYP) =  -767.746375266     A.U. after   12 cycles
 SCF Done:  E(UB3LYP) =  -767.746375430     A.U. after   10 cycles
 SCF Done:  E(UB3LYP) =  -767.746376407     A.U. after    9 cycles
 SCF Done:  E(UB3LYP) =  -767.746376487     A.U. after    9 cycles
 Optimization completed.
    -- Stationary point found.
 Normal termination of Gaussian 16 at Sat Feb 10 16:40:49 2024.

 ----------------------------------------------------------------------
 #P Geom=AllCheck Guess=TCheck SCRF=Check GenChk UB3LYP/6-311++G(d,p) F
 req
 ----------------------------------------------------------------------

 Structure from the checkpoint file:  "125-rad.chk"
 -------
 Radical
 -------
 Charge = -1 Multiplicity = 2

                          Input orientation:
 ---------------------------------------------------------------------
 Center     Atomic      Atomic             Coordinates (Angstroms)
 Number     Number       Type             X           Y           Z
 ---------------------------------------------------------------------
      1          6           0       -4.772605   -0.235117   -0.495717
      2          6           0       -3.972041   -0.495870    0.792719
      3          6           0       -2.548521    0.011110    0.722461
      4          6           0       -2.272176    1.392699    0.881682
      5          6           0       -0.982048    1.871086    0.793914
      6          6           0        0.108940    1.007672    0.542702
      7          6           0        1.460643    1.552893    0.458338
      8          8           0        1.690415    2.787933    0.600217
      9          6           0        2.535600    0.596747    0.202315
     10          6           0        3.870070    1.055041    0.109881
     11          6           0        4.913779    0.184252   -0.131594
     12          6           0        4.655992   -1.194755   -0.291749
     13          6           0        3.361939   -1.667554   -0.205365
     14          6           0        2.274839   -0.797014    0.041742
     15          6           0        0.921506   -1.340227    0.127344
     16          8           0        0.692255   -2.576315   -0.013245
     17          6           0       -0.152819   -0.383689    0.382932
     18          6           0       -1.487132   -0.842859    0.479342
     19          1           0       -4.309825   -0.736668   -1.350332
     20          1           0       -5.796867   -0.606304   -0.397938
     21          1           0       -4.822037    0.833954   -0.720761
     22          1           0       -4.486439   -0.017075    1.633508
     23          1           0       -3.963299   -1.570024    1.000068
     24          1           0       -3.089071    2.079901    1.081289
     25          1           0       -0.776058    2.927161    0.921455
     26          1           0        4.051946    2.115606    0.235376
     27          1           0        5.930336    0.556698   -0.198658
     28          1           0        5.474964   -1.880161   -0.481988
     29          1           0        3.149216   -2.722957   -0.325774
     30          1           0       -1.661503   -1.906167    0.357538
 ---------------------------------------------------------------------

 SCF Done:  E(UB3LYP) =  -767.746376487     A.U. after    1 cycles

 Alpha  occ. eigenvalues --  -19.07406 -19.07372 -10.22281 -10.22189 -10.17792
 Alpha  occ. eigenvalues --  -10.17245 -10.17213 -10.17200 -10.17164 -10.17155
 Alpha  occ. eigenvalues --  -10.17018 -10.16959 -10.16944 -10.16933 -10.16931
 Alpha  occ. eigenvalues --  -10.16870 -10.16519 -10.15874  -0.99803  -0.99529
 Alpha  occ. eigenvalues --   -0.86143  -0.85165  -0.79716  -0.76685  -0.74988
 Alpha  occ. eigenvalues --   -0.74435  -0.72401  -0.66676  -0.64324  -0.62462
 Alpha  occ. eigenvalues --   -0.59639  -0.58428  -0.55482  -0.52974  -0.51589
 Alpha  occ. eigenvalues --   -0.47299  -0.46756  -0.45788  -0.45067  -0.43224
 Alpha  occ. eigenvalues --   -0.42427  -0.42155  -0.41956  -0.41476  -0.40878
 Alpha  occ. eigenvalues --   -0.40002  -0.39466  -0.37902  -0.37732  -0.36152
 Alpha  occ. eigenvalues --   -0.35858  -0.34943  -0.33876  -0.33485  -0.33115
 Alpha  occ. eigenvalues --   -0.32663  -0.26484  -0.25717  -0.25303  -0.24465
 Alpha  occ. eigenvalues --   -0.24273  -0.23617  -0.14137
 Alpha virt. eigenvalues --   -0.05311  -0.02074  -0.00441  -0.00247   0.00301
 Alpha virt. eigenvalues --    0.01190   0.01713   0.02056   0.02189   0.03660
 Alpha virt. eigenvalues --    0.04022   0.04329   0.04681   0.05187   0.05546

  Beta  occ. eigenvalues --  -19.06861 -19.06807 -10.22104 -10.22001 -10.17745
  Beta  occ. eigenvalues --  -10.17168 -10.17164 -10.17122 -10.17112 -10.17079
  Beta  occ. eigenvalues --  -10.16958 -10.16957 -10.16939 -10.16936 -10.16907
  Beta  occ. eigenvalues --  -10.16847 -10.16507 -10.15868  -0.98835  -0.98526
  Beta  occ. eigenvalues --   -0.85891  -0.85043  -0.79452  -0.76469  -0.74755
  Beta  occ. eigenvalues --   -0.74264  -0.72260  -0.65985  -0.64156  -0.62281
  Beta  occ. eigenvalues --   -0.59480  -0.58359  -0.55232  -0.52770  -0.51419
  Beta  occ. eigenvalues --   -0.47123  -0.46549  -0.45631  -0.45011  -0.43146
  Beta  occ. eigenvalues --   -0.42358  -0.41946  -0.41521  -0.40674  -0.40390
  Beta  occ. eigenvalues --   -0.39808  -0.39218  -0.37745  -0.36049  -0.35585
  Beta  occ. eigenvalues --   -0.35338  -0.34880  -0.33809  -0.33386  -0.32564
  Beta  occ. eigenvalues --   -0.31984  -0.25316  -0.24464  -0.24389  -0.23954
  Beta  occ. eigenvalues --   -0.23668  -0.23103
  Beta virt. eigenvalues --   -0.08231  -0.04366  -0.01137  -0.00349  -0.00069
  Beta virt. eigenvalues --    0.00339   0.01198   0.01727   0.02091   0.02186
  Beta virt. eigenvalues --    0.03683   0.04029   0.04348   0.04862   0.05518

 Mulliken charges and spin densities:
               1          2
     1  C   -0.650709  -0.001102
     2  C   -0.137017  -0.000445
     3  C    0.650353   0.033219
     4  C   -0.481890   0.035855
     5  C    0.034289   0.025821
     6  C    0.182833   0.025636
     7  C   -0.668876   0.099115
     8  O   -0.467417   0.202397
     9  C    0.153900   0.034660
    10  C    0.084958   0.025824
    11  C   -0.455889   0.041019
    12  C   -0.455984   0.034389
    13  C    0.042247   0.029584
    14  C    0.359359   0.034605
    15  C   -0.593946   0.107715
    16  O   -0.465536   0.210180
    17  C    0.241079   0.048246
    18  C   -0.320233   0.026688
    19  H    0.141612   0.000788
    20  H    0.142706   0.000187
    21  H    0.143921  -0.000457
    22  H    0.151702   0.001942
    23  H    0.170832  -0.000039
    24  H    0.185737  -0.002849
    25  H    0.168561  -0.001471
    26  H    0.165082  -0.001337
    27  H    0.180295  -0.003333
    28  H    0.181385  -0.002948
    29  H    0.161966  -0.001725
    30  H    0.154677  -0.002164
 Sum of Mulliken charges =  -1.00000   1.00000

 Dipole moment (field-independent basis, Debye):
    X=             -6.4828    Y=             -0.5648    Z=             -1.3577  Tot=              6.6475
 Quadrupole moment (field-independent basis, Debye-Ang):
   XX=           -108.9818   YY=           -141.3852   ZZ=           -113.7604
   XY=             -7.3449   XZ=             -4.2813   YZ=             -3.0956

  Exact polarizability: 495.038  -8.907 365.379 -35.315  30.317 163.338
 Approx polarizability: 497.281  -1.288 435.464 -36.269  35.981 184.812

                      1                      2                      3
                      A                      A                      A
 Frequencies --     35.7298                46.6741                83.4433
 Red. masses --      2.9014                 4.3726                 4.8138
 Frc consts  --      0.0022                 0.0056                 0.0197
 IR Inten    --      2.4227                 8.2671                 4.6320

                      4                      5                      6
                      A                      A                      A
 Frequencies --    125.7987               152.8710               168.4102
 Red. masses --      4.2179                 5.1223                 2.9073
 Frc consts  --      0.0393                 0.0705                 0.0486
 IR Inten    --      0.4263                 1.1460                 5.2640

                      7                      8                      9
                      A                      A                      A
 Frequencies --    177.9902               229.7264               233.5250
 Red. masses --      3.4050                 3.0178                 1.7943
 Frc consts  --      0.0636                 0.0938                 0.0577
 IR Inten    --      3.9362                 1.2350                 3.6201

                     10                     11                     12
                      A                      A                      A
 Frequencies --    279.2448               316.1532               359.6971
 Red. masses --      4.1264                 5.9122                 3.3391
 Frc consts  --      0.1896                 0.3482                 0.2545
 IR Inten    --      3.0633                 2.1448                 3.7382

                     13                     14                     15
                      A                      A                      A
 Frequencies --    377.0962               387.2433               417.6988
 Red. masses --     10.2127                 4.7415                 3.7167
 Frc consts  --      0.8556                 0.4189                 0.3821
 IR Inten    --     19.2773                 4.7905                 1.8668

                     16                     17                     18
                      A                      A                      A
 Frequencies --    434.7894               452.9385               466.6321
 Red. masses --      5.1478                 4.6459                 3.1729
 Frc consts  --      0.5734                 0.5616                 0.4071
 IR Inten    --      1.8333                 1.7409                 0.1107

                     19                     20                     21
                      A                      A                      A
 Frequencies --    490.2396               547.9295               586.0379
 Red. masses --     10.9281                 4.7644                 4.5319
 Frc consts  --      1.5474                 0.8428                 0.9170
 IR Inten    --      0.3395                14.8164                16.3857

                     22                     23                     24
                      A                      A                      A
 Frequencies --    637.6671               659.6463               667.5665
 Red. masses --      6.6168                 4.4912                 4.3137
 Frc consts  --      1.5852                 1.1514                 1.1326
 IR Inten    --     19.3779                19.2637                19.5358

                     25                     26                     27
                      A                      A                      A
 Frequencies --    697.3423               707.4020               734.9468
 Red. masses --      6.2362                 2.7130                 5.0362
 Frc consts  --      1.7867                 0.7999                 1.6028
 IR Inten    --      1.6431                98.3351                 2.9450

                     28                     29                     30
                      A                      A                      A
 Frequencies --    742.8806               787.2517               792.3903
 Red. masses --      4.1196                 1.6857                 1.2090
 Frc consts  --      1.3395                 0.6156                 0.4473
 IR Inten    --      3.8527                27.9432                 2.5865

                     31                     32                     33
                      A                      A                      A
 Frequencies --    800.8372               844.1218               847.3950
 Red. masses --      3.9058                 3.2089                 1.9785
 Frc consts  --      1.4759                 1.3472                 0.8371
 IR Inten    --      0.2850                22.7538                29.6639

                     34                     35                     36
                      A                      A                      A
 Frequencies --    884.5008               927.4407               932.1920
 Red. masses --      1.4708                 1.4619                 6.0143
 Frc consts  --      0.6780                 0.7409                 3.0793
 IR Inten    --      0.1240                15.5926                41.5500

                     37                     38                     39
                      A                      A                      A
 Frequencies --    953.8161               988.7212               993.7782
 Red. masses --      3.0543                 1.3546                 1.3553
 Frc consts  --      1.6371                 0.7802                 0.7886
 IR Inten    --      2.3106                 1.9872                 2.0534

                     40                     41                     42
                      A                      A                      A
 Frequencies --    994.5870              1000.9009              1037.0430
 Red. masses --      2.4379                 1.2848                 1.9663
 Frc consts  --      1.4208                 0.7584                 1.2459
 IR Inten    --      0.7555                 0.0366                31.7825

                     43                     44                     45
                      A                      A                      A
 Frequencies --   1068.7409              1082.5273              1109.6661
 Red. masses --      1.8595                 1.6146                 2.4782
 Frc consts  --      1.2514                 1.1148                 1.7980
 IR Inten    --     10.8897                 7.2138                46.9398

                     46                     47                     48
                      A                      A                      A
 Frequencies --   1122.0251              1149.6523              1153.6707
 Red. masses --      1.9923                 1.5391                 1.4347
 Frc consts  --      1.4778                 1.1985                 1.1251
 IR Inten    --      7.4041                12.5930                 8.5460

                     49                     50                     51
                      A                      A                      A
 Frequencies --   1195.3644              1215.8652              1220.6073
 Red. masses --      2.1685                 1.9073                 1.9177
 Frc consts  --      1.8256                 1.6613                 1.6833
 IR Inten    --      3.0332                30.1287                55.2817

                     52                     53                     54
                      A                      A                      A
 Frequencies --   1234.4404              1261.7922              1279.2310
 Red. masses --      3.6479                 1.8194                 1.4847
 Frc consts  --      3.2751                 1.7067                 1.4315
 IR Inten    --     27.1839               222.8406                87.3895

                     55                     56                     57
                      A                      A                      A
 Frequencies --   1344.7567              1345.9509              1357.6821
 Red. masses --      1.6774                 1.8295                10.2100
 Frc consts  --      1.7872                 1.9527                11.0885
 IR Inten    --     28.4925                15.5705                14.4968

                     58                     59                     60
                      A                      A                      A
 Frequencies --   1367.1628              1399.1865              1408.0619
 Red. masses --      6.1257                 1.2228                 3.0031
 Frc consts  --      6.7460                 1.4104                 3.5081
 IR Inten    --      7.8406                 8.5614              1269.5885

                     61                     62                     63
                      A                      A                      A
 Frequencies --   1459.9334              1472.5712              1477.2799
 Red. masses --      2.9699                 3.2861                 1.0687
 Frc consts  --      3.7295                 4.1984                 1.3741
 IR Inten    --    322.9714               170.0247                10.1964

                     64                     65                     66
                      A                      A                      A
 Frequencies --   1485.8841              1492.7737              1499.0847
 Red. masses --      1.0413                 2.7707                 1.9575
 Frc consts  --      1.3546                 3.6377                 2.5918
 IR Inten    --     11.6346                57.0533               494.8724

                     67                     68                     69
                      A                      A                      A
 Frequencies --   1502.4021              1522.9218              1554.7111
 Red. masses --      1.8774                 4.8432                 5.3836
 Frc consts  --      2.4968                 6.6182                 7.6670
 IR Inten    --    337.2738                35.3763                99.5264

                     70                     71                     72
                      A                      A                      A
 Frequencies --   1604.8260              1623.2229              1636.4832
 Red. masses --      8.4814                 5.6405                 6.3728
 Frc consts  --     12.8698                 8.7564                10.0556
 IR Inten    --      3.6732                 8.7077                16.2450

                     73                     74                     75
                      A                      A                      A
 Frequencies --   3018.0662              3019.2473              3055.2903
 Red. masses --      1.0623                 1.0342                 1.1000
 Frc consts  --      5.7010                 5.5545                 6.0498
 IR Inten    --     71.8687                65.8831                13.9803

                     76                     77                     78
                      A                      A                      A
 Frequencies --   3083.5086              3088.2353              3151.3776
 Red. masses --      1.1019                 1.1033                 1.0884
 Frc consts  --      6.1730                 6.1998                 6.3687
 IR Inten    --     87.1820                72.8128                30.3858

                     79                     80                     81
                      A                      A                      A
 Frequencies --   3158.0470              3171.9682              3172.7865
 Red. masses --      1.0859                 1.0901                 1.0892
 Frc consts  --      6.3809                 6.4620                 6.4602
 IR Inten    --     13.2352                19.7815                18.7885

                     82                     83                     84
                      A                      A                      A
 Frequencies --   3187.1110              3187.8348              3191.4043
 Red. masses --      1.0918                 1.0919                 1.0945
 Frc consts  --      6.5344                 6.5377                 6.5682
 IR Inten    --     26.1500                21.5114                43.5603

 - Thermochemistry -
 -------------------
 Temperature   298.150 Kelvin.  Pressure   1.00000 Atm.
 Atom     1 has atomic number  6 and mass  12.00000

 Molecular mass:   236.08373 amu.
 Principal axes and moments of inertia in atomic units:
                           1         2         3
     Eigenvalues --  1860.826716861.437788539.50399
           X            0.99782   0.03648   0.05502
           Y           -0.02730   0.98686  -0.15927
           Z           -0.06010   0.15742   0.98570
 This molecule is an asymmetric top.
 Rotational symmetry number  1.
 Warning -- assumption of classical behavior for rotation
           may cause significant error
 Rotational temperatures (Kelvin)      0.04655     0.01262     0.01014
 Rotational constants (GHZ):           0.96986     0.26303     0.21134
 Zero-point vibrational energy     610906.9 (Joules/Mol)
                                  146.01024 (Kcal/Mol)
 Warning -- explicit consideration of  21 degrees of freedom as
           vibrations may cause significant error
 Vibrational temperatures:     51.41    67.15   120.06   181.00   219.95
          (Kelvin)            242.30   256.09   330.52   335.99   401.77
                              454.87   517.52   542.56   557.16   600.98
                              625.56   651.68   671.38   705.35   788.35
                              843.18   917.46   949.08   960.48  1003.32
                             1017.79  1057.42  1068.84  1132.68  1140.07
                             1152.23  1214.50  1219.21  1272.60  1334.38
                             1341.22  1372.33  1422.55  1429.83  1430.99
                             1440.07  1492.07  1537.68  1557.52  1596.56
                             1614.34  1654.09  1659.87  1719.86  1749.36
                             1756.18  1776.08  1815.44  1840.53  1934.81
                             1936.52  1953.40  1967.04  2013.12  2025.89
                             2100.52  2118.70  2125.48  2137.86  2147.77
                             2156.85  2161.62  2191.14  2236.88  2308.99
                             2335.46  2354.53  4342.32  4344.02  4395.88
                             4436.48  4443.28  4534.13  4543.73  4563.75
                             4564.93  4585.54  4586.58  4591.72

 Zero-point correction=                           0.232682 (Hartree/Particle)
 Thermal correction to Energy=                    0.246975
 Thermal correction to Enthalpy=                  0.247919
 Thermal correction to Gibbs Free Energy=         0.190342
 Sum of electronic and zero-point Energies=           -767.513694
 Sum of electronic and thermal Energies=              -767.499402
 Sum of electronic and thermal Enthalpies=            -767.498458
 Sum of electronic and thermal Free Energies=         -767.556034

                     E (Thermal)             CV                S
                      KCal/Mol        Cal/Mol-Kelvin    Cal/Mol-Kelvin
 Total                  154.979             57.013            121.180
 Electronic               0.000              0.000              1.377
 Translational            0.889              2.981             42.279
 Rotational               0.889              2.981             33.055
 Vibrational            153.202             51.051             44.469
 Vibration     1          0.594              1.982              5.483
 Vibration     2          0.595              1.979              4.954
 Vibration     3          0.600              1.961              3.808
 Vibration     4          0.611              1.927              3.009
 Vibration     5          0.619              1.899              2.636
 Vibration     6          0.625              1.881              2.453
 Vibration     7          0.628              1.869              2.349
 Vibration     8          0.652              1.796              1.881
 Vibration     9          0.654              1.790              1.852
 Vibration    10          0.680              1.712              1.538
 Vibration    11          0.703              1.643              1.330
 Vibration    12          0.734              1.555              1.123
 Vibration    13          0.748              1.519              1.051
 Vibration    14          0.756              1.497              1.011
 Vibration    15          0.781              1.432              0.900
 Vibration    16          0.795              1.394              0.843
 Vibration    17          0.811              1.354              0.787
 Vibration    18          0.824              1.324              0.747
 Vibration    19          0.846              1.272              0.683
 Vibration    20          0.903              1.144              0.548
 Vibration    21          0.943              1.062              0.474

                           ! Non-Optimized Parameters !
 Normal termination of Gaussian 16 at Sat Feb 10 18:30:42 2024.
