 Gaussian 16, Revision A.03,
 Gaussian 16:  ES64L-G16RevA.03 25-Dec-2016

 ----------------------------------------------------------------------
 #P UB3LYP/6-311++G(d,p) nosym opt freq SCRF=(PCM,Solvent=n,n-DiMethylF
 ormamide)
 ----------------------------------------------------------------------

 -------
 Reduced
 -------
 Symbolic Z-matrix:
 Charge = -2 Multiplicity = 1

 SCF Done:  E(UB3LYP) =  -1458.37436591     A.U. after   17 cycles
 SCF Done:  E(UB3LYP) =  -1458.37479745     A.U. after   14 cycles
 SCF Done:  E(UB3LYP) =  -1458.37457055     A.U. after   14 cycles
 SCF Done:  E(UB3LYP) =  -1458.37498290     A.U. after   14 cycles
 SCF Done:  E(UB3LYP) =  -1458.37543292     A.U. after   13 cycles
 SCF Done:  E(UB3LYP) =  -1458.37545857     A.U. after   11 cycles
 SCF Done:  E(UB3LYP) =  -1458.37546855     A.U. after   11 cycles
 SCF Done:  E(UB3LYP) =  -1458.37547031     A.U. after   10 cycles
 SCF Done:  E(UB3LYP) =  -1458.37547047     A.U. after    9 cycles
 Optimization completed.
    -- Stationary point found.
 Normal termination of Gaussian 16 at Sat Feb 10 10:48:05 2024.

 ----------------------------------------------------------------------
 #P Geom=AllCheck Guess=TCheck SCRF=Check GenChk UB3LYP/6-311++G(d,p) F
 req
 ----------------------------------------------------------------------

 Structure from the checkpoint file:  "014-an.chk"
 -------
 Reduced
 -------
 Charge = -2 Multiplicity = 1

                          Input orientation:
 ---------------------------------------------------------------------
 Center     Atomic      Atomic             Coordinates (Angstroms)
 Number     Number       Type             X           Y           Z
 ---------------------------------------------------------------------
      1          6           0       -1.565410   -1.542439   -0.638456
      2          6           0       -1.162174   -0.139043   -0.126295
      3          6           0       -1.566032    0.005655    1.360273
      4          6           0       -1.981688    0.893315   -0.925759
      5          6           0        0.363944    0.050065   -0.275230
      6          6           0        0.874735    1.077900   -1.067075
      7          6           0        2.254097    1.366588   -1.297797
      8          8           0        2.649069    2.356914   -2.050935
      9          6           0        3.120039    0.467894   -0.626134
     10          6           0        2.639771   -0.579891    0.181745
     11         17           0        3.803471   -1.665744    0.986349
     12          6           0        1.259987   -0.855780    0.415818
     13          8           0        0.865528   -1.832970    1.177796
     14         17           0        4.874133    0.714443   -0.841987
     15          1           0       -1.002981   -2.310996   -0.108788
     16          1           0       -2.638044   -1.713217   -0.487888
     17          1           0       -1.359799   -1.631300   -1.710675
     18          1           0       -1.015912   -0.709650    1.970684
     19          1           0       -2.641505   -0.168193    1.484757
     20          1           0       -1.346959    1.016922    1.719588
     21          1           0       -3.048567    0.697555   -0.777083
     22          1           0       -1.781637    0.835802   -1.999653
     23          1           0       -1.785473    1.918402   -0.598272
     24          1           0        0.191409    1.747767   -1.576570
 ---------------------------------------------------------------------

 SCF Done:  E(UB3LYP) =  -1458.37547047     A.U. after    2 cycles

 Alpha  occ. eigenvalues -- -101.52857-101.52727 -19.01769 -19.01358 -10.18762
 Alpha  occ. eigenvalues --  -10.18697 -10.17989 -10.17858 -10.16714 -10.14175
 Alpha  occ. eigenvalues --  -10.13926 -10.13429 -10.13409 -10.12525  -9.44304
 Alpha  occ. eigenvalues --   -9.44180  -7.20707  -7.20583  -7.19840  -7.19772
 Alpha  occ. eigenvalues --   -7.19720  -7.19643  -0.93306  -0.92724  -0.85219
 Alpha  occ. eigenvalues --   -0.81389  -0.80556  -0.76104  -0.68125  -0.66856
 Alpha  occ. eigenvalues --   -0.66428  -0.64906  -0.57157  -0.54143  -0.50406
 Alpha  occ. eigenvalues --   -0.45800  -0.44500  -0.42651  -0.42032  -0.40933
 Alpha  occ. eigenvalues --   -0.40385  -0.38911  -0.36997  -0.36894  -0.36057
 Alpha  occ. eigenvalues --   -0.35234  -0.34873  -0.33577  -0.33030  -0.31919
 Alpha  occ. eigenvalues --   -0.31606  -0.30792  -0.30508  -0.29743  -0.29193
 Alpha  occ. eigenvalues --   -0.27815  -0.22431  -0.20799  -0.20003  -0.19354
 Alpha  occ. eigenvalues --   -0.12434
 Alpha virt. eigenvalues --   -0.00203   0.00503   0.01759   0.01894   0.02363
 Alpha virt. eigenvalues --    0.02824   0.03345   0.04376   0.04446   0.04790
 Alpha virt. eigenvalues --    0.05119   0.05693   0.06594   0.06743   0.07033

  Beta  occ. eigenvalues -- -101.52857-101.52727 -19.01769 -19.01358 -10.18762
  Beta  occ. eigenvalues --  -10.18697 -10.17989 -10.17858 -10.16714 -10.14175
  Beta  occ. eigenvalues --  -10.13926 -10.13429 -10.13409 -10.12525  -9.44304
  Beta  occ. eigenvalues --   -9.44180  -7.20707  -7.20583  -7.19840  -7.19772
  Beta  occ. eigenvalues --   -7.19720  -7.19643  -0.93306  -0.92724  -0.85219
  Beta  occ. eigenvalues --   -0.81389  -0.80556  -0.76104  -0.68125  -0.66856
  Beta  occ. eigenvalues --   -0.66428  -0.64906  -0.57157  -0.54143  -0.50406
  Beta  occ. eigenvalues --   -0.45800  -0.44500  -0.42651  -0.42032  -0.40933
  Beta  occ. eigenvalues --   -0.40385  -0.38911  -0.36997  -0.36894  -0.36057
  Beta  occ. eigenvalues --   -0.35234  -0.34873  -0.33577  -0.33030  -0.31919
  Beta  occ. eigenvalues --   -0.31606  -0.30792  -0.30508  -0.29743  -0.29193
  Beta  occ. eigenvalues --   -0.27815  -0.22431  -0.20799  -0.20003  -0.19354
  Beta  occ. eigenvalues --   -0.12434
  Beta virt. eigenvalues --   -0.00203   0.00503   0.01759   0.01894   0.02363
  Beta virt. eigenvalues --    0.02824   0.03345   0.04376   0.04446   0.04790
  Beta virt. eigenvalues --    0.05119   0.05693   0.06594   0.06743   0.07033

 Mulliken charges and spin densities:
               1          2
     1  C   -0.686441  -0.000000
     2  C    0.514689  -0.000000
     3  C   -0.682483  -0.000000
     4  C   -0.515423   0.000000
     5  C    0.595100   0.000000
     6  C   -0.477245  -0.000000
     7  C   -0.947798   0.000000
     8  O   -0.684575   0.000000
     9  C    0.636127   0.000000
    10  C    0.142950  -0.000000
    11  Cl   0.251144   0.000000
    12  C   -1.232766  -0.000000
    13  O   -0.595462   0.000000
    14  Cl   0.231859  -0.000000
    15  H    0.183304   0.000000
    16  H    0.134625   0.000000
    17  H    0.119611   0.000000
    18  H    0.182004   0.000000
    19  H    0.135502   0.000000
    20  H    0.120199   0.000000
    21  H    0.162622  -0.000000
    22  H    0.125750  -0.000000
    23  H    0.125255  -0.000000
    24  H    0.161452   0.000000
 Sum of Mulliken charges =  -2.00000   0.00000

 Dipole moment (field-independent basis, Debye):
    X=            -21.9929    Y=             -1.6636    Z=              3.6604  Tot=             22.3574
 Quadrupole moment (field-independent basis, Debye-Ang):
   XX=           -177.8109   YY=           -144.5957   ZZ=           -130.7692
   XY=            -15.5337   XZ=             17.6620   YZ=             28.6268

  Exact polarizability: 296.922   5.369 237.565  -5.829 -57.630 206.184
 Approx polarizability: 308.019   6.844 262.249  -7.033 -67.614 225.633

                      1                      2                      3
                      A                      A                      A
 Frequencies --     58.9712                69.8727               104.1397
 Red. masses --      3.7077                 5.9582                10.1572
 Frc consts  --      0.0076                 0.0171                 0.0649
 IR Inten    --      1.5640                 9.3325                 0.0627

                      4                      5                      6
                      A                      A                      A
 Frequencies --    170.9234               180.9527               208.3974
 Red. masses --      4.5616                 6.4436                19.8680
 Frc consts  --      0.0785                 0.1243                 0.5084
 IR Inten    --     11.8065                16.5128                 0.7892

                      7                      8                      9
                      A                      A                      A
 Frequencies --    214.9035               233.7879               244.1822
 Red. masses --      1.0678                 5.4392                 1.3656
 Frc consts  --      0.0291                 0.1752                 0.0480
 IR Inten    --      0.6794                 0.3855                 5.0894

                     10                     11                     12
                      A                      A                      A
 Frequencies --    263.9134               275.2642               297.9884
 Red. masses --      3.1755                 5.3222                 4.5056
 Frc consts  --      0.1303                 0.2376                 0.2357
 IR Inten    --      4.4772                 0.9621                 0.3808

                     13                     14                     15
                      A                      A                      A
 Frequencies --    314.3077               329.1491               350.3480
 Red. masses --      2.9682                 1.1007                10.6484
 Frc consts  --      0.1728                 0.0703                 0.7701
 IR Inten    --      4.5156                 0.0607                10.1462

                     16                     17                     18
                      A                      A                      A
 Frequencies --    358.2930               363.5927               412.4477
 Red. masses --      3.3891                10.7051                 3.1112
 Frc consts  --      0.2563                 0.8338                 0.3118
 IR Inten    --      0.5840                 3.8209                 0.2792

                     19                     20                     21
                      A                      A                      A
 Frequencies --    421.6354               482.6241               516.5935
 Red. masses --      2.7184                 5.8760                 4.5209
 Frc consts  --      0.2847                 0.8064                 0.7108
 IR Inten    --      3.1269                 0.0545                33.7768

                     22                     23                     24
                      A                      A                      A
 Frequencies --    557.4672               597.5743               677.9580
 Red. masses --      4.7283                 5.5227                 4.7913
 Frc consts  --      0.8658                 1.1620                 1.2975
 IR Inten    --      1.4497                24.4772                 0.2863

                     25                     26                     27
                      A                      A                      A
 Frequencies --    684.3096               755.7319               761.1822
 Red. masses --      6.2512                 7.7537                 6.4241
 Frc consts  --      1.7247                 2.6091                 2.1930
 IR Inten    --      5.4782                11.7643                22.1255

                     28                     29                     30
                      A                      A                      A
 Frequencies --    828.9647               852.1469               859.2694
 Red. masses --      5.0813                 4.5064                 1.6115
 Frc consts  --      2.0573                 1.9280                 0.7010
 IR Inten    --    254.9932               209.0281                33.7081

                     31                     32                     33
                      A                      A                      A
 Frequencies --    922.7415               930.0664               955.4058
 Red. masses --      1.7630                 1.7292                 1.2069
 Frc consts  --      0.8844                 0.8813                 0.6491
 IR Inten    --      0.6598                10.8084                 0.9295

                     34                     35                     36
                      A                      A                      A
 Frequencies --    990.0209              1034.5844              1041.3061
 Red. masses --      5.5914                 1.4497                 1.3917
 Frc consts  --      3.2289                 0.9142                 0.8891
 IR Inten    --     76.2137                23.8907                 0.3086

                     37                     38                     39
                      A                      A                      A
 Frequencies --   1112.6738              1151.9291              1211.0835
 Red. masses --      3.0570                10.8208                 2.7389
 Frc consts  --      2.2299                 8.4598                 2.3669
 IR Inten    --     93.0264               272.3906                 9.9575

                     40                     41                     42
                      A                      A                      A
 Frequencies --   1214.3113              1255.6694              1274.7816
 Red. masses --      2.4166                 2.1035                 2.9802
 Frc consts  --      2.0995                 1.9541                 2.8534
 IR Inten    --     28.1705               198.3997               159.7709

                     43                     44                     45
                      A                      A                      A
 Frequencies --   1343.2359              1363.6696              1374.3205
 Red. masses --      7.4216                 1.2372                 3.7491
 Frc consts  --      7.8896                 1.3556                 4.1721
 IR Inten    --     49.9323                27.0702               793.3882

                     46                     47                     48
                      A                      A                      A
 Frequencies --   1380.3419              1398.8616              1418.9312
 Red. masses --      1.5640                 1.7239                 2.3227
 Frc consts  --      1.7558                 1.9875                 2.7553
 IR Inten    --     34.9242               229.7932               963.4305

                     49                     50                     51
                      A                      A                      A
 Frequencies --   1448.3182              1465.0874              1486.0579
 Red. masses --      5.6620                 1.0492                 1.0469
 Frc consts  --      6.9976                 1.3268                 1.3621
 IR Inten    --      3.6339                 0.2904                 0.4786

                     52                     53                     54
                      A                      A                      A
 Frequencies --   1486.6785              1489.8299              1498.4742
 Red. masses --      1.0833                 1.0817                 1.0538
 Frc consts  --      1.4107                 1.4145                 1.3941
 IR Inten    --      9.8285                 8.1006                 7.9241

                     55                     56                     57
                      A                      A                      A
 Frequencies --   1512.6737              1594.6494              2995.8206
 Red. masses --      1.0605                 7.2250                 1.0381
 Frc consts  --      1.4297                10.8248                 5.4892
 IR Inten    --     10.5809                63.4448                92.3304

                     58                     59                     60
                      A                      A                      A
 Frequencies --   3001.3396              3014.2688              3051.8401
 Red. masses --      1.0385                 1.0357                 1.1004
 Frc consts  --      5.5119                 5.5443                 6.0385
 IR Inten    --    106.0970               102.6608                48.9400

                     61                     62                     63
                      A                      A                      A
 Frequencies --   3054.5687              3070.4824              3079.0998
 Red. masses --      1.0995                 1.1006                 1.1018
 Frc consts  --      6.0445                 6.1137                 6.1544
 IR Inten    --     83.7280               129.6368                76.0408

                     64                     65                     66
                      A                      A                      A
 Frequencies --   3106.2144              3115.7292              3168.2247
 Red. masses --      1.0997                 1.0976                 1.0860
 Frc consts  --      6.2516                 6.2779                 6.4227
 IR Inten    --      3.1327                19.0464                44.1816

 - Thermochemistry -
 -------------------
 Temperature   298.150 Kelvin.  Pressure   1.00000 Atm.
 Atom     1 has atomic number  6 and mass  12.00000

 Molecular mass:   232.00579 amu.
 Principal axes and moments of inertia in atomic units:
                           1         2         3
     Eigenvalues --  2136.712864656.112256392.56376
           X            0.99514  -0.09809   0.00831
           Y            0.07297   0.79162   0.60665
           Z           -0.06608  -0.60309   0.79493
 This molecule is an asymmetric top.
 Rotational symmetry number  1.
 Warning -- assumption of classical behavior for rotation
           may cause significant error
 Rotational temperatures (Kelvin)      0.04054     0.01860     0.01355
 Rotational constants (GHZ):           0.84463     0.38761     0.28232
 Zero-point vibrational energy     457333.5 (Joules/Mol)
                                  109.30532 (Kcal/Mol)
 Warning -- explicit consideration of  23 degrees of freedom as
           vibrations may cause significant error
 Vibrational temperatures:     84.85   100.53   149.83   245.92   260.35
          (Kelvin)            299.84   309.20   336.37   351.32   379.71
                              396.04   428.74   452.22   473.57   504.07
                              515.50   523.13   593.42   606.64   694.39
                              743.26   802.07   859.78   975.43   984.57
                             1087.33  1095.17  1192.70  1226.05  1236.30
                             1327.62  1338.16  1374.62  1424.42  1488.54
                             1498.21  1600.89  1657.37  1742.48  1747.12
                             1806.63  1834.13  1932.62  1962.02  1977.34
                             1986.00  2012.65  2041.53  2083.81  2107.93
                             2138.11  2139.00  2143.53  2155.97  2176.40
                             2294.34  4310.32  4318.26  4336.86  4390.92
                             4394.84  4417.74  4430.14  4469.15  4482.84
                             4558.37

 Zero-point correction=                           0.174189 (Hartree/Particle)
 Thermal correction to Energy=                    0.188274
 Thermal correction to Enthalpy=                  0.189218
 Thermal correction to Gibbs Free Energy=         0.133777
 Sum of electronic and zero-point Energies=          -1458.201281
 Sum of electronic and thermal Energies=             -1458.187197
 Sum of electronic and thermal Enthalpies=           -1458.186253
 Sum of electronic and thermal Free Energies=        -1458.241694

                     E (Thermal)             CV                S
                      KCal/Mol        Cal/Mol-Kelvin    Cal/Mol-Kelvin
 Total                  118.144             53.263            116.685
 Electronic               0.000              0.000              0.000
 Translational            0.889              2.981             42.227
 Rotational               0.889              2.981             32.520
 Vibrational            116.366             47.302             41.939
 Vibration     1          0.596              1.974              4.491
 Vibration     2          0.598              1.968              4.157
 Vibration     3          0.605              1.946              3.375
 Vibration     4          0.626              1.878              2.425
 Vibration     5          0.630              1.866              2.319
 Vibration     6          0.642              1.828              2.058
 Vibration     7          0.645              1.818              2.002
 Vibration     8          0.654              1.789              1.850
 Vibration     9          0.660              1.772              1.772
 Vibration    10          0.670              1.739              1.636
 Vibration    11          0.677              1.719              1.563
 Vibration    12          0.691              1.677              1.428
 Vibration    13          0.702              1.646              1.340
 Vibration    14          0.712              1.617              1.264
 Vibration    15          0.727              1.575              1.165
 Vibration    16          0.733              1.558              1.130
 Vibration    17          0.737              1.547              1.107
 Vibration    18          0.776              1.443              0.918
 Vibration    19          0.784              1.423              0.886
 Vibration    20          0.839              1.289              0.703
 Vibration    21          0.872              1.213              0.618
 Vibration    22          0.913              1.123              0.529
 Vibration    23          0.955              1.037              0.454

 Optimization completed.
    -- Stationary point found.
 Normal termination of Gaussian 16 at Sat Feb 10 11:40:50 2024.
