 Gaussian 16, Revision A.03,
 Gaussian 16:  ES64L-G16RevA.03 25-Dec-2016

 ----------------------------------------------------------------------
 #P UB3LYP/6-311++G(d,p) nosym opt freq SCRF=(PCM,Solvent=n,n-DiMethylF
 ormamide)
 ----------------------------------------------------------------------

 --------
 Oxidized
 --------
 Symbolic Z-matrix:
 Charge =  0 Multiplicity = 1

 SCF Done:  E(UB3LYP) =  -725.088149459     A.U. after   15 cycles
 SCF Done:  E(UB3LYP) =  -725.088295678     A.U. after   11 cycles
 SCF Done:  E(UB3LYP) =  -725.088319820     A.U. after   11 cycles
 SCF Done:  E(UB3LYP) =  -725.088319983     A.U. after   10 cycles
 SCF Done:  E(UB3LYP) =  -725.088321106     A.U. after    9 cycles
 Optimization completed.
    -- Stationary point found.
 Normal termination of Gaussian 16 at Sun Feb 11 15:11:54 2024.

 ----------------------------------------------------------------------
 #P Geom=AllCheck Guess=TCheck SCRF=Check GenChk UB3LYP/6-311++G(d,p) F
 req
 ----------------------------------------------------------------------

 Structure from the checkpoint file:  "304.chk"
 --------
 Oxidized
 --------
 Charge =  0 Multiplicity = 1

                          Input orientation:
 ---------------------------------------------------------------------
 Center     Atomic      Atomic             Coordinates (Angstroms)
 Number     Number       Type             X           Y           Z
 ---------------------------------------------------------------------
      1          6           0       -4.098471    3.619115    1.529615
      2          6           0       -4.585460    3.839967    0.233409
      3          6           0       -3.985086    3.187749   -0.851918
      4          6           0       -2.911606    2.326827   -0.635003
      5          6           0       -2.416693    2.097084    0.645921
      6          6           0       -3.027783    2.758643    1.732440
      7          6           0       -2.523526    2.533534    3.101350
      8          6           0       -1.366749    1.595909    3.273305
      9          6           0       -0.790579    0.969229    2.227529
     10          6           0       -1.268525    1.173196    0.858835
     11          8           0       -2.984113    3.058133    4.106966
     12          8           0       -0.730296    0.592595   -0.083807
     13          8           0       -0.958755    1.435062    4.536474
     14          8           0       -5.629580    4.692962    0.134861
     15          6           0       -6.181990    4.969619   -1.159607
     16          1           0       -4.562205    4.122939    2.368098
     17          1           0       -4.343562    3.342666   -1.859978
     18          1           0       -2.448060    1.823058   -1.473924
     19          1           0        0.045095    0.294506    2.368883
     20          1           0       -1.533432    1.990776    5.096290
     21          1           0       -6.996331    5.668754   -0.985400
     22          1           0       -6.571893    4.058554   -1.620253
     23          1           0       -5.435650    5.429711   -1.811985
 ---------------------------------------------------------------------

 SCF Done:  E(UB3LYP) =  -725.088321106     A.U. after    2 cycles

 Alpha  occ. eigenvalues --  -19.18613 -19.17719 -19.15590 -19.12695 -10.30003
 Alpha  occ. eigenvalues --  -10.28150 -10.27720 -10.26603 -10.23116 -10.21746
 Alpha  occ. eigenvalues --  -10.20579 -10.20410 -10.20339 -10.20122 -10.19927
 Alpha  occ. eigenvalues --   -1.11535  -1.09215  -1.07474  -1.05682  -0.89532
 Alpha  occ. eigenvalues --   -0.83861  -0.79056  -0.78075  -0.72740  -0.69999
 Alpha  occ. eigenvalues --   -0.66424  -0.63505  -0.61399  -0.58028  -0.55581
 Alpha  occ. eigenvalues --   -0.53094  -0.52128  -0.51079  -0.48639  -0.47641
 Alpha  occ. eigenvalues --   -0.47369  -0.46022  -0.45697  -0.45557  -0.43592
 Alpha  occ. eigenvalues --   -0.42513  -0.42001  -0.41427  -0.39668  -0.39290
 Alpha  occ. eigenvalues --   -0.39230  -0.35340  -0.34453  -0.30778  -0.29270
 Alpha  occ. eigenvalues --   -0.28097  -0.27500  -0.25157
 Alpha virt. eigenvalues --   -0.12909  -0.05880  -0.02404  -0.00847   0.00017
 Alpha virt. eigenvalues --    0.00955   0.01873   0.02091   0.02103   0.03319
 Alpha virt. eigenvalues --    0.03679   0.04258   0.04614   0.05264   0.05923

  Beta  occ. eigenvalues --  -19.18613 -19.17719 -19.15590 -19.12695 -10.30003
  Beta  occ. eigenvalues --  -10.28150 -10.27720 -10.26603 -10.23116 -10.21746
  Beta  occ. eigenvalues --  -10.20579 -10.20410 -10.20339 -10.20122 -10.19927
  Beta  occ. eigenvalues --   -1.11535  -1.09215  -1.07474  -1.05682  -0.89532
  Beta  occ. eigenvalues --   -0.83861  -0.79056  -0.78075  -0.72740  -0.69999
  Beta  occ. eigenvalues --   -0.66424  -0.63505  -0.61399  -0.58028  -0.55581
  Beta  occ. eigenvalues --   -0.53094  -0.52128  -0.51079  -0.48639  -0.47641
  Beta  occ. eigenvalues --   -0.47369  -0.46022  -0.45697  -0.45557  -0.43592
  Beta  occ. eigenvalues --   -0.42513  -0.42001  -0.41427  -0.39668  -0.39290
  Beta  occ. eigenvalues --   -0.39230  -0.35340  -0.34453  -0.30778  -0.29270
  Beta  occ. eigenvalues --   -0.28097  -0.27500  -0.25157
  Beta virt. eigenvalues --   -0.12909  -0.05880  -0.02404  -0.00847   0.00017
  Beta virt. eigenvalues --    0.00955   0.01873   0.02091   0.02103   0.03319
  Beta virt. eigenvalues --    0.03679   0.04258   0.04614   0.05264   0.05923

 Mulliken charges and spin densities:
               1          2
     1  C   -0.190631  -0.000000
     2  C   -0.540008  -0.000000
     3  C    0.197066  -0.000000
     4  C    0.162195  -0.000000
     5  C    0.372979  -0.000000
     6  C    0.870261  -0.000000
     7  C   -0.783037   0.000000
     8  C   -0.386720   0.000000
     9  C    0.626281   0.000000
    10  C   -0.683160  -0.000000
    11  O   -0.293941   0.000000
    12  O   -0.329891   0.000000
    13  O   -0.225432   0.000000
    14  O   -0.184041  -0.000000
    15  C   -0.338885   0.000000
    16  H    0.207032  -0.000000
    17  H    0.246477   0.000000
    18  H    0.186103  -0.000000
    19  H    0.242928  -0.000000
    20  H    0.304846  -0.000000
    21  H    0.195158  -0.000000
    22  H    0.172037   0.000000
    23  H    0.172381   0.000000
 Sum of Mulliken charges =  -0.00000   0.00000

 Dipole moment (field-independent basis, Debye):
    X=             -4.2273    Y=              3.1731    Z=             -2.3922  Tot=              5.8019
 Quadrupole moment (field-independent basis, Debye-Ang):
   XX=            -61.5484   YY=            -73.3332   ZZ=            -85.2909
   XY=            -18.6288   XZ=             16.8765   YZ=            -13.8045

  Exact polarizability: 199.983 -82.430 168.198  14.846  10.192 257.440
 Approx polarizability: 230.835 -97.802 201.117  -9.226  36.718 320.061

                      1                      2                      3
                      A                      A                      A
 Frequencies --     59.3121                84.8907               100.5016
 Red. masses --      5.2792                 5.5436                 4.4727
 Frc consts  --      0.0109                 0.0235                 0.0266
 IR Inten    --      5.0160                 1.5827                 4.8873

                      4                      5                      6
                      A                      A                      A
 Frequencies --    156.4668               165.8579               189.9659
 Red. masses --      6.7187                 5.1162                 5.1724
 Frc consts  --      0.0969                 0.0829                 0.1100
 IR Inten    --      6.7848                 3.2029                 0.4333

                      7                      8                      9
                      A                      A                      A
 Frequencies --    220.1307               279.5908               298.7136
 Red. masses --      1.1630                 4.0178                 4.1717
 Frc consts  --      0.0332                 0.1850                 0.2193
 IR Inten    --      0.0371                 2.7824                 2.6925

                     10                     11                     12
                      A                      A                      A
 Frequencies --    326.4907               328.9419               397.7804
 Red. masses --      6.1935                 7.6031                 4.6815
 Frc consts  --      0.3890                 0.4847                 0.4364
 IR Inten    --     29.0354                 0.0607                 1.6527

                     13                     14                     15
                      A                      A                      A
 Frequencies --    408.3935               423.5010               457.7941
 Red. masses --      9.6222                 9.2653                 3.6136
 Frc consts  --      0.9455                 0.9791                 0.4462
 IR Inten    --      7.6651                52.6851                 8.7131

                     16                     17                     18
                      A                      A                      A
 Frequencies --    492.9872               543.5087               556.1931
 Red. masses --     10.1421                 4.8837                 5.0550
 Frc consts  --      1.4523                 0.8500                 0.9213
 IR Inten    --      2.3636                32.0190                 2.4952

                     19                     20                     21
                      A                      A                      A
 Frequencies --    599.1703               648.4411               678.4992
 Red. masses --      1.0973                 6.4993                 3.0429
 Frc consts  --      0.2321                 1.6101                 0.8254
 IR Inten    --    144.9876                22.6350                22.7546

                     22                     23                     24
                      A                      A                      A
 Frequencies --    690.2084               706.5125               734.7687
 Red. masses --      7.1302                 4.9877                 5.8229
 Frc consts  --      2.0013                 1.4669                 1.8522
 IR Inten    --      0.6041                15.8496                 6.9166

                     25                     26                     27
                      A                      A                      A
 Frequencies --    756.1036               758.3329               848.6599
 Red. masses --      5.3061                 8.5446                 1.4417
 Frc consts  --      1.7873                 2.8951                 0.6118
 IR Inten    --     13.7956                18.6512                69.6464

                     28                     29                     30
                      A                      A                      A
 Frequencies --    870.4225               876.4934               905.1147
 Red. masses --      1.4461                 4.9981                 1.4943
 Frc consts  --      0.6455                 2.2623                 0.7213
 IR Inten    --     40.8771                69.3926                12.8775

                     31                     32                     33
                      A                      A                      A
 Frequencies --    987.9097              1014.0435              1040.7285
 Red. masses --      1.3380                 6.8306                 2.7677
 Frc consts  --      0.7694                 4.1383                 1.7662
 IR Inten    --      1.2582               259.2355                21.9986

                     34                     35                     36
                      A                      A                      A
 Frequencies --   1102.7472              1148.6597              1164.9286
 Red. masses --      3.0414                 1.7028                 1.2706
 Frc consts  --      2.1791                 1.3237                 1.0159
 IR Inten    --     24.7971                57.1082                 1.1553

                     37                     38                     39
                      A                      A                      A
 Frequencies --   1187.8466              1212.5847              1226.7812
 Red. masses --      1.7786                 1.5196                 1.7249
 Frc consts  --      1.4786                 1.3165                 1.5295
 IR Inten    --     21.3585                 6.0048               480.4332

                     40                     41                     42
                      A                      A                      A
 Frequencies --   1247.7162              1262.5771              1306.0503
 Red. masses --      1.8007                 3.7149                 2.5449
 Frc consts  --      1.6517                 3.4891                 2.5576
 IR Inten    --     99.1923               381.6233               768.4313

                     43                     44                     45
                      A                      A                      A
 Frequencies --   1321.3237              1367.1683              1404.8064
 Red. masses --      4.0408                 8.9113                 2.1767
 Frc consts  --      4.1566                 9.8138                 2.5309
 IR Inten    --    238.6884               165.1216               572.1465

                     46                     47                     48
                      A                      A                      A
 Frequencies --   1461.5705              1475.2611              1485.5761
 Red. masses --      2.5555                 1.4670                 1.0443
 Frc consts  --      3.2164                 1.8811                 1.3578
 IR Inten    --     74.7508                13.9326                15.9264

                     49                     50                     51
                      A                      A                      A
 Frequencies --   1495.3131              1515.9735              1598.2142
 Red. masses --      1.0792                 2.9397                 7.0881
 Frc consts  --      1.4217                 3.9805                10.6672
 IR Inten    --     33.7218                41.3779                34.5727

                     52                     53                     54
                      A                      A                      A
 Frequencies --   1615.4029              1668.7111              1687.0693
 Red. masses --      6.2920                10.3428                 7.1579
 Frc consts  --      9.6739                16.9687                12.0033
 IR Inten    --    685.8022               435.1822               605.7769

                     55                     56                     57
                      A                      A                      A
 Frequencies --   1703.1123              3028.5235              3098.0649
 Red. masses --     11.0259                 1.0327                 1.1077
 Frc consts  --     18.8430                 5.5804                 6.2638
 IR Inten    --    158.9958                63.8204                36.8582

                     58                     59                     60
                      A                      A                      A
 Frequencies --   3153.9906              3195.9120              3198.3728
 Red. masses --      1.1020                 1.0926                 1.0893
 Frc consts  --      6.4589                 6.5750                 6.5655
 IR Inten    --     20.9573                 3.2166                 0.8216

                     61                     62                     63
                      A                      A                      A
 Frequencies --   3205.1133              3217.4324              3626.0345
 Red. masses --      1.0913                 1.0930                 1.0646
 Frc consts  --      6.6053                 6.6663                 8.2470
 IR Inten    --      4.0550                 5.3710               254.4430

 - Thermochemistry -
 -------------------
 Temperature   298.150 Kelvin.  Pressure   1.00000 Atm.
 Atom     1 has atomic number  6 and mass  12.00000

 Molecular mass:   204.04226 amu.
 Principal axes and moments of inertia in atomic units:
                           1         2         3
     Eigenvalues --  1577.579274431.614005997.64791
           X            0.66863  -0.38648   0.63527
           Y           -0.47451   0.43602   0.76468
           Z            0.57252   0.81272  -0.10815
 This molecule is an asymmetric top.
 Rotational symmetry number  1.
 Warning -- assumption of classical behavior for rotation
           may cause significant error
 Rotational temperatures (Kelvin)      0.05490     0.01954     0.01444
 Rotational constants (GHZ):           1.14399     0.40724     0.30091
 Zero-point vibrational energy     442554.1 (Joules/Mol)
                                  105.77297 (Kcal/Mol)
 Warning -- explicit consideration of  19 degrees of freedom as
           vibrations may cause significant error
 Vibrational temperatures:     85.34   122.14   144.60   225.12   238.63
          (Kelvin)            273.32   316.72   402.27   429.78   469.75
                              473.27   572.32   587.59   609.32   658.66
                              709.30   781.99   800.24   862.07   932.96
                              976.21   993.06  1016.51  1057.17  1087.86
                             1091.07  1221.03  1252.34  1261.08  1302.26
                             1421.38  1458.98  1497.38  1586.61  1652.67
                             1676.07  1709.05  1744.64  1765.06  1795.19
                             1816.57  1879.12  1901.09  1967.05  2021.20
                             2102.87  2122.57  2137.41  2151.42  2181.15
                             2299.47  2324.20  2400.90  2427.32  2450.40
                             4357.37  4457.42  4537.89  4598.20  4601.75
                             4611.44  4629.17  5217.05

 Zero-point correction=                           0.168560 (Hartree/Particle)
 Thermal correction to Energy=                    0.180953
 Thermal correction to Enthalpy=                  0.181898
 Thermal correction to Gibbs Free Energy=         0.129786
 Sum of electronic and zero-point Energies=           -724.919761
 Sum of electronic and thermal Energies=              -724.907368
 Sum of electronic and thermal Enthalpies=            -724.906423
 Sum of electronic and thermal Free Energies=         -724.958535

                     E (Thermal)             CV                S
                      KCal/Mol        Cal/Mol-Kelvin    Cal/Mol-Kelvin
 Total                  113.550             47.898            109.677
 Electronic               0.000              0.000              0.000
 Translational            0.889              2.981             41.844
 Rotational               0.889              2.981             32.106
 Vibrational            111.773             41.936             35.728
 Vibration     1          0.597              1.974              4.480
 Vibration     2          0.601              1.960              3.775
 Vibration     3          0.604              1.949              3.445
 Vibration     4          0.620              1.895              2.592
 Vibration     5          0.624              1.884              2.482
 Vibration     6          0.633              1.854              2.228
 Vibration     7          0.647              1.810              1.958
 Vibration     8          0.680              1.711              1.536
 Vibration     9          0.692              1.676              1.424
 Vibration    10          0.710              1.623              1.277
 Vibration    11          0.712              1.618              1.265
 Vibration    12          0.764              1.475              0.971
 Vibration    13          0.773              1.452              0.932
 Vibration    14          0.786              1.419              0.880
 Vibration    15          0.816              1.344              0.773
 Vibration    16          0.849              1.266              0.676
 Vibration    17          0.899              1.154              0.558
 Vibration    18          0.912              1.126              0.531
 Vibration    19          0.957              1.034              0.451

 Optimization completed.
    -- Stationary point found.
 Normal termination of Gaussian 16 at Sun Feb 11 15:41:23 2024.
