 Gaussian 16, Revision A.03,
 Gaussian 16:  ES64L-G16RevA.03 25-Dec-2016

 ----------------------------------------------------------------
 #P UB3LYP/6-311++G(d,p) SCRF=(PCM,Solvent=n,n-DiMethylFormamide)
 ----------------------------------------------------------------

 ------------------
 Radical PCM in DMF
 ------------------
 Symbolic Z-matrix:
 Charge = -1 Multiplicity = 2

                         Standard orientation:
 ---------------------------------------------------------------------
 Center     Atomic      Atomic             Coordinates (Angstroms)
 Number     Number       Type             X           Y           Z
 ---------------------------------------------------------------------
      1          7           0       -2.365966   -2.672150   -0.115355
      2          6           0       -2.524243   -1.300836   -0.031218
      3          6           0       -3.813110   -0.758538   -0.012265
      4          6           0       -4.016560    0.626102    0.004528
      5          6           0       -2.939940    1.490217   -0.000755
      6          6           0       -1.624714    0.983554   -0.006600
      7          6           0       -0.523543    1.943742    0.003955
      8          8           0       -0.729095    3.183480    0.010590
      9          6           0        0.834781    1.400912    0.003121
     10          6           0        1.896738    2.327994   -0.005743
     11          6           0        3.207242    1.909121   -0.009850
     12          6           0        3.493197    0.532319   -0.011229
     13          6           0        2.465351   -0.391518    0.000259
     14         17           0        3.012279   -2.080717   -0.029846
     15          6           0        1.092999   -0.011839    0.014236
     16          6           0       -0.023982   -0.966729    0.046550
     17          8           0        0.185244   -2.208972    0.136710
     18          6           0       -1.383589   -0.423082   -0.011200
     19          1           0       -3.136902   -3.231734    0.213257
     20          1           0       -1.413908   -2.983993    0.080186
     21          1           0       -4.662787   -1.436258   -0.029104
     22          1           0       -5.030660    1.015678    0.016183
     23          1           0       -3.064186    2.565279    0.004950
     24          1           0        1.629751    3.377570   -0.009453
     25          1           0        4.021833    2.626416   -0.016843
     26          1           0        4.516930    0.179703   -0.025453
 ---------------------------------------------------------------------

 SCF Done:  E(UB3LYP) =  -1204.08847837     A.U. after   20 cycles

 The electronic state is 2-A.
 Alpha  occ. eigenvalues -- -101.54574 -19.07871 -19.07405 -14.30468 -10.23833
 Alpha  occ. eigenvalues --  -10.23515 -10.22284 -10.21743 -10.18979 -10.18047
 Alpha  occ. eigenvalues --  -10.17874 -10.17810 -10.17500 -10.17189 -10.17165
 Alpha  occ. eigenvalues --  -10.17137 -10.16262 -10.15714  -9.46058  -7.22509
 Alpha  occ. eigenvalues --   -7.21581  -7.21470  -1.01090  -1.00187  -0.91331
 Alpha  occ. eigenvalues --   -0.88590  -0.84328  -0.83101  -0.78632  -0.74371
 Alpha  occ. eigenvalues --   -0.73901  -0.72796  -0.66786  -0.63864  -0.62732
 Alpha  occ. eigenvalues --   -0.58200  -0.56069  -0.54587  -0.52654  -0.50083
 Alpha  occ. eigenvalues --   -0.47892  -0.47608  -0.46761  -0.44792  -0.44362
 Alpha  occ. eigenvalues --   -0.43047  -0.42920  -0.41701  -0.41158  -0.39895
 Alpha  occ. eigenvalues --   -0.38901  -0.38595  -0.37972  -0.36362  -0.35736
 Alpha  occ. eigenvalues --   -0.34975  -0.34612  -0.32937  -0.31407  -0.30894
 Alpha  occ. eigenvalues --   -0.27147  -0.25203  -0.25140  -0.24545  -0.23420
 Alpha  occ. eigenvalues --   -0.21145  -0.14067
 Alpha virt. eigenvalues --   -0.05234  -0.02561  -0.00223   0.00101   0.00415
 Alpha virt. eigenvalues --    0.00776   0.01470   0.02162   0.02947   0.03934
 Alpha virt. eigenvalues --    0.04267   0.04376   0.05048   0.05212   0.05617

  Beta  occ. eigenvalues -- -101.54572 -19.07362 -19.06864 -14.30452 -10.23838
  Beta  occ. eigenvalues --  -10.23354 -10.22096 -10.21754 -10.18879 -10.17981
  Beta  occ. eigenvalues --  -10.17781 -10.17755 -10.17484 -10.17159 -10.17131
  Beta  occ. eigenvalues --  -10.17116 -10.16157 -10.15661  -9.46056  -7.22509
  Beta  occ. eigenvalues --   -7.21575  -7.21470  -1.00219  -0.99227  -0.91262
  Beta  occ. eigenvalues --   -0.88461  -0.84108  -0.83003  -0.78259  -0.74186
  Beta  occ. eigenvalues --   -0.73625  -0.72615  -0.66099  -0.63672  -0.62497
  Beta  occ. eigenvalues --   -0.58112  -0.55861  -0.54364  -0.52517  -0.50001
  Beta  occ. eigenvalues --   -0.47665  -0.47406  -0.46645  -0.44682  -0.44234
  Beta  occ. eigenvalues --   -0.43006  -0.41878  -0.41520  -0.40682  -0.39667
  Beta  occ. eigenvalues --   -0.38636  -0.37848  -0.36689  -0.36248  -0.34857
  Beta  occ. eigenvalues --   -0.34763  -0.34256  -0.32525  -0.31322  -0.30252
  Beta  occ. eigenvalues --   -0.25327  -0.24660  -0.24382  -0.24066  -0.22972
  Beta  occ. eigenvalues --   -0.20393
  Beta virt. eigenvalues --   -0.08420  -0.04261  -0.01507  -0.00208   0.00382
  Beta virt. eigenvalues --    0.00476   0.00786   0.01480   0.02169   0.02960
  Beta virt. eigenvalues --    0.03972   0.04370   0.04437   0.05190   0.05737

 Mulliken charges and spin densities:
               1          2
     1  N   -0.410867   0.006728
     2  C    0.207338   0.023866
     3  C   -0.243909   0.091642
     4  C   -0.402623   0.017779
     5  C   -0.035107   0.071528
     6  C    0.243362   0.003958
     7  C   -0.770383   0.100311
     8  O   -0.448211   0.203756
     9  C    0.144598   0.020393
    10  C    0.301808   0.029086
    11  C   -0.689755   0.039026
    12  C   -0.152097   0.057999
    13  C    1.080545   0.022754
    14  Cl   0.304576   0.000794
    15  C   -0.069747   0.070686
    16  C   -1.517035   0.070197
    17  O   -0.338561   0.184460
    18  C    0.156674   0.010122
    19  H    0.265641  -0.000559
    20  H    0.317407  -0.003078
    21  H    0.161592  -0.006332
    22  H    0.183304  -0.001615
    23  H    0.154487  -0.004243
    24  H    0.171275  -0.001751
    25  H    0.184340  -0.003445
    26  H    0.201351  -0.004061
 Sum of Mulliken charges =  -1.00000   1.00000

 Dipole moment (field-independent basis, Debye):
    X=              0.0464    Y=             -2.4094    Z=              0.6307  Tot=              2.4910
 Quadrupole moment (field-independent basis, Debye-Ang):
   XX=           -112.7341   YY=           -143.1756   ZZ=           -119.0414
   XY=             17.5519   XZ=             -2.4763   YZ=             -2.3899

 Normal termination of Gaussian 16 at Sun Jan 14 01:16:38 2024.
