 Q-Chem 5.4, Q-Chem, Inc., Pleasanton, CA (2021)
 Q-Chem 5.4.0 for Intel X86 EM64T Linux

User input:
--------------------------------------------------------------
$molecule
-2 2
C                  5.0464580000     -2.9036790000     -0.3703330000
C                  5.8166600000     -2.0486710000     -1.1338110000
C                  5.2720600000     -0.8206280000     -1.5822260000
C                  3.7160220000     -2.5809570000     -0.0220130000
C                  3.1672510000     -1.3430800000     -0.4740920000
C                  3.9745430000     -0.4832970000     -1.2546990000
C                  2.9355280000     -3.5080540000      0.7842350000
C                  1.5751300000     -3.1330530000      1.1162420000
C                  1.0301670000     -1.8840040000      0.6567000000
C                  1.8077250000     -0.9634150000     -0.1449700000
C                  0.7723620000     -4.0136600000      1.9061810000
C                 -0.5483840000     -3.6517510000      2.2294850000
C                 -0.3056200000     -1.5592070000      1.0059390000
C                 -1.0620540000     -2.4376420000      1.7765120000
O                  3.4530490000     -4.6103780000      1.1752490000
O                  1.3213800000      0.1521210000     -0.5559060000
O                  1.2781340000     -5.1789640000      2.3356700000
H                  5.4366540000     -3.8499970000     -0.0132980000
H                  6.8381610000     -2.3162050000     -1.3906150000
H                  5.8762600000     -0.1460000000     -2.1832030000
H                  2.2132250000     -5.2098890000      1.9852170000
O                 -0.8682080000     -0.3897490000      0.5963990000
H                 -2.0807760000     -2.1810950000      2.0381680000
H                 -0.1471120000      0.0644630000      0.0687600000
H                  3.5319380000      0.4499650000     -1.5840990000
S                 -1.6592460000     -4.7208520000      3.2419820000
O                 -1.8016670000     -5.9875570000      2.4789460000
O                 -0.9859580000     -4.8658950000      4.5583070000
O                 -2.9272620000     -3.9364720000      3.3162450000
$end
$rem
MAX_SCF_CYCLES=200
BASIS  =  6-311++G(d,p)
GUI  =  2
JOB_TYPE  =  SP
METHOD  =  B3LYP
SOLVENT_METHOD = COSMO
$end
$solvent
dielectric 37.219
opticaldielectric 1.43
$end

--------------------------------------------------------------

             Standard Nuclear Orientation (Angstroms)
    I     Atom           X                Y                Z
 ----------------------------------------------------------------
    1      C       3.7368269317    -1.8531638292     0.0000955610
    2      C       5.0554331162    -1.4427662403     0.0000134641
    3      C       5.3629815810    -0.0603159820    -0.0000714322
    4      C       2.6767116081    -0.9195194846     0.0000858892
    5      C       2.9869047780     0.4739096274     0.0000015383
    6      C       4.3443786055     0.8708469912    -0.0000745640
    7      C       1.2995159257    -1.3907387756     0.0000523850
    8      C       0.2459209165    -0.3950105666     0.0001351573
    9      C       0.5673030123     1.0067741788     0.0000971034
   10      C       1.9373174325     1.4734816099     0.0000610519
   11      C      -1.1212325022    -0.8131018284     0.0001117994
   12      C      -2.1454821866     0.1516707744     0.0000329202
   13      C      -0.4965180507     1.9448960375     0.0000349845
   14      C      -1.8176762545     1.5065306718     0.0000082748
   15      O       1.0511277055    -2.6453866991    -0.0000692936
   16      O       2.2248889317     2.7253294192    -0.0002820458
   17      O      -1.4234704490    -2.1195671792    -0.0000886398
   18      H       3.4715571163    -2.9042949304     0.0000958636
   19      H       5.8560293487    -2.1776354130     0.0000088100
   20      H       6.4000003751     0.2651774176    -0.0000932876
   21      H      -0.5458324295    -2.5969772188    -0.0000943127
   22      O      -0.2460056123     3.2824698825     0.0001377149
   23      H      -2.6230450399     2.2300331652     0.0000288825
   24      H       0.7540218477     3.3505572098     0.0004402541
   25      H       4.5504441045     1.9352334420    -0.0000585374
   26      S      -3.9361995798    -0.2904521965    -0.0000164293
   27      O      -4.1586825561    -1.0626541023    -1.2495182410
   28      O      -4.1589678961    -1.0618603427     1.2499313527
   29      O      -4.6236765644     1.0346918173    -0.0005570476
 ----------------------------------------------------------------

    9   -1462.8380967247      9.09e-06  Convergence criterion met
 Total energy in the final basis set =    -1462.8380967247
    5   -1463.0926152860      4.69e-06  Convergence criterion met
 Total energy in the final basis set =    -1463.0926152860

                    Orbital Energies (a.u.)
 --------------------------------------------------------------

 Alpha MOs
 -- Occupied --
-89.0490 -19.1364 -19.1333 -19.0959 -19.0943 -19.0931 -19.0931 -19.0919
-10.2452 -10.2412 -10.2385 -10.2349 -10.1951 -10.1850 -10.1835 -10.1815
-10.1810 -10.1766 -10.1761 -10.1745 -10.1745 -10.1739  -8.1074  -6.0702
 -6.0701  -6.0692  -1.1112  -1.0644  -1.0547  -1.0128  -1.0077  -0.9765
 -0.9736  -0.8681  -0.8519  -0.7975  -0.7582  -0.7514  -0.7403  -0.6860
 -0.6543  -0.6396  -0.6108  -0.5925  -0.5748  -0.5445  -0.5326  -0.5209
 -0.5133  -0.4896  -0.4749  -0.4647  -0.4571  -0.4558  -0.4438  -0.4401
 -0.4300  -0.4277  -0.4272  -0.4199  -0.4097  -0.4074  -0.4031  -0.3798
 -0.3763  -0.3623  -0.3604  -0.3541  -0.3410  -0.3386  -0.3364  -0.3204
 -0.3032  -0.2990  -0.2941  -0.2738  -0.2676  -0.2628  -0.2595  -0.2536
 -0.2533  -0.2196  -0.1510

 Beta MOs
 -- Occupied --
-89.0490 -19.1359 -19.1327 -19.0930 -19.0930 -19.0920 -19.0916 -19.0897
-10.2448 -10.2392 -10.2363 -10.2342 -10.1940 -10.1851 -10.1835 -10.1808
-10.1803 -10.1762 -10.1756 -10.1745 -10.1743 -10.1728  -8.1074  -6.0702
 -6.0701  -6.0692  -1.1111  -1.0629  -1.0527  -1.0055  -0.9999  -0.9762
 -0.9736  -0.8655  -0.8504  -0.7937  -0.7556  -0.7497  -0.7376  -0.6800
 -0.6522  -0.6370  -0.6096  -0.5916  -0.5732  -0.5425  -0.5314  -0.5196
 -0.5117  -0.4886  -0.4730  -0.4631  -0.4564  -0.4555  -0.4387  -0.4359
 -0.4276  -0.4261  -0.4249  -0.4180  -0.4062  -0.4008  -0.3943  -0.3786
 -0.3612  -0.3599  -0.3595  -0.3450  -0.3401  -0.3385  -0.3361  -0.3166
 -0.2987  -0.2975  -0.2932  -0.2639  -0.2598  -0.2584  -0.2558  -0.2498
 -0.2494  -0.2084

          Ground-State Mulliken Net Atomic Charges

     Atom                 Charge (a.u.)    Spin (a.u.)
  --------------------------------------------------------
      1 C                    -0.038437       0.025665
      2 C                    -0.447438       0.042416
      3 C                    -0.503614       0.027905
      4 C                     0.179539       0.035085
      5 C                     0.070148       0.009036
      6 C                    -0.014905       0.041578
      7 C                    -0.298409       0.114337
      8 C                     0.373853      -0.020132
      9 C                     0.821456      -0.009841
     10 C                    -0.303786       0.129890
     11 C                    -0.532965       0.045115
     12 C                    -0.273331       0.081771
     13 C                    -0.395070       0.051964
     14 C                    -0.197069       0.078468
     15 O                    -0.508064       0.157948
     16 O                    -0.519827       0.169232
     17 O                    -0.371452       0.015683
     18 H                     0.184714      -0.000448
     19 H                     0.211067      -0.003457
     20 H                     0.208452      -0.002561
     21 H                     0.405000      -0.003439
     22 O                    -0.427925       0.019298
     23 H                     0.252341      -0.006750
     24 H                     0.380229      -0.003835
     25 H                     0.189042      -0.001177
     26 S                     0.770518      -0.002182
     27 O                    -0.407673       0.004318
     28 O                    -0.407673       0.004318
     29 O                    -0.398721      -0.000205
  --------------------------------------------------------
  Sum of atomic charges =    -2.000000

                    Cartesian Multipole Moments
 -----------------------------------------------------------------
    Charge (ESU x 10^10)
                -9.6064
    Dipole Moment (Debye)
         X      21.0098      Y       0.5901      Z       0.0027
       Tot      21.0181
    Quadrupole Moments (Debye-Ang)
        XX    -248.7980     XY     -17.1241     YY    -182.6376
        XZ      -0.0050     YZ       0.0017     ZZ    -149.4424

 Total job time:  125.74s(wall), 907.78s(cpu)
        *  Thank you very much for using Q-Chem.  Have a nice day.  *
