 Q-Chem 5.4, Q-Chem, Inc., Pleasanton, CA (2021)
 Q-Chem 5.4.0 for Intel X86 EM64T Linux

User input:
--------------------------------------------------------------
$molecule
-2 1
Cl                 3.1197580000     -0.1415140000      0.0318320000
C                  1.2868110000     -0.1053110000      0.0129950000
C                  0.6950870000      1.1633740000      0.0111780000
C                 -0.7245460000      1.3492820000     -0.0028930000
O                 -1.3004110000      2.5189860000     -0.0049040000
C                 -1.4347390000      0.1044140000     -0.0145190000
C                 -0.8064570000     -1.1442570000     -0.0122520000
C                  0.6145250000     -1.3640450000      0.0017600000
O                  1.1652860000     -2.5367810000      0.0034310000
H                  1.3235520000      2.0495450000      0.0206870000
H                 -2.5251480000      0.1574590000     -0.0256650000
H                 -1.4137190000     -2.0511530000     -0.0216500000
$end
$rem
MAX_SCF_CYCLES=200
BASIS  =  6-311++G(d,p)
GUI  =  2
JOB_TYPE  =  SP
METHOD  =  B3LYP
SOLVENT_METHOD = PCM
$end
$pcm
theory = CPCM
$end
$solvent
dielectric 37.219
opticaldielectric 1.43
$end

--------------------------------------------------------------

             Standard Nuclear Orientation (Angstroms)
    I     Atom           X                Y                Z
 ----------------------------------------------------------------
    1      Cl      3.1197580000    -0.1415140000     0.0318320000
    2      C       1.2868110000    -0.1053110000     0.0129950000
    3      C       0.6950870000     1.1633740000     0.0111780000
    4      C      -0.7245460000     1.3492820000    -0.0028930000
    5      O      -1.3004110000     2.5189860000    -0.0049040000
    6      C      -1.4347390000     0.1044140000    -0.0145190000
    7      C      -0.8064570000    -1.1442570000    -0.0122520000
    8      C       0.6145250000    -1.3640450000     0.0017600000
    9      O       1.1652860000    -2.5367810000     0.0034310000
   10      H       1.3235520000     2.0495450000     0.0206870000
   11      H      -2.5251480000     0.1574590000    -0.0256650000
   12      H      -1.4137190000    -2.0511530000    -0.0216500000
 ----------------------------------------------------------------

    9    -841.4684471488      3.79e-06  Convergence criterion met
 Total energy in the final basis set =     -841.4684471488

                    Orbital Energies (a.u.)
 --------------------------------------------------------------

 Alpha MOs
 -- Occupied --
******** -19.0252 -19.0222 -10.1890 -10.1841 -10.1788 -10.1342 -10.1341
-10.1303  -9.4394  -7.2030  -7.1949  -7.1946  -0.9385  -0.9301  -0.8297
 -0.7755  -0.6941  -0.6565  -0.5661  -0.5311  -0.4423  -0.4358  -0.4140
 -0.3788  -0.3727  -0.3669  -0.3408  -0.3270  -0.3249  -0.3080  -0.2925
 -0.2327  -0.2175  -0.2073  -0.2031  -0.1296

          Ground-State Mulliken Net Atomic Charges

     Atom                 Charge (a.u.)
  ----------------------------------------
      1 Cl                    0.045401
      2 C                     1.115378
      3 C                    -0.594388
      4 C                    -0.548897
      5 O                    -0.762095
      6 C                    -0.040335
      7 C                    -0.177817
      8 C                    -0.779286
      9 O                    -0.718470
     10 H                     0.150548
     11 H                     0.151862
     12 H                     0.158099
  ----------------------------------------
  Sum of atomic charges =    -2.000000

                    Cartesian Multipole Moments
 -----------------------------------------------------------------
    Charge (ESU x 10^10)
                -9.6064
    Dipole Moment (Debye)
         X      -2.9787      Y      -0.0720      Z      -0.0310
       Tot       2.9798
    Quadrupole Moments (Debye-Ang)
        XX     -90.5993     XY      26.1573     YY    -116.9851
        XZ      -0.1458     YZ       0.1030     ZZ     -67.7869

 Total job time:  7.68s(wall), 55.08s(cpu)
        *  Thank you very much for using Q-Chem.  Have a nice day.  *
