 Gaussian 16, Revision A.03,
 Gaussian 16:  ES64L-G16RevA.03 25-Dec-2016

 ----------------------------------------------------------------
 #P UB3LYP/6-311++G(d,p) SCRF=(PCM,Solvent=n,n-DiMethylFormamide)
 ----------------------------------------------------------------

 -------
 Reduced
 -------
 Symbolic Z-matrix:
 Charge = -2 Multiplicity = 1

                         Standard orientation:
 ---------------------------------------------------------------------
 Center     Atomic      Atomic             Coordinates (Angstroms)
 Number     Number       Type             X           Y           Z
 ---------------------------------------------------------------------
      1          6           0        2.898695   -2.251776    0.001870
      2          6           0        2.501787   -0.787969    0.000241
      3          6           0        3.525752    0.144699   -0.000198
      4          6           0        3.261794    1.543071   -0.000757
      5          6           0        1.959146    1.977555   -0.000516
      6          6           0        0.861093    1.076318   -0.000139
      7          6           0       -0.464931    1.652617    0.000105
      8          8           0       -0.673618    2.927399    0.000379
      9          6           0       -1.538420    0.690914    0.000185
     10          6           0       -2.884766    1.143421    0.000684
     11          6           0       -3.956102    0.274951    0.000553
     12          6           0       -3.719384   -1.131165   -0.000067
     13          6           0       -2.421988   -1.602097   -0.000506
     14          6           0       -1.295952   -0.738159   -0.000359
     15          6           0        0.031160   -1.320862   -0.000709
     16          8           0        0.193564   -2.602804   -0.001321
     17          6           0        1.122415   -0.366140   -0.000184
     18          1           0        3.996063   -2.334341    0.002424
     19          1           0        2.490377   -2.780265   -0.862148
     20          1           0        2.489797   -2.778257    0.866854
     21          1           0        4.556931   -0.207470    0.000167
     22          1           0        4.087555    2.253604   -0.001191
     23          1           0        1.705220    3.032995   -0.000741
     24          1           0       -3.027361    2.220137    0.001119
     25          1           0       -4.975974    0.658142    0.000921
     26          1           0       -4.557445   -1.827153   -0.000195
     27          1           0       -2.206522   -2.666416   -0.000898
 ---------------------------------------------------------------------

 SCF Done:  E(UB3LYP) =  -728.505987688     A.U. after   17 cycles

 The electronic state is 1-A.
 Alpha  occ. eigenvalues --  -19.01554 -19.01256 -10.17305 -10.16817 -10.15776
 Alpha  occ. eigenvalues --  -10.14832 -10.14708 -10.14451 -10.14387 -10.14358
 Alpha  occ. eigenvalues --  -10.13961 -10.13869 -10.13843 -10.13824 -10.13300
 Alpha  occ. eigenvalues --  -10.13273 -10.13246  -0.93293  -0.92933  -0.82371
 Alpha  occ. eigenvalues --   -0.81814  -0.75009  -0.74087  -0.72006  -0.70109
 Alpha  occ. eigenvalues --   -0.66065  -0.62901  -0.59945  -0.58474  -0.54495
 Alpha  occ. eigenvalues --   -0.51450  -0.50294  -0.48609  -0.43652  -0.43527
 Alpha  occ. eigenvalues --   -0.42847  -0.42220  -0.39603  -0.39591  -0.38406
 Alpha  occ. eigenvalues --   -0.37325  -0.36848  -0.36700  -0.36293  -0.34749
 Alpha  occ. eigenvalues --   -0.34278  -0.33125  -0.31673  -0.31356  -0.31006
 Alpha  occ. eigenvalues --   -0.29782  -0.29474  -0.22894  -0.22129  -0.21670
 Alpha  occ. eigenvalues --   -0.21230  -0.19657  -0.18784  -0.10235
 Alpha virt. eigenvalues --   -0.02259   0.00028   0.00411   0.00756   0.01311
 Alpha virt. eigenvalues --    0.02173   0.02318   0.02509   0.04201   0.04381
 Alpha virt. eigenvalues --    0.04460   0.04893   0.05844   0.06414   0.06688

  Beta  occ. eigenvalues --  -19.01554 -19.01256 -10.17305 -10.16817 -10.15776
  Beta  occ. eigenvalues --  -10.14832 -10.14708 -10.14451 -10.14387 -10.14358
  Beta  occ. eigenvalues --  -10.13961 -10.13869 -10.13843 -10.13824 -10.13300
  Beta  occ. eigenvalues --  -10.13273 -10.13246  -0.93293  -0.92933  -0.82371
  Beta  occ. eigenvalues --   -0.81814  -0.75009  -0.74087  -0.72006  -0.70109
  Beta  occ. eigenvalues --   -0.66065  -0.62901  -0.59945  -0.58474  -0.54495
  Beta  occ. eigenvalues --   -0.51450  -0.50294  -0.48609  -0.43652  -0.43527
  Beta  occ. eigenvalues --   -0.42847  -0.42220  -0.39603  -0.39591  -0.38406
  Beta  occ. eigenvalues --   -0.37325  -0.36848  -0.36700  -0.36293  -0.34749
  Beta  occ. eigenvalues --   -0.34278  -0.33125  -0.31673  -0.31356  -0.31006
  Beta  occ. eigenvalues --   -0.29782  -0.29474  -0.22894  -0.22129  -0.21670
  Beta  occ. eigenvalues --   -0.21230  -0.19657  -0.18784  -0.10235
  Beta virt. eigenvalues --   -0.02259   0.00028   0.00411   0.00756   0.01311
  Beta virt. eigenvalues --    0.02173   0.02318   0.02509   0.04201   0.04381
  Beta virt. eigenvalues --    0.04460   0.04893   0.05844   0.06414   0.06688

 Mulliken charges and spin densities:
               1          2
     1  C   -0.529132  -0.000000
     2  C    0.711274  -0.000000
     3  C   -0.449140   0.000000
     4  C   -0.411380   0.000000
     5  C   -0.124241  -0.000000
     6  C    0.414384  -0.000000
     7  C   -0.567495   0.000000
     8  O   -0.665652  -0.000000
     9  C    0.136799   0.000000
    10  C   -0.043729  -0.000000
    11  C   -0.494837  -0.000000
    12  C   -0.526358  -0.000000
    13  C    0.044974   0.000000
    14  C    0.118435  -0.000000
    15  C   -0.718775   0.000000
    16  O   -0.614211  -0.000000
    17  C    0.297963   0.000000
    18  H    0.124182  -0.000000
    19  H    0.148405   0.000000
    20  H    0.148335   0.000000
    21  H    0.097576   0.000000
    22  H    0.166033   0.000000
    23  H    0.136405   0.000000
    24  H    0.142079  -0.000000
    25  H    0.154448  -0.000000
    26  H    0.154547   0.000000
    27  H    0.149112  -0.000000
 Sum of Mulliken charges =  -2.00000   0.00000

 Dipole moment (field-independent basis, Debye):
    X=              2.1582    Y=             -2.5496    Z=              0.0040  Tot=              3.3404
 Quadrupole moment (field-independent basis, Debye-Ang):
   XX=           -129.0083   YY=           -161.8570   ZZ=           -112.6282
   XY=              5.0889   XZ=              0.0038   YZ=             -0.0165

 Normal termination of Gaussian 16 at Sun Jan 14 01:22:35 2024.
