 Q-Chem 5.4, Q-Chem, Inc., Pleasanton, CA (2021)
 Q-Chem 5.4.0 for Intel X86 EM64T Linux

User input:
--------------------------------------------------------------
$molecule
0 1
C                 -1.8007020000      1.1262530000      0.6408300000
C                 -1.1602690000     -0.0979820000     -0.0607830000
C                 -1.7000620000     -1.3719490000      0.6151580000
C                 -1.5800560000     -0.1307920000     -1.5520380000
C                  0.3659180000     -0.0134330000      0.0445360000
C                  1.1204140000     -0.9486660000      0.6567950000
C                  2.5949090000     -0.8852390000      0.7690960000
O                  3.2219540000     -1.7665400000      1.3374960000
C                  3.2800160000      0.2815990000      0.1692720000
C                  2.5676230000      1.2303100000     -0.4465390000
C                  1.0855580000      1.1664750000     -0.5596530000
O                  0.5017250000      2.0697430000     -1.1369960000
H                 -2.8901760000      1.0414170000      0.5933590000
H                 -1.5147210000      1.1640220000      1.6961600000
H                 -1.5089800000      2.0614740000      0.1656730000
H                 -2.7881280000     -1.3937680000      0.5182820000
H                 -1.4647470000     -1.4023280000      1.6826620000
H                 -1.3104900000     -2.2812520000      0.1490560000
H                 -1.1352520000     -0.9898420000     -2.0630270000
H                 -2.6673550000     -0.2287220000     -1.6196410000
H                 -1.2847880000      0.7779800000     -2.0740000000
H                  0.6866760000     -1.8273440000      1.1166610000
H                  4.3600710000      0.3144760000      0.2594320000
H                  3.0208630000      2.1041070000     -0.9017880000
$end
$rem
MAX_SCF_CYCLES=200
BASIS  =  6-311++G(d,p)
GUI  =  2
JOB_TYPE  =  SP
METHOD  =  B3LYP
SOLVENT_METHOD = COSMO
$end
$solvent
dielectric 37.219
opticaldielectric 1.43
$end

--------------------------------------------------------------

             Standard Nuclear Orientation (Angstroms)
    I     Atom           X                Y                Z
 ----------------------------------------------------------------
    1      C      -2.3432139635     0.2210285114     1.2688583271
    2      C      -1.6926346770    -0.3856071688     0.0000374935
    3      C      -1.9687069758    -1.9005489745    -0.0001783868
    4      C      -2.3436428702     0.2214145684    -1.2683678201
    5      C      -0.1889328066    -0.0917227205     0.0000193690
    6      C       0.7553297835    -1.0546111927    -0.0000910083
    7      C       2.2118683605    -0.7914280338    -0.0000408262
    8      O       3.0180021142    -1.7096348636    -0.0002237235
    9      C       2.6548033049     0.6208325391     0.0002043764
   10      C       1.7497209093     1.6045018890     0.0002575042
   11      C       0.2856751916     1.3400091715    -0.0000380922
   12      O      -0.4820220930     2.2890717047    -0.0004607537
   13      H      -3.4093733621    -0.0230380158     1.2806865329
   14      H      -1.8950141969    -0.1979875168     2.1746593957
   15      H      -2.2395889068     1.3045515496     1.2963154245
   16      H      -3.0486075267    -2.0665712333     0.0000631163
   17      H      -1.5605465247    -2.3930586165     0.8867827857
   18      H      -1.5609224580    -2.3926225085    -0.8875479759
   19      H      -1.8946723379    -0.1961945919    -2.1744336617
   20      H      -3.4094856952    -0.0239598833    -1.2806159512
   21      H      -2.2412102466     1.3050677748    -1.2947753020
   22      H       0.5036652632    -2.1073909938    -0.0003701669
   23      H       3.7245164279     0.7981524272     0.0003370727
   24      H       2.0218018548     2.6543453454     0.0004089274
 ----------------------------------------------------------------

    9    -538.8607729450      4.95e-06  Convergence criterion met
 Total energy in the final basis set =     -538.8607729450
    4    -538.8730865634      9.25e-06  Convergence criterion met
 Total energy in the final basis set =     -538.8730865634

                    Orbital Energies (a.u.)
 --------------------------------------------------------------

 Alpha MOs
 -- Occupied --
-19.1438 -19.1431 -10.2897 -10.2862 -10.2184 -10.2100 -10.2085 -10.2024
-10.2022 -10.1595 -10.1582 -10.1582  -1.0760  -1.0725  -0.8687  -0.8295
 -0.7742  -0.7083  -0.6897  -0.6884  -0.6424  -0.6091  -0.5548  -0.5240
 -0.5097  -0.4852  -0.4703  -0.4558  -0.4467  -0.4434  -0.4405  -0.4279
 -0.4255  -0.4014  -0.3875  -0.3820  -0.3678  -0.3584  -0.3420  -0.3377
 -0.3118  -0.2911  -0.2901  -0.2770

          Ground-State Mulliken Net Atomic Charges

     Atom                 Charge (a.u.)
  ----------------------------------------
      1 C                    -0.704721
      2 C                     0.567291
      3 C                    -0.477327
      4 C                    -0.704445
      5 C                     1.458323
      6 C                    -0.652293
      7 C                    -0.491632
      8 O                    -0.316706
      9 C                     0.177200
     10 C                     0.124442
     11 C                    -1.024711
     12 O                    -0.246620
     13 H                     0.173277
     14 H                     0.157451
     15 H                     0.177680
     16 H                     0.190243
     17 H                     0.148623
     18 H                     0.148720
     19 H                     0.157516
     20 H                     0.173264
     21 H                     0.177685
     22 H                     0.264950
     23 H                     0.260586
     24 H                     0.261203
  ----------------------------------------
  Sum of atomic charges =     0.000000

                    Cartesian Multipole Moments
 -----------------------------------------------------------------
    Charge (ESU x 10^10)
                 0.0000
    Dipole Moment (Debye)
         X      -1.3600      Y       0.3310      Z       0.0011
       Tot       1.3997
    Quadrupole Moments (Debye-Ang)
        XX     -75.7458     XY      16.1310     YY     -80.9994
        XZ       0.0010     YZ       0.0026     ZZ     -72.2924

 Total job time:  27.45s(wall), 205.79s(cpu)
        *  Thank you very much for using Q-Chem.  Have a nice day.  *
