 Gaussian 16, Revision A.03,
 Gaussian 16:  ES64L-G16RevA.03 25-Dec-2016

 ----------------------------------------------
 #P UB3LYP/6-311++G(d,p) nosym opt freq SCF=YQC
 ----------------------------------------------

 -------
 Reduced
 -------
 Symbolic Z-matrix:
 Charge = -2 Multiplicity = 1

 SCF Done:  E(UB3LYP) =  -842.792369802     a.u. after    9 cycles
 SCF Done:  E(UB3LYP) =  -842.807246879     A.U. after   33 cycles
 SCF Done:  E(UB3LYP) =  -842.807246879     a.u. after    1 cycles
 SCF Done:  E(UB3LYP) =  -842.823407333     a.u. after   28 cycles
 SCF Done:  E(UB3LYP) =  -842.823672313     A.U. after   23 cycles
 SCF Done:  E(UB3LYP) =  -842.825466484     a.u. after   19 cycles
 SCF Done:  E(UB3LYP) =  -842.825594293     A.U. after   21 cycles
 SCF Done:  E(UB3LYP) =  -842.825637340     a.u. after    9 cycles
 SCF Done:  E(UB3LYP) =  -842.825725497     A.U. after   20 cycles
 SCF Done:  E(UB3LYP) =  -842.825517655     a.u. after   15 cycles
 SCF Done:  E(UB3LYP) =  -842.825809065     a.u. after    1 cycles
 SCF Done:  E(UB3LYP) =  -842.825810544     A.U. after   17 cycles
 SCF Done:  E(UB3LYP) =  -842.825809909     a.u. after    1 cycles
 SCF Done:  E(UB3LYP) =  -842.825810576     A.U. after   15 cycles
 SCF Done:  E(UB3LYP) =  -842.825807963     a.u. after    1 cycles
 SCF Done:  E(UB3LYP) =  -842.825810690     A.U. after   17 cycles
 SCF Done:  E(UB3LYP) =  -842.825808233     a.u. after    1 cycles
 SCF Done:  E(UB3LYP) =  -842.825810759     A.U. after   17 cycles
 Optimization completed.
    -- Stationary point found.
 Normal termination of Gaussian 16 at Fri Dec 22 02:59:02 2023.

 ----------------------------------------------------------------------
 #P Geom=AllCheck Guess=TCheck SCRF=Check GenChk UB3LYP/6-311++G(d,p) F
 req
 ----------------------------------------------------------------------

 Structure from the checkpoint file:  "214-an.chk"
 -------
 Reduced
 -------
 Charge = -2 Multiplicity = 1

                          Input orientation:
 ---------------------------------------------------------------------
 Center     Atomic      Atomic             Coordinates (Angstroms)
 Number     Number       Type             X           Y           Z
 ---------------------------------------------------------------------
      1          6           0        5.064739   -2.262224    0.667029
      2          6           0        5.883925   -1.435487   -0.074564
      3          6           0        5.310528   -0.547858   -1.026425
      4          6           0        3.655572   -2.261280    0.516356
      5          6           0        3.072835   -1.359466   -0.452185
      6          6           0        3.941328   -0.523921   -1.197649
      7          6           0        2.855721   -3.161488    1.328775
      8          6           0        1.424218   -3.081803    1.097775
      9          6           0        0.844284   -2.181301    0.129608
     10          6           0        1.641813   -1.283717   -0.685803
     11          6           0        0.554995   -3.920518    1.841222
     12          6           0       -0.563577   -2.195073   -0.026212
     13          6           0       -1.376221   -3.031988    0.708400
     14          8           0        3.375122   -3.962117    2.178760
     15          8           0        1.126278   -0.487941   -1.543511
     16          1           0        5.471501   -2.950912    1.400984
     17          1           0        6.962690   -1.460881    0.067278
     18          1           0        5.949117    0.107914   -1.615211
     19          1           0       -2.452924   -3.026389    0.546196
     20          1           0        3.472837    0.141622   -1.916042
     21          1           0        1.027402   -4.584159    2.560301
     22          1           0       -0.977146   -1.517635   -0.766619
     23          6           0       -0.816273   -3.923464    1.671933
     24          6           0       -1.722161   -4.818795    2.494461
     25          6           0       -2.381978   -4.069236    3.650328
     26          8           0       -3.313189   -4.940067    4.319671
     27          1           0       -1.154427   -5.661444    2.902035
     28          1           0       -2.518376   -5.240437    1.867226
     29          1           0       -2.903732   -3.184314    3.264576
     30          1           0       -1.610973   -3.723862    4.351726
     31          1           0       -3.766158   -4.437319    5.014004
 ---------------------------------------------------------------------

 SCF Done:  E(UB3LYP) =  -842.825810759     a.u. after    1 cycles
 SCF Done:  E(UB3LYP) =  -842.825810759     A.U. after    3 cycles

 Alpha  occ. eigenvalues --  -18.93661 -18.80767 -18.80691 -10.02458  -9.97231
 Alpha  occ. eigenvalues --   -9.96529  -9.96495  -9.95238  -9.94964  -9.94920
 Alpha  occ. eigenvalues --   -9.94423  -9.94138  -9.94116  -9.93862  -9.93640
 Alpha  occ. eigenvalues --   -9.92782  -9.92744  -9.92614  -9.92515  -0.83087
 Alpha  occ. eigenvalues --   -0.72715  -0.72356  -0.62536  -0.61760  -0.57360
 Alpha  occ. eigenvalues --   -0.53684  -0.51654  -0.51097  -0.49483  -0.43335
 Alpha  occ. eigenvalues --   -0.41743  -0.39762  -0.37169  -0.35353  -0.32754
 Alpha  occ. eigenvalues --   -0.31673  -0.29924  -0.28074  -0.27611  -0.23398
 Alpha  occ. eigenvalues --   -0.22830  -0.22399  -0.22133  -0.21132  -0.19271
 Alpha  occ. eigenvalues --   -0.18895  -0.17631  -0.16664  -0.16056  -0.15661
 Alpha  occ. eigenvalues --   -0.15193  -0.14839  -0.13987  -0.12712  -0.11141
 Alpha  occ. eigenvalues --   -0.10863  -0.10762  -0.09332  -0.08879  -0.08775
 Alpha  occ. eigenvalues --   -0.02519  -0.01356  -0.00903  -0.00441   0.01528
 Alpha  occ. eigenvalues --    0.02205   0.11587
 Alpha virt. eigenvalues --    0.12858   0.15053   0.16737   0.16867   0.17610
 Alpha virt. eigenvalues --    0.18268   0.18547   0.19266   0.20001   0.20399
 Alpha virt. eigenvalues --    0.20697   0.21123   0.21977   0.22708   0.23143

  Beta  occ. eigenvalues --  -18.93661 -18.80767 -18.80691 -10.02458  -9.97231
  Beta  occ. eigenvalues --   -9.96529  -9.96495  -9.95238  -9.94964  -9.94920
  Beta  occ. eigenvalues --   -9.94423  -9.94138  -9.94116  -9.93862  -9.93640
  Beta  occ. eigenvalues --   -9.92782  -9.92744  -9.92614  -9.92515  -0.83087
  Beta  occ. eigenvalues --   -0.72715  -0.72356  -0.62536  -0.61760  -0.57360
  Beta  occ. eigenvalues --   -0.53684  -0.51654  -0.51097  -0.49483  -0.43335
  Beta  occ. eigenvalues --   -0.41743  -0.39762  -0.37169  -0.35353  -0.32754
  Beta  occ. eigenvalues --   -0.31673  -0.29924  -0.28074  -0.27611  -0.23398
  Beta  occ. eigenvalues --   -0.22830  -0.22399  -0.22133  -0.21132  -0.19271
  Beta  occ. eigenvalues --   -0.18895  -0.17631  -0.16664  -0.16056  -0.15661
  Beta  occ. eigenvalues --   -0.15193  -0.14839  -0.13987  -0.12712  -0.11141
  Beta  occ. eigenvalues --   -0.10863  -0.10762  -0.09332  -0.08879  -0.08775
  Beta  occ. eigenvalues --   -0.02519  -0.01356  -0.00903  -0.00441   0.01528
  Beta  occ. eigenvalues --    0.02205   0.11587
  Beta virt. eigenvalues --    0.12858   0.15053   0.16737   0.16867   0.17610
  Beta virt. eigenvalues --    0.18268   0.18547   0.19266   0.20001   0.20399
  Beta virt. eigenvalues --    0.20697   0.21123   0.21977   0.22708   0.23143

 Mulliken charges and spin densities:
               1          2
     1  C   -0.036102   0.000000
     2  C   -0.437415  -0.000000
     3  C   -0.433392  -0.000000
     4  C    0.490936  -0.000000
     5  C    0.310605   0.000000
     6  C    0.020159   0.000000
     7  C   -0.841534  -0.000000
     8  C    0.254746   0.000000
     9  C    0.149068   0.000000
    10  C   -1.025917  -0.000000
    11  C   -0.325897   0.000000
    12  C    0.066423  -0.000000
    13  C   -0.467168  -0.000000
    14  O   -0.463595  -0.000000
    15  O   -0.470330  -0.000000
    16  H    0.130374   0.000000
    17  H    0.084778   0.000000
    18  H    0.083143  -0.000000
    19  H    0.103782   0.000000
    20  H    0.134686  -0.000000
    21  H    0.145015  -0.000000
    22  H    0.148197   0.000000
    23  C    0.812822  -0.000000
    24  C   -0.183550   0.000000
    25  C    0.246861  -0.000000
    26  O   -0.311667   0.000000
    27  H    0.107144   0.000000
    28  H    0.140217  -0.000000
    29  H   -0.099804   0.000000
    30  H    0.096034   0.000000
    31  H   -0.428616   0.000000
 Sum of Mulliken charges =  -2.00000  -0.00000

 Dipole moment (field-independent basis, Debye):
    X=            -10.0587    Y=             26.0258    Z=            -11.9317  Tot=             30.3461
 Quadrupole moment (field-independent basis, Debye-Ang):
   XX=           -235.7375   YY=           -230.1244   ZZ=           -200.8269
   XY=              1.5433   XZ=             34.1705   YZ=             71.7361

  Exact polarizability:1382.759 287.843 360.665-815.809-291.540 908.494
 Approx polarizability:8254.9952076.703 972.668****************5308.949

                      1                      2                      3
                      A                      A                      A
 Frequencies --     33.4982                44.7307                74.2152
 Red. masses --      4.7948                 4.3135                 6.3974
 Frc consts  --      0.0032                 0.0051                 0.0208
 IR Inten    --      2.5333                 2.8508                 8.3562

                      4                      5                      6
                      A                      A                      A
 Frequencies --     95.6699               124.1214               150.4594
 Red. masses --      2.6868                 3.8883                 4.6361
 Frc consts  --      0.0145                 0.0353                 0.0618
 IR Inten    --      1.6315                 1.2268                 2.5767

                      7                      8                      9
                      A                      A                      A
 Frequencies --    169.6692               192.6484               223.4227
 Red. masses --      8.3284                 3.7821                 4.3550
 Frc consts  --      0.1413                 0.0827                 0.1281
 IR Inten    --      2.8385                13.9762                 4.2139

                     10                     11                     12
                      A                      A                      A
 Frequencies --    229.3888               265.4773               286.1457
 Red. masses --      1.1586                 5.6060                 6.8953
 Frc consts  --      0.0359                 0.2328                 0.3326
 IR Inten    --     71.1149                 4.2951                 1.6626

                     13                     14                     15
                      A                      A                      A
 Frequencies --    332.1531               365.2250               368.7838
 Red. masses --      4.6740                 3.5701                10.6057
 Frc consts  --      0.3038                 0.2806                 0.8498
 IR Inten    --      9.0543                 0.2562                 5.8998

                     16                     17                     18
                      A                      A                      A
 Frequencies --    399.9672               415.6983               430.7916
 Red. masses --      6.7310                 5.2578                 3.9638
 Frc consts  --      0.6344                 0.5353                 0.4334
 IR Inten    --     83.8276                 5.1705                 5.5016

                     19                     20                     21
                      A                      A                      A
 Frequencies --    449.5489               473.4093               491.3274
 Red. masses --      5.9161                 3.0452                10.5106
 Frc consts  --      0.7044                 0.4021                 1.4949
 IR Inten    --     22.5628                 1.9963               343.7829

                     22                     23                     24
                      A                      A                      A
 Frequencies --    532.5928               604.1733               634.9861
 Red. masses --      4.6235                 5.6202                 6.6680
 Frc consts  --      0.7727                 1.2087                 1.5841
 IR Inten    --      7.3268                13.7256                 5.8927

                     25                     26                     27
                      A                      A                      A
 Frequencies --    647.9230               673.3413               691.4786
 Red. masses --      4.1278                 5.5191                 1.9105
 Frc consts  --      1.0210                 1.4743                 0.5382
 IR Inten    --     15.2528                 9.6154                61.4542

                     28                     29                     30
                      A                      A                      A
 Frequencies --    693.9271               725.4815               752.4404
 Red. masses --      6.1145                 4.3299                 2.0898
 Frc consts  --      1.7347                 1.3427                 0.6971
 IR Inten    --      2.0197                 0.5157                 4.5528

                     31                     32                     33
                      A                      A                      A
 Frequencies --    766.4405               783.0356               799.3906
 Red. masses --      4.1009                 1.8708                 1.2493
 Frc consts  --      1.4193                 0.6758                 0.4704
 IR Inten    --      2.2289                 3.7082                 0.9198

                     34                     35                     36
                      A                      A                      A
 Frequencies --    800.9809               834.1920               859.0014
 Red. masses --      1.5409                 3.5881                 5.4003
 Frc consts  --      0.5825                 1.4711                 2.3478
 IR Inten    --      8.6004                 1.2975                 5.5374

                     37                     38                     39
                      A                      A                      A
 Frequencies --    930.9477               936.8206               960.1144
 Red. masses --      6.0029                 1.5132                 1.2464
 Frc consts  --      3.0652                 0.7825                 0.6769
 IR Inten    --      3.0827                 0.4805                 0.0170

                     40                     41                     42
                      A                      A                      A
 Frequencies --    964.1040               972.2763               972.8206
 Red. masses --      1.3572                 1.3251                 3.0358
 Frc consts  --      0.7432                 0.7381                 1.6927
 IR Inten    --      1.7719                 1.9511                61.3800

                     43                     44                     45
                      A                      A                      A
 Frequencies --    996.3224              1008.6175              1016.0208
 Red. masses --      3.3046                 3.7375                 2.0835
 Frc consts  --      1.9327                 2.2402                 1.2672
 IR Inten    --     28.0023               335.2496               220.7814

                     46                     47                     48
                      A                      A                      A
 Frequencies --   1052.0978              1096.0138              1108.1684
 Red. masses --      1.6271                 2.4256                 1.7877
 Frc consts  --      1.0612                 1.7167                 1.2935
 IR Inten    --      3.9832                47.1376                17.6717

                     49                     50                     51
                      A                      A                      A
 Frequencies --   1127.7476              1142.9323              1187.4051
 Red. masses --      1.6231                 1.5019                 2.3056
 Frc consts  --      1.2163                 1.1559                 1.9153
 IR Inten    --     69.9404               106.3120               174.5662

                     52                     53                     54
                      A                      A                      A
 Frequencies --   1202.8785              1207.6464              1213.0836
 Red. masses --      1.6042                 2.2604                 1.6791
 Frc consts  --      1.3676                 1.9423                 1.4559
 IR Inten    --     47.5394               252.0055                24.9913

                     55                     56                     57
                      A                      A                      A
 Frequencies --   1216.0351              1225.6437              1253.3035
 Red. masses --      1.2513                 2.1355                 2.0794
 Frc consts  --      1.0902                 1.8900                 1.9244
 IR Inten    --    192.8628                40.9714               128.3161

                     58                     59                     60
                      A                      A                      A
 Frequencies --   1304.5325              1317.0391              1339.8206
 Red. masses --      1.2077                 1.5015                 3.3496
 Frc consts  --      1.2109                 1.5345                 3.5427
 IR Inten    --      8.3735                15.3555               234.2161

                     61                     62                     63
                      A                      A                      A
 Frequencies --   1340.7456              1354.5801              1386.1641
 Red. masses --      3.0088                 6.9482                 2.7791
 Frc consts  --      3.1867                 7.5116                 3.1462
 IR Inten    --    174.7003               276.7783               607.0634

                     64                     65                     66
                      A                      A                      A
 Frequencies --   1425.0273              1452.2269              1465.3500
 Red. masses --      1.3947                 3.1894                 3.1734
 Frc consts  --      1.6686                 3.9631                 4.0147
 IR Inten    --     26.0767               134.4137               187.3429

                     67                     68                     69
                      A                      A                      A
 Frequencies --   1474.9867              1484.0674              1487.7975
 Red. masses --      6.4953                 1.3687                 2.7667
 Frc consts  --      8.3257                 1.7761                 3.6083
 IR Inten    --   1545.8964               124.9649                73.7610

                     70                     71                     72
                      A                      A                      A
 Frequencies --   1494.5828              1517.0749              1526.8698
 Red. masses --      3.4449                 1.0913                 5.3379
 Frc consts  --      4.5338                 1.4798                 7.3320
 IR Inten    --    315.1502                22.8174                43.1683

                     73                     74                     75
                      A                      A                      A
 Frequencies --   1570.4017              1590.7908              1607.5196
 Red. masses --      7.8213                 5.4717                 5.8903
 Frc consts  --     11.3645                 8.1583                 8.9680
 IR Inten    --   3185.5843                 5.8844                 9.5732

                     76                     77                     78
                      A                      A                      A
 Frequencies --   2982.9516              2993.6232              3014.5021
 Red. masses --      1.0567                 1.0651                 1.1015
 Frc consts  --      5.5396                 5.6239                 5.8972
 IR Inten    --      7.1742                91.9475                26.3546

                     79                     80                     81
                      A                      A                      A
 Frequencies --   3053.5762              3097.9565              3107.0894
 Red. masses --      1.1005                 1.0828                 1.0867
 Frc consts  --      6.0456                 6.1228                 6.1811
 IR Inten    --     28.9680                37.9589                33.6377

                     82                     83                     84
                      A                      A                      A
 Frequencies --   3120.8904              3148.3037              3159.9059
 Red. masses --      1.0905                 1.0885                 1.0904
 Frc consts  --      6.2578                 6.3568                 6.4149
 IR Inten    --    261.6067                12.7131                25.7589

                     85                     86                     87
                      A                      A                      A
 Frequencies --   3162.3091              3162.9101              3666.7652
 Red. masses --      1.0914                 1.0911                 1.0668
 Frc consts  --      6.4302                 6.4313                 8.4504
 IR Inten    --    116.0141               108.8571              2424.9114

 - Thermochemistry -
 -------------------
 Temperature   298.150 Kelvin.  Pressure   1.00000 Atm.
 Atom     1 has atomic number  6 and mass  12.00000

 Molecular mass:   252.07864 amu.
 Principal axes and moments of inertia in atomic units:
                           1         2         3
     Eigenvalues --  1961.515649217.82104**********
           X            0.81739   0.57561  -0.02362
           Y            0.38398  -0.51379   0.76719
           Z           -0.42946   0.63616   0.64099
 This molecule is an asymmetric top.
 Rotational symmetry number  1.
 Warning -- assumption of classical behavior for rotation
           may cause significant error
 Rotational temperatures (Kelvin)      0.04416     0.00940     0.00792
 Rotational constants (GHZ):           0.92007     0.19579     0.16505
 Zero-point vibrational energy     616179.1 (Joules/Mol)
                                  147.27033 (Kcal/Mol)
 Warning -- explicit consideration of  23 degrees of freedom as
           vibrations may cause significant error
 Vibrational temperatures:     48.20    64.36   106.78   137.65   178.58
          (Kelvin)            216.48   244.12   277.18   321.46   330.04
                              381.96   411.70   477.89   525.48   530.60
                              575.46   598.10   619.81   646.80   681.13
                              706.91   766.28   869.27   913.60   932.22
                              968.79   994.88   998.41  1043.81  1082.59
                             1102.74  1126.61  1150.14  1152.43  1200.22
                             1235.91  1339.43  1347.88  1381.39  1387.13
                             1398.89  1399.67  1433.49  1451.18  1461.83
                             1513.73  1576.92  1594.41  1622.58  1644.42
                             1708.41  1730.67  1737.53  1745.36  1749.60
                             1763.43  1803.22  1876.93  1894.93  1927.70
                             1929.03  1948.94  1994.38  2050.30  2089.43
                             2108.31  2122.18  2135.24  2140.61  2150.37
                             2182.73  2196.83  2259.46  2288.79  2312.86
                             4291.80  4307.16  4337.20  4393.42  4457.27
                             4470.41  4490.27  4529.71  4546.40  4549.86
                             4550.72  5275.66

 Zero-point correction=                           0.234690 (Hartree/Particle)
 Thermal correction to Energy=                    0.250283
 Thermal correction to Enthalpy=                  0.251227
 Thermal correction to Gibbs Free Energy=         0.191217
 Sum of electronic and zero-point Energies=           -842.591121
 Sum of electronic and thermal Energies=              -842.575528
 Sum of electronic and thermal Enthalpies=            -842.574584
 Sum of electronic and thermal Free Energies=         -842.634593

                     E (Thermal)             CV                S
                      KCal/Mol        Cal/Mol-Kelvin    Cal/Mol-Kelvin
 Total                  157.055             61.494            126.301
 Electronic               0.000              0.000              0.000
 Translational            0.889              2.981             42.474
 Rotational               0.889              2.981             33.647
 Vibrational            155.277             55.532             50.181
 Vibration     1          0.594              1.983              5.611
 Vibration     2          0.595              1.980              5.038
 Vibration     3          0.599              1.966              4.038
 Vibration     4          0.603              1.952              3.541
 Vibration     5          0.610              1.929              3.035
 Vibration     6          0.618              1.902              2.666
 Vibration     7          0.625              1.880              2.439
 Vibration     8          0.635              1.850              2.202
 Vibration     9          0.649              1.805              1.931
 Vibration    10          0.652              1.796              1.884
 Vibration    11          0.671              1.736              1.625
 Vibration    12          0.684              1.699              1.497
 Vibration    13          0.714              1.611              1.250
 Vibration    14          0.738              1.544              1.100
 Vibration    15          0.741              1.536              1.085
 Vibration    16          0.766              1.470              0.963
 Vibration    17          0.779              1.436              0.907
 Vibration    18          0.792              1.403              0.856
 Vibration    19          0.808              1.362              0.797
 Vibration    20          0.830              1.309              0.728
 Vibration    21          0.847              1.269              0.680
 Vibration    22          0.888              1.178              0.581
 Vibration    23          0.963              1.023              0.443

 Optimization completed.
    -- Stationary point found.
 Normal termination of Gaussian 16 at Fri Dec 22 04:22:27 2023.
