 Gaussian 16, Revision A.03,
 Gaussian 16:  ES64L-G16RevA.03 25-Dec-2016

 ----------------------------------------------------------------
 #P UB3LYP/6-311++G(d,p) SCRF=(PCM,Solvent=n,n-DiMethylFormamide)
 ----------------------------------------------------------------

 ------------------
 Radical PCM in DMF
 ------------------
 Symbolic Z-matrix:
 Charge = -1 Multiplicity = 2

                         Standard orientation:
 ---------------------------------------------------------------------
 Center     Atomic      Atomic             Coordinates (Angstroms)
 Number     Number       Type             X           Y           Z
 ---------------------------------------------------------------------
      1          6           0       -6.770111   -0.194379   -1.009908
      2          6           0       -7.320567   -1.463804   -1.006435
      3          6           0       -6.605112   -2.538339   -0.441484
      4          6           0       -5.497351    0.046996   -0.455044
      5          6           0       -4.777850   -1.034502    0.113185
      6          6           0       -5.354053   -2.320451    0.107679
      7          6           0       -4.938403    1.407341   -0.473276
      8          6           0       -3.623533    1.580124    0.113674
      9          6           0       -2.922913    0.519297    0.678563
     10          6           0       -3.447312   -0.830148    0.702288
     11          8           0       -5.586639    2.365812   -0.980066
     12          8           0       -2.799593   -1.792534    1.203688
     13          1           0       -8.302854   -1.633198   -1.438341
     14          6           0       -1.551338    0.700002    1.289412
     15          1           0       -7.036229   -3.535471   -0.438009
     16          6           0       -3.059382    2.982333    0.089004
     17          6           0       -0.403881    0.359078    0.318287
     18          6           0        0.984679    0.492062    0.953317
     19          6           0        2.134231    0.145096    0.000100
     20          1           0       -7.296977    0.651291   -1.436999
     21          1           0       -4.779344   -3.127068    0.548597
     22          1           0       -1.472938    0.027652    2.149533
     23          1           0       -1.422725    1.724785    1.653157
     24          1           0       -3.716881    3.618506   -0.504037
     25          1           0       -2.051705    3.014385   -0.339620
     26          1           0       -2.992652    3.411810    1.097252
     27          1           0       -0.466173    1.008781   -0.564071
     28          1           0       -0.550304   -0.667086   -0.033352
     29          1           0        1.038010   -0.159989    1.835084
     30          1           0        1.121107    1.517792    1.323956
     31          1           0        2.079909    0.794890   -0.883581
     32          1           0        1.996972   -0.879492   -0.368976
     33          6           0        3.524696    0.271615    0.633622
     34          6           0        4.673112   -0.076633   -0.320441
     35          6           0        6.063411    0.049002    0.313237
     36          6           0        7.211011   -0.299773   -0.641547
     37          6           0        8.601200   -0.173723   -0.008328
     38          1           0        3.579139   -0.378939    1.516512
     39          1           0        3.661572    1.296434    1.004101
     40          1           0        4.618687    0.573556   -1.203589
     41          1           0        4.536176   -1.101084   -0.690675
     42          1           0        6.117947   -0.601411    1.196130
     43          1           0        6.200529    1.073588    0.683547
     44          1           0        7.156214    0.350191   -1.524747
     45          1           0        7.074183   -1.324420   -1.011331
     46          1           0        8.657132   -0.823687    0.874967
     47          1           0        8.739326    0.851034    0.361354
     48          6           0        9.749037   -0.522759   -0.962616
     49          6           0       11.133792   -0.393615   -0.320676
     50          1           0        9.694120    0.126663   -1.844997
     51          1           0        9.612129   -1.546734   -1.331435
     52          1           0       11.314305    0.628736    0.027115
     53          1           0       11.929404   -0.649375   -1.026773
     54          1           0       11.231600   -1.057286    0.544588
 ---------------------------------------------------------------------

 SCF Done:  E(UB3LYP) =  -1007.30465232     A.U. after   18 cycles

 The electronic state is 2-A.
 Alpha  occ. eigenvalues --  -19.07014 -19.06935 -10.21466 -10.21357 -10.17045
 Alpha  occ. eigenvalues --  -10.16996 -10.16800 -10.16749 -10.16666 -10.16663
 Alpha  occ. eigenvalues --  -10.16494 -10.16135 -10.16079 -10.15835 -10.15816
 Alpha  occ. eigenvalues --  -10.15798 -10.15774 -10.15749 -10.15699 -10.15628
 Alpha  occ. eigenvalues --  -10.15542 -10.15455 -10.15405 -10.15041  -0.99493
 Alpha  occ. eigenvalues --   -0.99206  -0.85410  -0.81745  -0.80949  -0.79520
 Alpha  occ. eigenvalues --   -0.77498  -0.75507  -0.74639  -0.74224  -0.71686
 Alpha  occ. eigenvalues --   -0.69079  -0.66572  -0.65134  -0.62927  -0.60065
 Alpha  occ. eigenvalues --   -0.59065  -0.57710  -0.57517  -0.56960  -0.56772
 Alpha  occ. eigenvalues --   -0.54681  -0.51123  -0.48649  -0.48338  -0.47089
 Alpha  occ. eigenvalues --   -0.46147  -0.45323  -0.44409  -0.43210  -0.42996
 Alpha  occ. eigenvalues --   -0.42431  -0.42203  -0.41847  -0.41425  -0.40836
 Alpha  occ. eigenvalues --   -0.40463  -0.39826  -0.39492  -0.39313  -0.37843
 Alpha  occ. eigenvalues --   -0.37771  -0.37598  -0.36945  -0.36578  -0.36118
 Alpha  occ. eigenvalues --   -0.35211  -0.34820  -0.34333  -0.33958  -0.33465
 Alpha  occ. eigenvalues --   -0.33375  -0.32645  -0.32507  -0.32338  -0.31973
 Alpha  occ. eigenvalues --   -0.31923  -0.31787  -0.31600  -0.29620  -0.26369
 Alpha  occ. eigenvalues --   -0.25358  -0.24114  -0.23642  -0.22918  -0.14627
 Alpha virt. eigenvalues --   -0.02982  -0.01126  -0.00446  -0.00190   0.00362
 Alpha virt. eigenvalues --    0.00681   0.00765   0.01191   0.01544   0.01732
 Alpha virt. eigenvalues --    0.02200   0.02337   0.03134   0.03271   0.03657

  Beta  occ. eigenvalues --  -19.06398 -19.06333 -10.21290 -10.21185 -10.17009
  Beta  occ. eigenvalues --  -10.16961 -10.16746 -10.16702 -10.16659 -10.16650
  Beta  occ. eigenvalues --  -10.16361 -10.16079 -10.16003 -10.15835 -10.15816
  Beta  occ. eigenvalues --  -10.15798 -10.15774 -10.15748 -10.15699 -10.15627
  Beta  occ. eigenvalues --  -10.15529 -10.15455 -10.15415 -10.15052  -0.98424
  Beta  occ. eigenvalues --   -0.98120  -0.85204  -0.81492  -0.80870  -0.79452
  Beta  occ. eigenvalues --   -0.77423  -0.75372  -0.74460  -0.74118  -0.71543
  Beta  occ. eigenvalues --   -0.68896  -0.66465  -0.64532  -0.62824  -0.60003
  Beta  occ. eigenvalues --   -0.58923  -0.57631  -0.57433  -0.56956  -0.56684
  Beta  occ. eigenvalues --   -0.54417  -0.50925  -0.48449  -0.48304  -0.47063
  Beta  occ. eigenvalues --   -0.45900  -0.45278  -0.44338  -0.43186  -0.42686
  Beta  occ. eigenvalues --   -0.42343  -0.42144  -0.41405  -0.41295  -0.40489
  Beta  occ. eigenvalues --   -0.40131  -0.39615  -0.39414  -0.38672  -0.37659
  Beta  occ. eigenvalues --   -0.37583  -0.37470  -0.36905  -0.36044  -0.35199
  Beta  occ. eigenvalues --   -0.34932  -0.34227  -0.33852  -0.33648  -0.33278
  Beta  occ. eigenvalues --   -0.33088  -0.32588  -0.32399  -0.32287  -0.31951
  Beta  occ. eigenvalues --   -0.31898  -0.31782  -0.31534  -0.29548  -0.24705
  Beta  occ. eigenvalues --   -0.24228  -0.23549  -0.22651  -0.22346
  Beta virt. eigenvalues --   -0.08057  -0.02276  -0.00468  -0.00190  -0.00013
  Beta virt. eigenvalues --    0.00380   0.00683   0.00771   0.01195   0.01553
  Beta virt. eigenvalues --    0.01741   0.02214   0.02338   0.03151   0.03279

 Mulliken charges and spin densities:
               1          2
     1  C    0.202761   0.033028
     2  C   -0.450148   0.026213
     3  C   -0.448453   0.027831
     4  C    0.196234   0.012088
     5  C   -0.215140   0.020898
     6  C    0.095545   0.035166
     7  C   -0.811310   0.097756
     8  C    0.989888   0.091934
     9  C    1.035262   0.086473
    10  C   -0.885853   0.102009
    11  O   -0.482640   0.226084
    12  O   -0.460993   0.225600
    13  H    0.176973  -0.002324
    14  C   -0.494602   0.014389
    15  H    0.175722  -0.002224
    16  C   -0.545091  -0.002774
    17  C   -1.015930   0.000238
    18  C   -0.332522   0.005649
    19  C   -0.026457  -0.004160
    20  H    0.167080  -0.002231
    21  H    0.166303  -0.002497
    22  H    0.208623   0.003222
    23  H    0.178238   0.000616
    24  H    0.178582  -0.001623
    25  H    0.160554   0.004395
    26  H    0.174587   0.006097
    27  H    0.128472  -0.000644
    28  H    0.187675  -0.000505
    29  H    0.119454   0.000200
    30  H    0.109858  -0.000460
    31  H    0.128325   0.000126
    32  H    0.124934  -0.000176
    33  C    0.041450  -0.000505
    34  C    0.059368  -0.000107
    35  C   -0.052549   0.000180
    36  C   -0.294984   0.000030
    37  C   -0.484522   0.000011
    38  H    0.131625  -0.000000
    39  H    0.132158  -0.000000
    40  H    0.128929  -0.000005
    41  H    0.129591   0.000005
    42  H    0.128762   0.000004
    43  H    0.128738  -0.000003
    44  H    0.126940   0.000001
    45  H    0.126887  -0.000001
    46  H    0.123831  -0.000001
    47  H    0.123409   0.000001
    48  C   -0.284384  -0.000005
    49  C   -0.691193   0.000002
    50  H    0.130903   0.000000
    51  H    0.131063  -0.000000
    52  H    0.139978   0.000000
    53  H    0.148088   0.000000
    54  H    0.139983  -0.000000
 Sum of Mulliken charges =  -1.00000   1.00000

 Dipole moment (field-independent basis, Debye):
    X=             20.8794    Y=             -0.8230    Z=             -0.3539  Tot=             20.8986
 Quadrupole moment (field-independent basis, Debye-Ang):
   XX=           -256.3874   YY=           -172.6967   ZZ=           -162.5350
   XY=             19.6202   XZ=             -5.3133   YZ=             10.5647

 Normal termination of Gaussian 16 at Sun Jan 21 08:32:00 2024.
