 Gaussian 16, Revision A.03,
 Gaussian 16:  ES64L-G16RevA.03 25-Dec-2016

 ----------------------------------------------------------------------
 #P UB3LYP/6-311++G(d,p) nosym opt freq SCRF=(PCM,Solvent=n,n-DiMethylF
 ormamide)
 ----------------------------------------------------------------------

 -------
 Radical
 -------
 Symbolic Z-matrix:
 Charge = -1 Multiplicity = 2

 SCF Done:  E(UB3LYP) =  -539.026315788     A.U. after   16 cycles
 SCF Done:  E(UB3LYP) =  -539.026623888     A.U. after   12 cycles
 SCF Done:  E(UB3LYP) =  -539.026655823     A.U. after   11 cycles
 SCF Done:  E(UB3LYP) =  -539.026657908     A.U. after   11 cycles
 SCF Done:  E(UB3LYP) =  -539.026659236     A.U. after    9 cycles
 Optimization completed.
    -- Stationary point found.
 Normal termination of Gaussian 16 at Sat Feb 10 10:20:43 2024.

 ----------------------------------------------------------------------
 #P Geom=AllCheck Guess=TCheck SCRF=Check GenChk UB3LYP/6-311++G(d,p) F
 req
 ----------------------------------------------------------------------

 Structure from the checkpoint file:  "053-rad.chk"
 -------
 Radical
 -------
 Charge = -1 Multiplicity = 2

                          Input orientation:
 ---------------------------------------------------------------------
 Center     Atomic      Atomic             Coordinates (Angstroms)
 Number     Number       Type             X           Y           Z
 ---------------------------------------------------------------------
      1          6           0        0.258729    1.455200   -0.961977
      2          6           0       -0.962228    0.663077   -0.936784
      3          6           0       -0.918587   -0.711907   -0.836113
      4          6           0        0.349674   -1.421015   -0.748877
      5          6           0        1.570626   -0.628879   -0.773891
      6          6           0        1.526986    0.746101   -0.874610
      7          8           0        0.219005    2.726378   -1.058083
      8          8           0        0.389392   -2.692183   -0.652648
      9          6           0        2.797619    1.560540   -0.897577
     10          6           0        2.890521   -1.355976   -0.686197
     11          6           0       -2.282122    1.390190   -1.024346
     12          6           0       -2.189220   -1.526344   -0.813108
     13          1           0        3.438450    1.285528   -1.743321
     14          1           0        3.393996    1.403713    0.008619
     15          1           0        2.562285    2.620922   -0.975285
     16          1           0        2.724377   -2.429971   -0.616313
     17          1           0        3.469355   -1.038035    0.188683
     18          1           0        3.518389   -1.159193   -1.562871
     19          1           0       -2.115996    2.464259   -1.093117
     20          1           0       -2.910395    1.192466   -0.148188
     21          1           0       -2.860522    1.073122   -1.899843
     22          1           0       -2.829845   -1.251617    0.032888
     23          1           0       -1.953874   -2.586753   -0.735797
     24          1           0       -2.785815   -1.369204   -1.719103
 ---------------------------------------------------------------------

 SCF Done:  E(UB3LYP) =  -539.026659236     A.U. after    1 cycles

 Alpha  occ. eigenvalues --  -19.06504 -19.06504 -10.20718 -10.20716 -10.15837
 Alpha  occ. eigenvalues --  -10.15835 -10.15777 -10.15776 -10.14887 -10.14887
 Alpha  occ. eigenvalues --  -10.14883 -10.14882  -0.98498  -0.98223  -0.82290
 Alpha  occ. eigenvalues --   -0.78639  -0.71813  -0.71330  -0.69144  -0.62819
 Alpha  occ. eigenvalues --   -0.62708  -0.53825  -0.53389  -0.49304  -0.43764
 Alpha  occ. eigenvalues --   -0.43459  -0.41577  -0.41042  -0.40899  -0.39340
 Alpha  occ. eigenvalues --   -0.38408  -0.38186  -0.38174  -0.37710  -0.37036
 Alpha  occ. eigenvalues --   -0.36555  -0.35759  -0.35164  -0.33337  -0.32616
 Alpha  occ. eigenvalues --   -0.25978  -0.23704  -0.22430  -0.22414  -0.14977
 Alpha virt. eigenvalues --   -0.00646   0.00574   0.00654   0.01471   0.02772
 Alpha virt. eigenvalues --    0.02892   0.03617   0.04057   0.04276   0.04598
 Alpha virt. eigenvalues --    0.05565   0.05732   0.05822   0.07048   0.07353

  Beta  occ. eigenvalues --  -19.05827 -19.05826 -10.20544 -10.20543 -10.15740
  Beta  occ. eigenvalues --  -10.15737 -10.15677 -10.15677 -10.14895 -10.14895
  Beta  occ. eigenvalues --  -10.14891 -10.14891  -0.97311  -0.97002  -0.81760
  Beta  occ. eigenvalues --   -0.78469  -0.71413  -0.71215  -0.68935  -0.62596
  Beta  occ. eigenvalues --   -0.62012  -0.53480  -0.52969  -0.49130  -0.43365
  Beta  occ. eigenvalues --   -0.42821  -0.41450  -0.40742  -0.40526  -0.38831
  Beta  occ. eigenvalues --   -0.38322  -0.38132  -0.37866  -0.37645  -0.36903
  Beta  occ. eigenvalues --   -0.35675  -0.34824  -0.33055  -0.32544  -0.32431
  Beta  occ. eigenvalues --   -0.23077  -0.22892  -0.21827  -0.21724
  Beta virt. eigenvalues --   -0.07812  -0.00620   0.00580   0.01493   0.01970
  Beta virt. eigenvalues --    0.02895   0.02920   0.03642   0.04057   0.04317
  Beta virt. eigenvalues --    0.05562   0.05812   0.05847   0.06763   0.07048

 Mulliken charges and spin densities:
               1          2
     1  C   -1.213981   0.115179
     2  C    0.692281   0.065647
     3  C    0.693722   0.065812
     4  C   -1.213981   0.115178
     5  C    0.692302   0.065654
     6  C    0.693777   0.065820
     7  O   -0.505693   0.243474
     8  O   -0.505693   0.243474
     9  C   -0.552444   0.000377
    10  C   -0.553493   0.000360
    11  C   -0.553506   0.000359
    12  C   -0.552464   0.000376
    13  H    0.145304   0.003392
    14  H    0.144757   0.003340
    15  H    0.179773  -0.002156
    16  H    0.179765  -0.002149
    17  H    0.145150   0.003375
    18  H    0.144837   0.003343
    19  H    0.179764  -0.002149
    20  H    0.144773   0.003337
    21  H    0.145216   0.003380
    22  H    0.145318   0.003394
    23  H    0.179771  -0.002156
    24  H    0.144746   0.003338
 Sum of Mulliken charges =  -1.00000   1.00000

 Dipole moment (field-independent basis, Debye):
    X=             -1.4611    Y=             -0.0821    Z=              4.1085  Tot=              4.3613
 Quadrupole moment (field-independent basis, Debye-Ang):
   XX=            -74.5301   YY=           -117.6635   ZZ=            -80.1138
   XY=              1.3470   XZ=              1.2095   YZ=              3.1717

  Exact polarizability: 211.541  -1.826 275.722   2.753 -11.771 117.530
 Approx polarizability: 208.295  -3.206 314.594   2.309 -13.516 133.537

                      1                      2                      3
                      A                      A                      A
 Frequencies --     49.6826                53.0525                81.8787
 Red. masses --      1.0766                 1.0675                 5.5725
 Frc consts  --      0.0016                 0.0018                 0.0220
 IR Inten    --      0.0091                 0.1809                26.5611

                      4                      5                      6
                      A                      A                      A
 Frequencies --    108.6807               114.5194               114.7231
 Red. masses --      1.0821                 2.3619                 1.0587
 Frc consts  --      0.0075                 0.0183                 0.0082
 IR Inten    --      0.1781                 0.1861                 0.0082

                      7                      8                      9
                      A                      A                      A
 Frequencies --    143.8712               204.6240               299.1197
 Red. masses --      3.3112                 3.2415                 2.7269
 Frc consts  --      0.0404                 0.0800                 0.1438
 IR Inten    --      0.0000                 0.0127                14.4149

                     10                     11                     12
                      A                      A                      A
 Frequencies --    312.1666               316.3742               322.5806
 Red. masses --      2.5201                 3.4661                 2.5246
 Frc consts  --      0.1447                 0.2044                 0.1548
 IR Inten    --      0.0001                 0.0000                 1.7862

                     13                     14                     15
                      A                      A                      A
 Frequencies --    358.6955               413.5841               421.8203
 Red. masses --      4.5140                 9.4703                 5.1509
 Frc consts  --      0.3422                 0.9544                 0.5400
 IR Inten    --      0.0000                41.8820                 0.0000

                     16                     17                     18
                      A                      A                      A
 Frequencies --    433.8548               456.3165               556.3435
 Red. masses --      4.9376                 6.3897                 6.5198
 Frc consts  --      0.5476                 0.7839                 1.1890
 IR Inten    --      0.0000                 0.0000                 0.0000

                     19                     20                     21
                      A                      A                      A
 Frequencies --    558.6900               611.4664               674.2596
 Red. masses --      3.5574                 4.8187                 3.0417
 Frc consts  --      0.6542                 1.0615                 0.8147
 IR Inten    --      0.0034                49.0743                 0.0000

                     22                     23                     24
                      A                      A                      A
 Frequencies --    702.8671               761.1712               849.0538
 Red. masses --      5.9314                 5.5817                 2.1270
 Frc consts  --      1.7265                 1.9054                 0.9034
 IR Inten    --     19.9011                 0.0000                23.3559

                     25                     26                     27
                      A                      A                      A
 Frequencies --    872.7041               980.4211              1012.7093
 Red. masses --      3.2351                 1.4051                 1.6746
 Frc consts  --      1.4517                 0.7957                 1.0119
 IR Inten    --      0.9282                 0.0000                57.4183

                     28                     29                     30
                      A                      A                      A
 Frequencies --   1014.6003              1020.5380              1025.2953
 Red. masses --      3.8915                 1.3788                 1.4484
 Frc consts  --      2.3602                 0.8461                 0.8971
 IR Inten    --      0.0001                 0.0001                 0.8609

                     31                     32                     33
                      A                      A                      A
 Frequencies --   1052.4743              1058.0047              1096.1322
 Red. masses --      1.5374                 1.5252                 2.1051
 Frc consts  --      1.0034                 1.0059                 1.4902
 IR Inten    --      0.0000                 0.0006                 0.0001

                     34                     35                     36
                      A                      A                      A
 Frequencies --   1117.2718              1162.2565              1229.4179
 Red. masses --      2.7475                 4.9207                 6.8870
 Frc consts  --      2.0207                 3.9164                 6.1331
 IR Inten    --    125.8089                 0.0000                25.6526

                     37                     38                     39
                      A                      A                      A
 Frequencies --   1303.2809              1374.4462              1377.7748
 Red. masses --      3.6480                 1.3038                 1.4900
 Frc consts  --      3.6508                 1.4512                 1.6665
 IR Inten    --     59.8977                 0.0040               216.0562

                     40                     41                     42
                      A                      A                      A
 Frequencies --   1386.5483              1387.9577              1422.5560
 Red. masses --      1.3165                 1.2370                 2.4239
 Frc consts  --      1.4912                 1.4041                 2.8901
 IR Inten    --      0.0011                10.1023                 0.0000

                     43                     44                     45
                      A                      A                      A
 Frequencies --   1466.0959              1468.2982              1469.0758
 Red. masses --      1.4274                 1.1380                 5.8459
 Frc consts  --      1.8077                 1.4456                 7.4334
 IR Inten    --      0.0001                25.2815              1348.2636

                     46                     47                     48
                      A                      A                      A
 Frequencies --   1472.9515              1478.1241              1480.7805
 Red. masses --      1.0922                 2.5615                 1.0720
 Frc consts  --      1.3962                 3.2974                 1.3850
 IR Inten    --     10.2995                 0.0001                 0.0006

                     49                     50                     51
                      A                      A                      A
 Frequencies --   1481.2326              1488.2689              1493.3948
 Red. masses --      1.0462                 1.4465                 1.0461
 Frc consts  --      1.3524                 1.8877                 1.3746
 IR Inten    --      1.0381                 0.0005                48.0942

                     52                     53                     54
                      A                      A                      A
 Frequencies --   1493.6277              1525.7082              1624.8472
 Red. masses --      1.0468                 6.1851                 8.6906
 Frc consts  --      1.3759                 8.4828                13.5184
 IR Inten    --      0.1705                28.2975                 0.0000

                     55                     56                     57
                      A                      A                      A
 Frequencies --   3003.6989              3005.3043              3005.8067
 Red. masses --      1.0408                 1.0409                 1.0418
 Frc consts  --      5.5326                 5.5393                 5.5457
 IR Inten    --    319.5838                 0.0006                 0.0050

                     58                     59                     60
                      A                      A                      A
 Frequencies --   3005.8503              3038.2979              3038.4247
 Red. masses --      1.0419                 1.0994                 1.0992
 Frc consts  --      5.5463                 5.9793                 5.9790
 IR Inten    --     18.1100                 0.0040               186.5622

                     61                     62                     63
                      A                      A                      A
 Frequencies --   3043.4947              3043.5083              3120.9826
 Red. masses --      1.0994                 1.0994                 1.0949
 Frc consts  --      6.0002                 6.0002                 6.2838
 IR Inten    --      0.0007                 0.1551                18.5826

                     64                     65                     66
                      A                      A                      A
 Frequencies --   3121.2129              3122.7720              3122.8203
 Red. masses --      1.0950                 1.0949                 1.0948
 Frc consts  --      6.2850                 6.2910                 6.2902
 IR Inten    --      0.0526                43.2512                 0.2480

 - Thermochemistry -
 -------------------
 Temperature   298.150 Kelvin.  Pressure   1.00000 Atm.
 Atom     1 has atomic number  6 and mass  12.00000

 Molecular mass:   164.08373 amu.
 Principal axes and moments of inertia in atomic units:
                           1         2         3
     Eigenvalues --  1628.607281761.139063345.32922
           X            0.99911  -0.03225  -0.02734
           Y            0.03417   0.99676   0.07285
           Z            0.02490  -0.07372   0.99697
 This molecule is an asymmetric top.
 Rotational symmetry number  1.
 Warning -- assumption of classical behavior for rotation
           may cause significant error
 Rotational temperatures (Kelvin)      0.05318     0.04918     0.02589
 Rotational constants (GHZ):           1.10815     1.02476     0.53948
 Zero-point vibrational energy     504993.8 (Joules/Mol)
                                  120.69641 (Kcal/Mol)
 Warning -- explicit consideration of  20 degrees of freedom as
           vibrations may cause significant error
 Vibrational temperatures:     71.48    76.33   117.81   156.37   164.77
          (Kelvin)            165.06   207.00   294.41   430.37   449.14
                              455.19   464.12   516.08   595.06   606.91
                              624.22   656.54   800.45   803.83   879.76
                              970.11  1011.27  1095.16  1221.60  1255.63
                             1410.61  1457.06  1459.78  1468.33  1475.17
                             1514.28  1522.23  1577.09  1607.50  1672.23
                             1768.86  1875.13  1977.52  1982.31  1994.93
                             1996.96  2046.74  2109.38  2112.55  2113.67
                             2119.25  2126.69  2130.51  2131.16  2141.29
                             2148.66  2149.00  2195.15  2337.79  4321.65
                             4323.96  4324.69  4324.75  4371.43  4371.62
                             4378.91  4378.93  4490.40  4490.73  4492.97
                             4493.04

 Zero-point correction=                           0.192342 (Hartree/Particle)
 Thermal correction to Energy=                    0.205445
 Thermal correction to Enthalpy=                  0.206389
 Thermal correction to Gibbs Free Energy=         0.151835
 Sum of electronic and zero-point Energies=           -538.834317
 Sum of electronic and thermal Energies=              -538.821214
 Sum of electronic and thermal Enthalpies=            -538.820270
 Sum of electronic and thermal Free Energies=         -538.874824

                     E (Thermal)             CV                S
                      KCal/Mol        Cal/Mol-Kelvin    Cal/Mol-Kelvin
 Total                  128.919             47.041            114.818
 Electronic               0.000              0.000              1.377
 Translational            0.889              2.981             41.194
 Rotational               0.889              2.981             30.640
 Vibrational            127.141             41.080             41.607
 Vibration     1          0.595              1.978              4.830
 Vibration     2          0.596              1.976              4.700
 Vibration     3          0.600              1.962              3.845
 Vibration     4          0.606              1.942              3.292
 Vibration     5          0.607              1.937              3.191
 Vibration     6          0.608              1.937              3.187
 Vibration     7          0.616              1.909              2.752
 Vibration     8          0.640              1.833              2.091
 Vibration     9          0.692              1.675              1.422
 Vibration    10          0.701              1.650              1.351
 Vibration    11          0.703              1.642              1.329
 Vibration    12          0.708              1.630              1.297
 Vibration    13          0.734              1.557              1.128
 Vibration    14          0.777              1.441              0.914
 Vibration    15          0.784              1.423              0.886
 Vibration    16          0.795              1.396              0.846
 Vibration    17          0.815              1.347              0.777
 Vibration    18          0.912              1.126              0.531
 Vibration    19          0.914              1.121              0.526
 Vibration    20          0.971              1.008              0.430

                           ! Non-Optimized Parameters !
 Normal termination of Gaussian 16 at Sat Feb 10 10:55:22 2024.
