 Gaussian 16, Revision A.03,
 Gaussian 16:  ES64L-G16RevA.03 25-Dec-2016

 ----------------------------------------------
 #P UB3LYP/6-311++G(d,p) nosym opt freq SCF=YQC
 ----------------------------------------------

 -------
 Reduced
 -------
 Symbolic Z-matrix:
 Charge = -2 Multiplicity = 1

 SCF Done:  E(UB3LYP) =  -1051.39463256     a.u. after    8 cycles
 SCF Done:  E(UB3LYP) =  -1051.40313680     A.U. after   33 cycles
 SCF Done:  E(UB3LYP) =  -1051.40343644     a.u. after    5 cycles
 SCF Done:  E(UB3LYP) =  -1051.42722484     a.u. after  325 cycles
 SCF Done:  E(UB3LYP) =  -1051.42811200     A.U. after   27 cycles
 SCF Done:  E(UB3LYP) =  -1051.43384867     a.u. after  431 cycles
 SCF Done:  E(UB3LYP) =  -1051.43408206     A.U. after   24 cycles
 SCF Done:  E(UB3LYP) =  -1051.43258930     a.u. after  282 cycles
 SCF Done:  E(UB3LYP) =  -1051.43274059     A.U. after   23 cycles
 SCF Done:  E(UB3LYP) =  -1051.43439218     a.u. after  158 cycles
 SCF Done:  E(UB3LYP) =  -1051.43482350     a.u. after   24 cycles
 SCF Done:  E(UB3LYP) =  -1051.43486338     A.U. after   22 cycles
 SCF Done:  E(UB3LYP) =  -1051.43478387     a.u. after    1 cycles
 SCF Done:  E(UB3LYP) =  -1051.43486535     A.U. after   22 cycles
 SCF Done:  E(UB3LYP) =  -1051.43485792     a.u. after    1 cycles
 SCF Done:  E(UB3LYP) =  -1051.43486556     A.U. after   21 cycles
 SCF Done:  E(UB3LYP) =  -1051.43486489     a.u. after    1 cycles
 SCF Done:  E(UB3LYP) =  -1051.43486557     A.U. after   16 cycles
 Optimization completed.
    -- Stationary point found.
 Normal termination of Gaussian 16 at Thu Dec 28 17:49:18 2023.

 ----------------------------------------------------------------------
 #P Geom=AllCheck Guess=TCheck SCRF=Check GenChk UB3LYP/6-311++G(d,p) F
 req
 ----------------------------------------------------------------------

 Structure from the checkpoint file:  "278-an.chk"
 -------
 Reduced
 -------
 Charge = -2 Multiplicity = 1

                          Input orientation:
 ---------------------------------------------------------------------
 Center     Atomic      Atomic             Coordinates (Angstroms)
 Number     Number       Type             X           Y           Z
 ---------------------------------------------------------------------
      1          6           0        0.266247    3.947763    0.281830
      2          6           0       -0.886904    3.566675    0.945292
      3          6           0       -1.233188    2.193487    1.010699
      4          6           0        1.119774    3.007451   -0.339117
      5          6           0        0.771851    1.614058   -0.269399
      6          6           0       -0.414476    1.252793    0.412293
      7          6           0        2.315220    3.478996   -1.034416
      8          6           0        3.104922    2.430439   -1.604270
      9          6           0        2.777873    1.043039   -1.529223
     10          6           0        1.593952    0.577667   -0.880775
     11          8           0        2.603824    4.730688   -1.093944
     12          8           0        1.252343   -0.669286   -0.824545
     13          1           0        0.562128    4.989906    0.210198
     14          1           0       -1.524126    4.315225    1.413809
     15          1           0       -2.139272    1.882499    1.529013
     16          1           0       -0.648955    0.193057    0.441302
     17         16           0        4.586363    2.930153   -2.507642
     18          6           0        3.650054   -0.015216   -2.159817
     19          1           0        3.571694   -0.024930   -3.259754
     20          1           0        3.314312   -0.989277   -1.796083
     21          1           0        4.710393    0.137107   -1.931064
     22          6           0        5.515175    3.874262   -1.221496
     23          6           0        6.743758    4.553009   -1.821481
     24          1           0        5.804617    3.177974   -0.428676
     25          1           0        4.803116    4.600470   -0.823367
     26          1           0        7.431763    3.828417   -2.272612
     27          1           0        7.304416    5.104592   -1.053427
     28          1           0        6.454744    5.268552   -2.598336
 ---------------------------------------------------------------------

 SCF Done:  E(UB3LYP) =  -1051.43486557     a.u. after    1 cycles
 SCF Done:  E(UB3LYP) =  -1051.43486557     A.U. after    6 cycles

 Alpha  occ. eigenvalues --  -88.58897 -18.78006 -18.77360  -9.96347  -9.95834
 Alpha  occ. eigenvalues --   -9.94173  -9.93327  -9.93220  -9.93142  -9.92179
 Alpha  occ. eigenvalues --   -9.92078  -9.91950  -9.90933  -9.90798  -9.90685
 Alpha  occ. eigenvalues --   -9.90041  -7.67466  -5.63859  -5.63495  -5.62865
 Alpha  occ. eigenvalues --   -0.69847  -0.68784  -0.59903  -0.57087  -0.54305
 Alpha  occ. eigenvalues --   -0.49974  -0.49605  -0.47606  -0.42887  -0.39772
 Alpha  occ. eigenvalues --   -0.37527  -0.34133  -0.32844  -0.29181  -0.25164
 Alpha  occ. eigenvalues --   -0.24048  -0.23503  -0.21474  -0.20273  -0.18993
 Alpha  occ. eigenvalues --   -0.17383  -0.17155  -0.16293  -0.14937  -0.14318
 Alpha  occ. eigenvalues --   -0.13964  -0.13261  -0.12490  -0.11391  -0.10719
 Alpha  occ. eigenvalues --   -0.09645  -0.08372  -0.07338  -0.07150  -0.06054
 Alpha  occ. eigenvalues --   -0.00128   0.00698   0.01455   0.03565   0.04202
 Alpha  occ. eigenvalues --    0.05065   0.12828
 Alpha virt. eigenvalues --    0.14239   0.16019   0.17532   0.17818   0.18486
 Alpha virt. eigenvalues --    0.19222   0.20263   0.20784   0.21246   0.21925
 Alpha virt. eigenvalues --    0.22183   0.23098   0.23584   0.23808   0.24941

  Beta  occ. eigenvalues --  -88.58897 -18.78006 -18.77360  -9.96347  -9.95834
  Beta  occ. eigenvalues --   -9.94173  -9.93327  -9.93220  -9.93142  -9.92179
  Beta  occ. eigenvalues --   -9.92078  -9.91950  -9.90933  -9.90798  -9.90685
  Beta  occ. eigenvalues --   -9.90041  -7.67466  -5.63859  -5.63495  -5.62865
  Beta  occ. eigenvalues --   -0.69847  -0.68784  -0.59903  -0.57087  -0.54305
  Beta  occ. eigenvalues --   -0.49974  -0.49605  -0.47606  -0.42887  -0.39772
  Beta  occ. eigenvalues --   -0.37527  -0.34133  -0.32844  -0.29181  -0.25164
  Beta  occ. eigenvalues --   -0.24048  -0.23503  -0.21474  -0.20273  -0.18993
  Beta  occ. eigenvalues --   -0.17383  -0.17155  -0.16293  -0.14937  -0.14318
  Beta  occ. eigenvalues --   -0.13964  -0.13261  -0.12490  -0.11391  -0.10719
  Beta  occ. eigenvalues --   -0.09645  -0.08372  -0.07338  -0.07150  -0.06054
  Beta  occ. eigenvalues --   -0.00128   0.00698   0.01455   0.03565   0.04202
  Beta  occ. eigenvalues --    0.05065   0.12828
  Beta virt. eigenvalues --    0.14239   0.16019   0.17532   0.17818   0.18486
  Beta virt. eigenvalues --    0.19222   0.20263   0.20784   0.21246   0.21925
  Beta virt. eigenvalues --    0.22183   0.23098   0.23584   0.23808   0.24941

 Mulliken charges and spin densities:
               1          2
     1  C   -0.052212  -0.000000
     2  C   -0.400102   0.000000
     3  C   -0.361487  -0.000000
     4  C    0.203185   0.000000
     5  C    0.606642  -0.000000
     6  C    0.019328   0.000000
     7  C   -0.816599  -0.000000
     8  C    0.822576  -0.000000
     9  C    0.665316   0.000000
    10  C   -1.002892   0.000000
    11  O   -0.486579  -0.000000
    12  O   -0.518249  -0.000000
    13  H    0.142471  -0.000000
    14  H    0.072720   0.000000
    15  H    0.070212  -0.000000
    16  H    0.132491   0.000000
    17  S   -0.767689   0.000000
    18  C   -0.354269   0.000000
    19  H    0.084790   0.000000
    20  H    0.169604  -0.000000
    21  H    0.101786   0.000000
    22  C   -0.589346  -0.000000
    23  C    0.212561   0.000000
    24  H    0.124688  -0.000000
    25  H    0.204355   0.000000
    26  H   -0.009764  -0.000000
    27  H   -0.363997  -0.000000
    28  H    0.090459  -0.000000
 Sum of Mulliken charges =  -2.00000   0.00000

 Dipole moment (field-independent basis, Debye):
    X=            -23.5659    Y=            -22.9816    Z=              9.7231  Tot=             34.3226
 Quadrupole moment (field-independent basis, Debye-Ang):
   XX=           -234.6694   YY=           -227.8937   ZZ=           -138.5500
   XY=            -82.1736   XZ=             41.8320   YZ=             24.4928

  Exact polarizability:1824.931 757.376 706.363-148.228  38.628 314.232
 Approx polarizability:3749.3501803.6771473.091-209.809  19.390 378.439

                      1                      2                      3
                      A                      A                      A
 Frequencies --     45.4903                51.9675                71.2916
 Red. masses --      3.6710                 4.9413                 1.6307
 Frc consts  --      0.0045                 0.0079                 0.0049
 IR Inten    --      7.0555                 7.7065                 6.3819

                      4                      5                      6
                      A                      A                      A
 Frequencies --     76.5604               100.9610               130.8246
 Red. masses --      1.6161                 2.3428                 3.7872
 Frc consts  --      0.0056                 0.0141                 0.0382
 IR Inten    --      1.0423                 2.1031                 1.7472

                      7                      8                      9
                      A                      A                      A
 Frequencies --    164.3159               187.8957               221.7740
 Red. masses --      3.8314                 6.8867                 4.0220
 Frc consts  --      0.0609                 0.1433                 0.1165
 IR Inten    --      9.9651                 4.0095                 8.1228

                     10                     11                     12
                      A                      A                      A
 Frequencies --    243.1297               249.4277               280.7340
 Red. masses --      1.8156                 2.2017                 5.0526
 Frc consts  --      0.0632                 0.0807                 0.2346
 IR Inten    --     10.1639                26.0449                20.5719

                     13                     14                     15
                      A                      A                      A
 Frequencies --    298.1667               343.6211               373.9573
 Red. masses --      4.9941                 3.6526                 8.9523
 Frc consts  --      0.2616                 0.2541                 0.7376
 IR Inten    --      0.3966                 0.2945                16.5683

                     16                     17                     18
                      A                      A                      A
 Frequencies --    380.0789               406.2999               423.6213
 Red. masses --      7.5587                 7.4621                 6.5923
 Frc consts  --      0.6433                 0.7258                 0.6970
 IR Inten    --     34.1488                71.6775               324.9732

                     19                     20                     21
                      A                      A                      A
 Frequencies --    457.5162               490.5014               518.6571
 Red. masses --      3.3683                 9.9675                 4.8521
 Frc consts  --      0.4154                 1.4129                 0.7690
 IR Inten    --     17.1092               798.3238                12.7060

                     22                     23                     24
                      A                      A                      A
 Frequencies --    569.4053               652.1288               656.4637
 Red. masses --      6.5994                 5.1266                 5.1842
 Frc consts  --      1.2606                 1.2845                 1.3163
 IR Inten    --      7.5826                11.3473                25.1659

                     25                     26                     27
                      A                      A                      A
 Frequencies --    670.0022               685.9629               691.9251
 Red. masses --      4.9137                 2.3518                 3.8631
 Frc consts  --      1.2996                 0.6520                 1.0897
 IR Inten    --      3.6334                45.1657                18.2402

                     28                     29                     30
                      A                      A                      A
 Frequencies --    752.7252               773.9545               792.7570
 Red. masses --      2.3927                 2.0962                 1.1230
 Frc consts  --      0.7988                 0.7398                 0.4158
 IR Inten    --     32.3556                 2.0512                 6.2708

                     31                     32                     33
                      A                      A                      A
 Frequencies --    799.5577               827.0702               850.7011
 Red. masses --      6.4127                 2.4100                 4.4979
 Frc consts  --      2.4154                 0.9713                 1.9179
 IR Inten    --     20.2298                 2.4368                 5.1402

                     34                     35                     36
                      A                      A                      A
 Frequencies --    955.9172               960.2268               966.4797
 Red. masses --      1.2257                 1.3673                 6.6941
 Frc consts  --      0.6599                 0.7428                 3.6841
 IR Inten    --      0.3875                 3.6530               123.5712

                     37                     38                     39
                      A                      A                      A
 Frequencies --    979.9157              1017.8219              1019.9337
 Red. masses --      2.0361                 2.1156                 1.8936
 Frc consts  --      1.1519                 1.2913                 1.1606
 IR Inten    --      3.2673               336.4475                73.3523

                     40                     41                     42
                      A                      A                      A
 Frequencies --   1031.0873              1042.1799              1058.5973
 Red. masses --      1.2349                 1.4448                 1.9176
 Frc consts  --      0.7735                 0.9246                 1.2661
 IR Inten    --     44.4210                 8.6540                54.3703

                     43                     44                     45
                      A                      A                      A
 Frequencies --   1093.5891              1119.0782              1138.0769
 Red. masses --      2.0044                 1.6331                 3.0633
 Frc consts  --      1.4124                 1.2050                 2.3376
 IR Inten    --     42.1303               120.0778               275.6865

                     46                     47                     48
                      A                      A                      A
 Frequencies --   1193.5393              1208.5174              1245.6530
 Red. masses --      2.1243                 2.7257                 1.4960
 Frc consts  --      1.7830                 2.3455                 1.3676
 IR Inten    --     31.9297                85.4353               287.5194

                     49                     50                     51
                      A                      A                      A
 Frequencies --   1255.0087              1270.9038              1329.2901
 Red. masses --      1.7928                 1.3102                 5.5208
 Frc consts  --      1.6637                 1.2469                 5.7477
 IR Inten    --    237.0630                85.3079              1224.8800

                     52                     53                     54
                      A                      A                      A
 Frequencies --   1350.6951              1368.9335              1382.9745
 Red. masses --      2.8569                 1.9993                 1.2689
 Frc consts  --      3.0708                 2.2074                 1.4299
 IR Inten    --    159.6789               123.7541               898.9393

                     55                     56                     57
                      A                      A                      A
 Frequencies --   1400.9592              1421.0758              1435.9029
 Red. masses --      3.1222                 4.5508                 5.0788
 Frc consts  --      3.6105                 5.4146                 6.1696
 IR Inten    --    217.9539               413.0530              2610.6422

                     58                     59                     60
                      A                      A                      A
 Frequencies --   1464.1500              1474.3220              1476.1085
 Red. masses --      1.1712                 1.1680                 1.9844
 Frc consts  --      1.4793                 1.4958                 2.5475
 IR Inten    --      3.3683               661.5626              1506.7222

                     61                     62                     63
                      A                      A                      A
 Frequencies --   1489.4172              1496.7797              1499.3164
 Red. masses --      2.4624                 1.0648                 1.3098
 Frc consts  --      3.2184                 1.4055                 1.7347
 IR Inten    --    289.3705                21.8904               206.3807

                     64                     65                     66
                      A                      A                      A
 Frequencies --   1500.7518              1562.0030              1588.2464
 Red. masses --      1.1122                 6.6836                 5.4198
 Frc consts  --      1.4758                 9.6078                 8.0551
 IR Inten    --      2.1355              3215.6707                43.5429

                     67                     68                     69
                      A                      A                      A
 Frequencies --   2928.5441              2973.2196              3012.1738
 Red. masses --      1.0636                 1.0441                 1.0656
 Frc consts  --      5.3746                 5.4383                 5.6965
 IR Inten    --    712.3609                53.8105               293.8052

                     70                     71                     72
                      A                      A                      A
 Frequencies --   3013.8189              3029.4223              3055.0900
 Red. masses --      1.0654                 1.0910                 1.0959
 Frc consts  --      5.7019                 5.8994                 6.0264
 IR Inten    --      4.9658                25.1553               101.0397

                     73                     74                     75
                      A                      A                      A
 Frequencies --   3080.3256              3081.6167              3087.5244
 Red. masses --      1.0979                 1.1071                 1.0825
 Frc consts  --      6.1379                 6.1943                 6.0802
 IR Inten    --      9.7070                37.4316                40.8881

                     76                     77                     78
                      A                      A                      A
 Frequencies --   3111.9012              3157.0657              3159.4373
 Red. masses --      1.0909                 1.0901                 1.0911
 Frc consts  --      6.2244                 6.4013                 6.4170
 IR Inten    --    328.1139                31.6811               209.3629

 - Thermochemistry -
 -------------------
 Temperature   298.150 Kelvin.  Pressure   1.00000 Atm.
 Atom     1 has atomic number  6 and mass  12.00000

 Molecular mass:   232.05580 amu.
 Principal axes and moments of inertia in atomic units:
                           1         2         3
     Eigenvalues --  2191.547975346.320487256.04183
           X            0.89285  -0.14551   0.42619
           Y            0.24557   0.95059  -0.18991
           Z           -0.37750   0.27422   0.88447
 This molecule is an asymmetric top.
 Rotational symmetry number  1.
 Warning -- assumption of classical behavior for rotation
           may cause significant error
 Rotational temperatures (Kelvin)      0.03952     0.01620     0.01194
 Rotational constants (GHZ):           0.82350     0.33757     0.24872
 Zero-point vibrational energy     554630.9 (Joules/Mol)
                                  132.55996 (Kcal/Mol)
 Warning -- explicit consideration of  22 degrees of freedom as
           vibrations may cause significant error
 Vibrational temperatures:     65.45    74.77   102.57   110.15   145.26
          (Kelvin)            188.23   236.41   270.34   319.08   349.81
                              358.87   403.91   429.00   494.39   538.04
                              546.85   584.57   609.50   658.26   705.72
                              746.23   819.25   938.27   944.50   963.98
                              986.95   995.53  1083.00  1113.55  1140.60
                             1150.39  1189.97  1223.97  1375.35  1381.55
                             1390.55  1409.88  1464.42  1467.46  1483.50
                             1499.46  1523.09  1573.43  1610.10  1637.44
                             1717.24  1738.79  1792.22  1805.68  1828.55
                             1912.55  1943.35  1969.59  1989.79  2015.67
                             2044.61  2065.94  2106.59  2121.22  2123.79
                             2142.94  2153.53  2157.18  2159.25  2247.37
                             2285.13  4213.52  4277.80  4333.85  4336.21
                             4358.66  4395.59  4431.90  4433.76  4442.26
                             4477.33  4542.31  4545.73

 Zero-point correction=                           0.211248 (Hartree/Particle)
 Thermal correction to Energy=                    0.226487
 Thermal correction to Enthalpy=                  0.227431
 Thermal correction to Gibbs Free Energy=         0.168276
 Sum of electronic and zero-point Energies=          -1051.223618
 Sum of electronic and thermal Energies=             -1051.208379
 Sum of electronic and thermal Enthalpies=           -1051.207435
 Sum of electronic and thermal Free Energies=        -1051.266590

                     E (Thermal)             CV                S
                      KCal/Mol        Cal/Mol-Kelvin    Cal/Mol-Kelvin
 Total                  142.123             57.514            124.503
 Electronic               0.000              0.000              0.000
 Translational            0.889              2.981             42.227
 Rotational               0.889              2.981             32.808
 Vibrational            140.345             51.552             49.468
 Vibration     1          0.595              1.979              5.004
 Vibration     2          0.596              1.977              4.741
 Vibration     3          0.598              1.968              4.117
 Vibration     4          0.599              1.965              3.977
 Vibration     5          0.604              1.948              3.436
 Vibration     6          0.612              1.922              2.934
 Vibration     7          0.623              1.886              2.500
 Vibration     8          0.633              1.856              2.248
 Vibration     9          0.648              1.808              1.945
 Vibration    10          0.659              1.774              1.780
 Vibration    11          0.662              1.764              1.735
 Vibration    12          0.680              1.709              1.529
 Vibration    13          0.691              1.677              1.427
 Vibration    14          0.722              1.588              1.195
 Vibration    15          0.745              1.526              1.064
 Vibration    16          0.750              1.513              1.039
 Vibration    17          0.771              1.457              0.940
 Vibration    18          0.786              1.419              0.880
 Vibration    19          0.816              1.344              0.773
 Vibration    20          0.846              1.271              0.682
 Vibration    21          0.874              1.209              0.613
 Vibration    22          0.925              1.097              0.505

 Optimization completed.
    -- Stationary point found.
 Normal termination of Gaussian 16 at Thu Dec 28 18:41:58 2023.
