 Gaussian 16, Revision A.03,
 Gaussian 16:  ES64L-G16RevA.03 25-Dec-2016

 --------------------------------------
 #P UB3LYP/6-311++G(d,p) nosym opt freq
 --------------------------------------

 -------
 Radical
 -------
 Symbolic Z-matrix:
 Charge = -1 Multiplicity = 2

 SCF Done:  E(UB3LYP) =  -728.323922144     A.U. after   22 cycles
 SCF Done:  E(UB3LYP) =  -728.344005667     A.U. after   19 cycles
 SCF Done:  E(UB3LYP) =  -728.345283864     A.U. after   16 cycles
 SCF Done:  E(UB3LYP) =  -728.345353894     A.U. after   14 cycles
 SCF Done:  E(UB3LYP) =  -728.345370461     A.U. after   13 cycles
 SCF Done:  E(UB3LYP) =  -728.345381498     A.U. after   12 cycles
 SCF Done:  E(UB3LYP) =  -728.345400814     A.U. after   13 cycles
 SCF Done:  E(UB3LYP) =  -728.345473005     A.U. after   14 cycles
 SCF Done:  E(UB3LYP) =  -728.345460190     A.U. after   16 cycles
 SCF Done:  E(UB3LYP) =  -728.345621082     A.U. after   14 cycles
 SCF Done:  E(UB3LYP) =  -728.345913909     A.U. after   16 cycles
 SCF Done:  E(UB3LYP) =  -728.346048941     A.U. after   15 cycles
 SCF Done:  E(UB3LYP) =  -728.346133650     A.U. after   14 cycles
 SCF Done:  E(UB3LYP) =  -728.346169647     A.U. after   14 cycles
 SCF Done:  E(UB3LYP) =  -728.346175944     A.U. after   13 cycles
 SCF Done:  E(UB3LYP) =  -728.346184226     A.U. after   12 cycles
 SCF Done:  E(UB3LYP) =  -728.346184087     A.U. after   11 cycles
 SCF Done:  E(UB3LYP) =  -728.346184440     A.U. after   10 cycles
 SCF Done:  E(UB3LYP) =  -728.346184467     A.U. after    8 cycles
 Optimization completed.
    -- Stationary point found.
 Normal termination of Gaussian 16 at Thu Dec 21 07:37:38 2023.

 ----------------------------------------------------------------------
 #P Geom=AllCheck Guess=TCheck SCRF=Check GenChk UB3LYP/6-311++G(d,p) F
 req
 ----------------------------------------------------------------------

 Structure from the checkpoint file:  "124-rad.chk"
 -------
 Radical
 -------
 Charge = -1 Multiplicity = 2

                          Input orientation:
 ---------------------------------------------------------------------
 Center     Atomic      Atomic             Coordinates (Angstroms)
 Number     Number       Type             X           Y           Z
 ---------------------------------------------------------------------
      1          6           0       -4.569440    0.229838    0.019507
      2          6           0       -3.118674   -0.191053    0.020404
      3          6           0       -2.777657   -1.567795   -0.014877
      4          6           0       -1.458221   -1.967022   -0.014622
      5          6           0       -0.405013   -1.026392    0.020532
      6          6           0        0.980000   -1.498192    0.019330
      7          8           0        1.268320   -2.720927   -0.012183
      8          6           0        2.011393   -0.458583    0.057098
      9          6           0        3.372038   -0.837168    0.058320
     10          6           0        4.378856    0.106847    0.093161
     11          6           0        4.053330    1.481289    0.128480
     12          6           0        2.730441    1.875636    0.128033
     13          6           0        1.682480    0.928634    0.092746
     14          6           0        0.295341    1.397713    0.093858
     15          8           0        0.006736    2.621560    0.125391
     16          6           0       -0.733866    0.358446    0.056134
     17          6           0       -2.096191    0.737503    0.054961
     18          1           0       -5.090941   -0.126873   -0.877117
     19          1           0       -4.663763    1.318014    0.050207
     20          1           0       -5.106868   -0.178000    0.884356
     21          1           0       -3.568905   -2.313351   -0.042369
     22          1           0       -1.186999   -3.016374   -0.041435
     23          1           0        3.591583   -1.898433    0.030756
     24          1           0        5.419374   -0.204680    0.093466
     25          1           0        4.844125    2.225421    0.155929
     26          1           0        2.451792    2.922919    0.154721
     27          1           0       -2.309271    1.801025    0.082696
 ---------------------------------------------------------------------

 SCF Done:  E(UB3LYP) =  -728.346184467     A.U. after    1 cycles

 Alpha  occ. eigenvalues --  -18.94413 -18.94347 -10.09421 -10.09293 -10.07067
 Alpha  occ. eigenvalues --  -10.06610 -10.05680 -10.05629 -10.05479 -10.05045
 Alpha  occ. eigenvalues --  -10.04970 -10.04948 -10.04798 -10.04761 -10.04754
 Alpha  occ. eigenvalues --  -10.04686 -10.04618  -0.87048  -0.86759  -0.74077
 Alpha  occ. eigenvalues --   -0.73194  -0.67407  -0.64251  -0.62871  -0.62338
 Alpha  occ. eigenvalues --   -0.58458  -0.53852  -0.51322  -0.48752  -0.46700
 Alpha  occ. eigenvalues --   -0.43300  -0.41173  -0.39853  -0.35230  -0.34745
 Alpha  occ. eigenvalues --   -0.33875  -0.32909  -0.32260  -0.30627  -0.30275
 Alpha  occ. eigenvalues --   -0.29576  -0.29170  -0.28018  -0.27830  -0.26944
 Alpha  occ. eigenvalues --   -0.25701  -0.24740  -0.24118  -0.22597  -0.22427
 Alpha  occ. eigenvalues --   -0.21123  -0.20881  -0.14002  -0.13610  -0.13147
 Alpha  occ. eigenvalues --   -0.12348  -0.11360  -0.10511  -0.01313
 Alpha virt. eigenvalues --    0.07007   0.07485   0.08363   0.09392   0.09697
 Alpha virt. eigenvalues --    0.10328   0.11201   0.11217   0.11808   0.12421
 Alpha virt. eigenvalues --    0.12865   0.13782   0.14532   0.15612   0.16430

  Beta  occ. eigenvalues --  -18.93829 -18.93738 -10.09291 -10.09153 -10.07073
  Beta  occ. eigenvalues --  -10.06556 -10.05629 -10.05575 -10.05431 -10.05061
  Beta  occ. eigenvalues --  -10.04985 -10.04956 -10.04710 -10.04707 -10.04659
  Beta  occ. eigenvalues --  -10.04644 -10.04530  -0.86040  -0.85704  -0.73849
  Beta  occ. eigenvalues --   -0.73059  -0.67086  -0.64049  -0.62681  -0.62155
  Beta  occ. eigenvalues --   -0.58281  -0.53170  -0.51163  -0.48504  -0.46646
  Beta  occ. eigenvalues --   -0.43080  -0.40961  -0.39700  -0.35151  -0.34467
  Beta  occ. eigenvalues --   -0.33708  -0.32827  -0.32166  -0.30556  -0.30245
  Beta  occ. eigenvalues --   -0.29485  -0.27962  -0.27754  -0.27369  -0.26745
  Beta  occ. eigenvalues --   -0.25499  -0.23791  -0.22550  -0.22400  -0.22294
  Beta  occ. eigenvalues --   -0.20681  -0.19969  -0.13305  -0.12237  -0.11917
  Beta  occ. eigenvalues --   -0.11467  -0.10807  -0.09955
  Beta virt. eigenvalues --    0.04620   0.07474   0.07808   0.08354   0.09681
  Beta virt. eigenvalues --    0.10106   0.10319   0.11215   0.11529   0.12054
  Beta virt. eigenvalues --    0.12412   0.12857   0.13769   0.14512   0.15676

 Mulliken charges and spin densities:
               1          2
     1  C   -0.394959  -0.002712
     2  C    0.495216   0.034979
     3  C   -0.399935   0.046771
     4  C    0.119013   0.011975
     5  C    0.227875   0.043574
     6  C   -0.876525   0.065944
     7  O   -0.367588   0.217593
     8  C    0.197689   0.047991
     9  C    0.089771   0.014538
    10  C   -0.402981   0.044359
    11  C   -0.400532   0.037445
    12  C    0.006115   0.019522
    13  C    0.435697   0.048403
    14  C   -0.688381   0.074504
    15  O   -0.368234   0.227638
    16  C    0.152445   0.066784
    17  C   -0.189077   0.009534
    18  H    0.131035   0.003318
    19  H    0.152986   0.000089
    20  H    0.130917   0.003313
    21  H    0.122158  -0.003628
    22  H    0.157394  -0.000970
    23  H    0.156529  -0.000992
    24  H    0.121997  -0.003686
    25  H    0.123168  -0.003262
    26  H    0.152784  -0.001419
    27  H    0.115422  -0.001606
 Sum of Mulliken charges =  -1.00000   1.00000

 Dipole moment (field-independent basis, Debye):
    X=             -3.1243    Y=              0.2041    Z=             -0.2735  Tot=              3.1429
 Quadrupole moment (field-independent basis, Debye-Ang):
   XX=           -116.6034   YY=           -131.9601   ZZ=           -106.4405
   XY=              4.8182   XZ=             -0.1176   YZ=             -0.6582

  Exact polarizability: 351.177  22.155 226.642   2.763   3.657 101.901
 Approx polarizability: 506.108  15.297 429.211   3.392   7.562 161.809

                      1                      2                      3
                      A                      A                      A
 Frequencies --     49.2871                87.3348                98.7008
 Red. masses --      5.4300                 1.1242                 3.3581
 Frc consts  --      0.0078                 0.0051                 0.0193
 IR Inten    --      5.8174                 0.1449                 0.5037

                      4                      5                      6
                      A                      A                      A
 Frequencies --    134.2322               159.3218               185.8146
 Red. masses --      4.5440                 6.5471                 4.0444
 Frc consts  --      0.0482                 0.0979                 0.0823
 IR Inten    --      0.2557                 1.7833                 3.2979

                      7                      8                      9
                      A                      A                      A
 Frequencies --    202.4128               276.8766               287.5899
 Red. masses --      4.6565                 5.4064                 4.4343
 Frc consts  --      0.1124                 0.2442                 0.2161
 IR Inten    --      0.9409                 1.5874                 1.9542

                     10                     11                     12
                      A                      A                      A
 Frequencies --    335.7149               370.1912               379.0289
 Red. masses --      5.9515                 4.2737                10.8098
 Frc consts  --      0.3952                 0.3451                 0.9150
 IR Inten    --      1.7229                 0.6820                 4.4186

                     13                     14                     15
                      A                      A                      A
 Frequencies --    420.0819               433.4553               434.1856
 Red. masses --      3.8362                 5.7891                 4.8610
 Frc consts  --      0.3989                 0.6408                 0.5399
 IR Inten    --      0.8705                 0.3701                 2.4987

                     16                     17                     18
                      A                      A                      A
 Frequencies --    468.4881               489.6739               522.8791
 Red. masses --      3.1391                12.1253                 3.9441
 Frc consts  --      0.4059                 1.7130                 0.6353
 IR Inten    --      0.0183                 0.2194                 5.0260

                     19                     20                     21
                      A                      A                      A
 Frequencies --    574.8570               641.0891               645.7710
 Red. masses --      5.6218                 6.7768                 4.1351
 Frc consts  --      1.0946                 1.6410                 1.0160
 IR Inten    --      9.7561                 6.0095                 3.7395

                     22                     23                     24
                      A                      A                      A
 Frequencies --    669.3575               700.6489               703.6470
 Red. masses --      6.5191                 6.3826                 2.2619
 Frc consts  --      1.7209                 1.8461                 0.6598
 IR Inten    --      2.0561                 0.5871                71.7740

                     25                     26                     27
                      A                      A                      A
 Frequencies --    734.0855               748.2403               775.7970
 Red. masses --      4.5661                 6.1367                 1.6450
 Frc consts  --      1.4497                 2.0243                 0.5833
 IR Inten    --      0.0502                 1.9333                 9.6535

                     28                     29                     30
                      A                      A                      A
 Frequencies --    801.8159               826.7200               854.7433
 Red. masses --      2.5290                 1.9286                 5.9433
 Frc consts  --      0.9580                 0.7766                 2.5583
 IR Inten    --      8.0181                18.4500                 8.5564

                     31                     32                     33
                      A                      A                      A
 Frequencies --    868.3227               928.8495               936.5012
 Red. masses --      1.5599                 1.3689                 6.7054
 Frc consts  --      0.6930                 0.6959                 3.4649
 IR Inten    --      0.0888                 5.3918                17.8088

                     34                     35                     36
                      A                      A                      A
 Frequencies --    969.9012               980.1036               982.8444
 Red. masses --      2.2941                 1.3219                 1.2811
 Frc consts  --      1.2715                 0.7482                 0.7291
 IR Inten    --      0.2835                 0.2931                 0.6514

                     37                     38                     39
                      A                      A                      A
 Frequencies --    984.5641              1023.7035              1037.7297
 Red. masses --      1.3429                 1.9157                 1.9227
 Frc consts  --      0.7670                 1.1828                 1.2199
 IR Inten    --      3.2984                 1.1462                29.8178

                     40                     41                     42
                      A                      A                      A
 Frequencies --   1056.4107              1108.0822              1117.5409
 Red. masses --      1.4949                 2.3639                 1.9951
 Frc consts  --      0.9829                 1.7101                 1.4681
 IR Inten    --      2.5327                14.9083                 4.5029

                     43                     44                     45
                      A                      A                      A
 Frequencies --   1144.2419              1154.3156              1195.3703
 Red. masses --      1.5850                 1.4426                 2.4215
 Frc consts  --      1.2227                 1.1325                 2.0386
 IR Inten    --     20.6670                 6.1401                 2.1247

                     46                     47                     48
                      A                      A                      A
 Frequencies --   1219.8422              1224.8552              1230.1431
 Red. masses --      2.1784                 1.7484                 4.2701
 Frc consts  --      1.9099                 1.5454                 3.8071
 IR Inten    --      9.2059                15.0147                37.5338

                     49                     50                     51
                      A                      A                      A
 Frequencies --   1266.4716              1334.2826              1358.6323
 Red. masses --      1.8591                 2.2028                10.7617
 Frc consts  --      1.7569                 2.3106                11.7040
 IR Inten    --     67.5913                12.8355                19.4875

                     52                     53                     54
                      A                      A                      A
 Frequencies --   1365.1879              1400.6437              1413.8153
 Red. masses --      7.7047                 1.3871                 2.4526
 Frc consts  --      8.4604                 1.6033                 2.8884
 IR Inten    --     14.5678                67.0573               201.0884

                     55                     56                     57
                      A                      A                      A
 Frequencies --   1461.3819              1473.1525              1482.9430
 Red. masses --      2.7913                 2.3933                 1.0454
 Frc consts  --      3.5122                 3.0602                 1.3545
 IR Inten    --     97.0881                55.8129                 4.9277

                     58                     59                     60
                      A                      A                      A
 Frequencies --   1494.4860              1498.2856              1526.5757
 Red. masses --      1.3359                 3.2290                 4.4680
 Frc consts  --      1.7579                 4.2707                 6.1348
 IR Inten    --      4.4945                39.5264               496.1150

                     61                     62                     63
                      A                      A                      A
 Frequencies --   1533.5851              1555.5042              1614.7463
 Red. masses --      6.6415                 5.3169                 8.8896
 Frc consts  --      9.2031                 7.5797                13.6566
 IR Inten    --     11.6511                85.1450                 1.4272

                     64                     65                     66
                      A                      A                      A
 Frequencies --   1623.2620              1638.8061              2995.3335
 Red. masses --      5.7724                 6.3737                 1.0386
 Frc consts  --      8.9615                10.0855                 5.4900
 IR Inten    --     14.0502                16.2051               148.1028

                     67                     68                     69
                      A                      A                      A
 Frequencies --   3031.8459              3084.6463              3127.8000
 Red. masses --      1.0997                 1.0972                 1.0877
 Frc consts  --      5.9556                 6.1508                 6.2696
 IR Inten    --     39.6232                24.4398                41.5160

                     70                     71                     72
                      A                      A                      A
 Frequencies --   3132.4939              3151.7286              3167.9918
 Red. masses --      1.0846                 1.0910                 1.0892
 Frc consts  --      6.2703                 6.3854                 6.4409
 IR Inten    --     18.0821                53.1263                12.8334

                     73                     74                     75
                      A                      A                      A
 Frequencies --   3180.5260              3180.9099              3183.4198
 Red. masses --      1.0914                 1.0914                 1.0929
 Frc consts  --      6.5050                 6.5061                 6.5254
 IR Inten    --     16.0371                16.1747                28.2780

 - Thermochemistry -
 -------------------
 Temperature   298.150 Kelvin.  Pressure   1.00000 Atm.
 Atom     1 has atomic number  6 and mass  12.00000

 Molecular mass:   222.06808 amu.
 Principal axes and moments of inertia in atomic units:
                           1         2         3
     Eigenvalues --  1746.604635300.719647036.14700
           X            0.99187  -0.12695  -0.00860
           Y            0.12667   0.99156  -0.02775
           Z            0.01205   0.02644   0.99958
 This molecule is an asymmetric top.
 Rotational symmetry number  1.
 Warning -- assumption of classical behavior for rotation
           may cause significant error
 Rotational temperatures (Kelvin)      0.04959     0.01634     0.01231
 Rotational constants (GHZ):           1.03329     0.34047     0.25650
 Zero-point vibrational energy     535052.7 (Joules/Mol)
                                  127.88066 (Kcal/Mol)
 Warning -- explicit consideration of  19 degrees of freedom as
           vibrations may cause significant error
 Vibrational temperatures:     70.91   125.66   142.01   193.13   229.23
          (Kelvin)            267.35   291.23   398.36   413.78   483.02
                              532.62   545.34   604.40   623.65   624.70
                              674.05   704.53   752.31   827.09   922.38
                              929.12   963.06  1008.08  1012.39  1056.19
                             1076.55  1116.20  1153.63  1189.47  1229.78
                             1249.32  1336.41  1347.42  1395.47  1410.15
                             1414.09  1416.57  1472.88  1493.06  1519.94
                             1594.28  1607.89  1646.31  1660.80  1719.87
                             1755.08  1762.29  1769.90  1822.17  1919.74
                             1954.77  1964.20  2015.21  2034.16  2102.60
                             2119.54  2133.62  2150.23  2155.70  2196.40
                             2206.49  2238.02  2323.26  2335.51  2357.88
                             4309.62  4362.15  4438.12  4500.21  4506.96
                             4534.63  4558.03  4576.07  4576.62  4580.23

 Zero-point correction=                           0.203791 (Hartree/Particle)
 Thermal correction to Energy=                    0.216818
 Thermal correction to Enthalpy=                  0.217762
 Thermal correction to Gibbs Free Energy=         0.163558
 Sum of electronic and zero-point Energies=           -728.142394
 Sum of electronic and thermal Energies=              -728.129367
 Sum of electronic and thermal Enthalpies=            -728.128423
 Sum of electronic and thermal Free Energies=         -728.182627

                     E (Thermal)             CV                S
                      KCal/Mol        Cal/Mol-Kelvin    Cal/Mol-Kelvin
 Total                  136.055             52.306            114.082
 Electronic               0.000              0.000              1.377
 Translational            0.889              2.981             42.096
 Rotational               0.889              2.981             32.543
 Vibrational            134.278             46.344             38.065
 Vibration     1          0.595              1.978              4.846
 Vibration     2          0.601              1.958              3.719
 Vibration     3          0.604              1.950              3.480
 Vibration     4          0.613              1.919              2.884
 Vibration     5          0.621              1.892              2.558
 Vibration     6          0.632              1.859              2.269
 Vibration     7          0.639              1.836              2.111
 Vibration     8          0.678              1.716              1.553
 Vibration     9          0.685              1.697              1.488
 Vibration    10          0.717              1.604              1.232
 Vibration    11          0.742              1.533              1.079
 Vibration    12          0.749              1.515              1.043
 Vibration    13          0.783              1.427              0.892
 Vibration    14          0.794              1.397              0.847
 Vibration    15          0.795              1.396              0.845
 Vibration    16          0.826              1.320              0.742
 Vibration    17          0.846              1.273              0.684
 Vibration    18          0.878              1.199              0.603
 Vibration    19          0.931              1.086              0.495

 Optimization completed.
    -- Stationary point found.
 Normal termination of Gaussian 16 at Thu Dec 21 08:34:18 2023.
