 Gaussian 16, Revision A.03,
 Gaussian 16:  ES64L-G16RevA.03 25-Dec-2016

 ----------------------------------------------------------------
 #P UB3LYP/6-311++G(d,p) SCRF=(PCM,Solvent=n,n-DiMethylFormamide)
 ----------------------------------------------------------------

 -------
 Reduced
 -------
 Symbolic Z-matrix:
 Charge = -2 Multiplicity = 1

                         Standard orientation:
 ---------------------------------------------------------------------
 Center     Atomic      Atomic             Coordinates (Angstroms)
 Number     Number       Type             X           Y           Z
 ---------------------------------------------------------------------
      1          6           0       -2.336694   -0.045728   -0.116959
      2          6           0       -2.395712    1.394847   -0.140123
      3          6           0       -1.301921    2.237224   -0.036897
      4          6           0        0.046540    1.767933    0.115897
      5          6           0        0.147421    0.326105    0.130029
      6          6           0       -0.990696   -0.499436    0.030362
      7          8           0       -3.379342   -0.791086   -0.230542
      8          8           0        1.057145    2.551671    0.266170
      9         17           0       -0.749699   -2.287240    0.003165
     10          6           0        1.507995   -0.227258    0.315959
     11          8           0        1.969669   -0.769281    1.301470
     12          8           0        2.283567   -0.053379   -0.804172
     13          6           0        3.666099   -0.362055   -0.651731
     14          1           0       -3.395538    1.813791   -0.255368
     15          1           0       -1.437341    3.318306   -0.061762
     16          1           0        4.135035   -0.145460   -1.615171
     17          1           0        3.816364   -1.414888   -0.392247
     18          1           0        4.119873    0.258134    0.128115
 ---------------------------------------------------------------------

 SCF Done:  E(UB3LYP) =  -1069.40855406     A.U. after   18 cycles

 The electronic state is 1-A.
 Alpha  occ. eigenvalues -- -101.52744 -19.15530 -19.10743 -19.02311 -19.02166
 Alpha  occ. eigenvalues --  -10.29444 -10.21236 -10.19145 -10.18614 -10.18361
 Alpha  occ. eigenvalues --  -10.14973 -10.13654 -10.13254  -9.44181  -7.20565
 Alpha  occ. eigenvalues --   -7.19718  -7.19671  -1.09545  -1.00995  -0.94216
 Alpha  occ. eigenvalues --   -0.93836  -0.83801  -0.78140  -0.74028  -0.69414
 Alpha  occ. eigenvalues --   -0.65687  -0.59920  -0.54864  -0.54138  -0.48940
 Alpha  occ. eigenvalues --   -0.47350  -0.47309  -0.44255  -0.43360  -0.41734
 Alpha  occ. eigenvalues --   -0.39353  -0.38195  -0.37438  -0.36745  -0.35491
 Alpha  occ. eigenvalues --   -0.34361  -0.33600  -0.32940  -0.30913  -0.30046
 Alpha  occ. eigenvalues --   -0.29198  -0.27812  -0.23300  -0.22103  -0.20446
 Alpha  occ. eigenvalues --   -0.20312  -0.12766
 Alpha virt. eigenvalues --   -0.00737   0.00230   0.01213   0.01545   0.02278
 Alpha virt. eigenvalues --    0.02902   0.03580   0.04084   0.04495   0.05489
 Alpha virt. eigenvalues --    0.06361   0.06758   0.06959   0.07084   0.08317

  Beta  occ. eigenvalues -- -101.52744 -19.15530 -19.10743 -19.02311 -19.02166
  Beta  occ. eigenvalues --  -10.29444 -10.21236 -10.19145 -10.18614 -10.18361
  Beta  occ. eigenvalues --  -10.14973 -10.13654 -10.13254  -9.44181  -7.20565
  Beta  occ. eigenvalues --   -7.19718  -7.19671  -1.09545  -1.00995  -0.94216
  Beta  occ. eigenvalues --   -0.93836  -0.83801  -0.78140  -0.74028  -0.69414
  Beta  occ. eigenvalues --   -0.65687  -0.59920  -0.54864  -0.54138  -0.48940
  Beta  occ. eigenvalues --   -0.47350  -0.47309  -0.44255  -0.43360  -0.41734
  Beta  occ. eigenvalues --   -0.39353  -0.38195  -0.37438  -0.36745  -0.35491
  Beta  occ. eigenvalues --   -0.34361  -0.33600  -0.32940  -0.30913  -0.30046
  Beta  occ. eigenvalues --   -0.29198  -0.27812  -0.23300  -0.22103  -0.20446
  Beta  occ. eigenvalues --   -0.20312  -0.12766
  Beta virt. eigenvalues --   -0.00737   0.00230   0.01213   0.01545   0.02278
  Beta virt. eigenvalues --    0.02902   0.03580   0.04084   0.04495   0.05489
  Beta virt. eigenvalues --    0.06361   0.06758   0.06959   0.07084   0.08317

 Mulliken charges and spin densities:
               1          2
     1  C   -0.661365   0.000000
     2  C   -0.090150   0.000000
     3  C    0.101633  -0.000000
     4  C   -0.762033   0.000000
     5  C    0.852826  -0.000000
     6  C    0.340575  -0.000000
     7  O   -0.669387  -0.000000
     8  O   -0.655485  -0.000000
     9  Cl   0.293497   0.000000
    10  C   -0.945749   0.000000
    11  O   -0.296424  -0.000000
    12  O   -0.056038   0.000000
    13  C   -0.247808  -0.000000
    14  H    0.153187  -0.000000
    15  H    0.147304  -0.000000
    16  H    0.159553  -0.000000
    17  H    0.160601   0.000000
    18  H    0.175264   0.000000
 Sum of Mulliken charges =  -2.00000  -0.00000

 Dipole moment (field-independent basis, Debye):
    X=              9.1587    Y=             -3.1263    Z=             -2.0866  Tot=              9.8999
 Quadrupole moment (field-independent basis, Debye-Ang):
   XX=           -132.3790   YY=           -122.1540   ZZ=            -95.3970
   XY=            -20.5465   XZ=             -9.1988   YZ=             -0.2542

 Normal termination of Gaussian 16 at Wed Jan 24 22:49:57 2024.
