 Gaussian 16, Revision A.03,
 Gaussian 16:  ES64L-G16RevA.03 25-Dec-2016

 --------------------------------------
 #P UB3LYP/6-311++G(d,p) nosym opt freq
 --------------------------------------

 -------
 Radical
 -------
 Symbolic Z-matrix:
 Charge = -3 Multiplicity = 2

 SCF Done:  E(UB3LYP) =  -1935.48946875     A.U. after   26 cycles
 SCF Done:  E(UB3LYP) =  -1935.48946735     A.U. after   13 cycles
 SCF Done:  E(UB3LYP) =  -1935.48946831     A.U. after   12 cycles
 SCF Done:  E(UB3LYP) =  -1935.48946904     A.U. after   12 cycles
 Optimization completed.
    -- Stationary point found.
 Normal termination of Gaussian 16 at Mon Jan  8 22:35:01 2024.

 ----------------------------------------------------------------------
 #P Geom=AllCheck Guess=TCheck SCRF=Check GenChk UB3LYP/6-311++G(d,p) F
 req
 ----------------------------------------------------------------------

 Structure from the checkpoint file:  "224-rad.chk"
 -------
 Radical
 -------
 Charge = -3 Multiplicity = 2

                          Input orientation:
 ---------------------------------------------------------------------
 Center     Atomic      Atomic             Coordinates (Angstroms)
 Number     Number       Type             X           Y           Z
 ---------------------------------------------------------------------
      1          6           0        5.638427   -4.710949    0.878873
      2          6           0        6.656830   -4.602208   -0.039747
      3          6           0        6.582662   -3.628867   -1.053925
      4          6           0        4.515559   -3.860456    0.822915
      5          6           0        4.423871   -2.861349   -0.205451
      6          6           0        5.503518   -2.767430   -1.156255
      7          6           0        3.495027   -4.092013    1.878031
      8          6           0        2.308149   -3.236164    1.869002
      9          6           0        2.216327   -2.237240    0.840467
     10          6           0        3.236428   -2.006288   -0.215198
     11          6           0        1.229078   -3.329265    2.820542
     12          6           0        0.150184   -2.467478    2.718526
     13          6           0        0.075741   -1.494523    1.704000
     14          6           0        1.093700   -1.386410    0.784813
     15          8           0        3.676703   -4.991192    2.724855
     16          8           0        3.054562   -1.107381   -1.062270
     17         16           0        1.047675   -4.514616    4.271861
     18          8           0       -0.274613   -4.115573    4.874783
     19          8           0        2.165679   -4.238509    5.210429
     20          8           0        0.984900   -5.890134    3.714078
     21         16           0        5.685570   -1.581116   -2.606708
     22          8           0        7.008765   -1.978834   -3.208516
     23          8           0        4.568747   -1.857480   -3.546616
     24          8           0        5.746751   -0.205885   -2.048062
     25          1           0        5.651416   -5.444628    1.676714
     26          1           0        7.521164   -5.262931    0.010096
     27          1           0        7.373403   -3.528056   -1.785573
     28          1           0       -0.640074   -2.567608    3.450791
     29          1           0       -0.788384   -0.833507    1.654423
     30          1           0        1.080535   -0.652982   -0.013255
 ---------------------------------------------------------------------

 SCF Done:  E(UB3LYP) =  -1935.48946904     A.U. after    2 cycles

 Alpha  occ. eigenvalues --  -88.71294 -88.71294 -18.75625 -18.75624 -18.75417
 Alpha  occ. eigenvalues --  -18.75416 -18.75342 -18.75342 -18.75341 -18.75341
 Alpha  occ. eigenvalues --   -9.91155  -9.91154  -9.89071  -9.89071  -9.87971
 Alpha  occ. eigenvalues --   -9.87970  -9.87729  -9.87728  -9.87063  -9.87063
 Alpha  occ. eigenvalues --   -9.86975  -9.86974  -9.86886  -9.86886  -7.77091
 Alpha  occ. eigenvalues --   -7.77090  -5.73359  -5.73359  -5.73333  -5.73333
 Alpha  occ. eigenvalues --   -5.73309  -5.73309  -0.76862  -0.76862  -0.68912
 Alpha  occ. eigenvalues --   -0.68650  -0.63547  -0.63547  -0.62868  -0.62865
 Alpha  occ. eigenvalues --   -0.55656  -0.54973  -0.48027  -0.45187  -0.45147
 Alpha  occ. eigenvalues --   -0.43717  -0.36117  -0.34311  -0.31373  -0.30967
 Alpha  occ. eigenvalues --   -0.28537  -0.24774  -0.23162  -0.22025  -0.20939
 Alpha  occ. eigenvalues --   -0.17270  -0.16393  -0.16104  -0.15369  -0.14588
 Alpha  occ. eigenvalues --   -0.14231  -0.11665  -0.11616  -0.11348  -0.11276
 Alpha  occ. eigenvalues --   -0.10768  -0.10507  -0.09718  -0.09048  -0.07409
 Alpha  occ. eigenvalues --   -0.06638  -0.06625  -0.06446  -0.04829  -0.04097
 Alpha  occ. eigenvalues --   -0.03586   0.00153   0.00194   0.00823   0.00921
 Alpha  occ. eigenvalues --    0.02095   0.02772   0.03454   0.03665   0.04069
 Alpha  occ. eigenvalues --    0.04608   0.04717   0.05219   0.06042   0.06107
 Alpha  occ. eigenvalues --    0.08102   0.08448   0.08498   0.08512   0.17208
 Alpha virt. eigenvalues --    0.22197   0.22199   0.24618   0.25772   0.25804
 Alpha virt. eigenvalues --    0.27519   0.27666   0.27934   0.28790   0.31150
 Alpha virt. eigenvalues --    0.31262   0.31461   0.31669   0.32670   0.33325

  Beta  occ. eigenvalues --  -88.71295 -88.71294 -18.75410 -18.75410 -18.75340
  Beta  occ. eigenvalues --  -18.75340 -18.75339 -18.75339 -18.74990 -18.74990
  Beta  occ. eigenvalues --   -9.91061  -9.91060  -9.89072  -9.89072  -9.87914
  Beta  occ. eigenvalues --   -9.87914  -9.87617  -9.87616  -9.87089  -9.87089
  Beta  occ. eigenvalues --   -9.86875  -9.86874  -9.86843  -9.86843  -7.77091
  Beta  occ. eigenvalues --   -7.77091  -5.73359  -5.73359  -5.73333  -5.73333
  Beta  occ. eigenvalues --   -5.73310  -5.73310  -0.76857  -0.76856  -0.67856
  Beta  occ. eigenvalues --   -0.67560  -0.63543  -0.63542  -0.62857  -0.62854
  Beta  occ. eigenvalues --   -0.55405  -0.54859  -0.47605  -0.45044  -0.44980
  Beta  occ. eigenvalues --   -0.43498  -0.35399  -0.34194  -0.31115  -0.30915
  Beta  occ. eigenvalues --   -0.28405  -0.24661  -0.22976  -0.21896  -0.20848
  Beta  occ. eigenvalues --   -0.17073  -0.16215  -0.16047  -0.15223  -0.14546
  Beta  occ. eigenvalues --   -0.14204  -0.11623  -0.11415  -0.11330  -0.11236
  Beta  occ. eigenvalues --   -0.10335  -0.09813  -0.09497  -0.08584  -0.07154
  Beta  occ. eigenvalues --   -0.06589  -0.06323  -0.04587  -0.04211  -0.03915
  Beta  occ. eigenvalues --   -0.02474   0.00183   0.00234   0.00839   0.00932
  Beta  occ. eigenvalues --    0.02243   0.03169   0.03483   0.03700   0.04672
  Beta  occ. eigenvalues --    0.04768   0.05859   0.06057   0.06652   0.06746
  Beta  occ. eigenvalues --    0.08472   0.08619   0.08620   0.09048
  Beta virt. eigenvalues --    0.22184   0.22186   0.23200   0.25359   0.25763
  Beta virt. eigenvalues --    0.25797   0.27509   0.27920   0.28741   0.28952
  Beta virt. eigenvalues --    0.31202   0.31314   0.31460   0.31673   0.32681

 Mulliken charges and spin densities:
               1          2
     1  C   -0.192689   0.003066
     2  C   -0.451721   0.047567
     3  C    0.370500   0.030048
     4  C    0.834520   0.056224
     5  C    0.399680   0.093904
     6  C   -1.049094   0.010691
     7  C   -1.026490   0.020009
     8  C    0.399853   0.093898
     9  C    0.834406   0.056216
    10  C   -1.026347   0.020007
    11  C   -1.049014   0.010692
    12  C    0.370191   0.030043
    13  C   -0.451702   0.047569
    14  C   -0.192704   0.003063
    15  O   -0.251970   0.240220
    16  O   -0.251974   0.240220
    17  S    0.510561   0.003364
    18  O   -0.379112   0.000617
    19  O   -0.345639   0.000916
    20  O   -0.345341   0.000920
    21  S    0.510588   0.003364
    22  O   -0.379104   0.000617
    23  O   -0.345559   0.000917
    24  O   -0.345438   0.000920
    25  H    0.130510  -0.001153
    26  H    0.088813  -0.003669
    27  H    0.207474  -0.002715
    28  H    0.207476  -0.002715
    29  H    0.088814  -0.003669
    30  H    0.130512  -0.001153
 Sum of Mulliken charges =  -3.00000   1.00000

 Dipole moment (field-independent basis, Debye):
    X=            -48.5089    Y=             43.9226    Z=            -11.9933  Tot=             66.5293
 Quadrupole moment (field-independent basis, Debye-Ang):
   XX=           -416.4556   YY=           -354.7365   ZZ=           -349.5237
   XY=            110.5870   XZ=             58.3657   YZ=            111.0803

  Exact polarizability: 345.263 -45.393 246.549 -98.435 -63.828 303.911
 Approx polarizability: 526.072 -98.864 430.478-100.092-110.296 459.948

                      1                      2                      3
                      A                      A                      A
 Frequencies --      2.9777                29.5224                31.2746
 Red. masses --     14.8430                11.4691                 7.8722
 Frc consts  --      0.0001                 0.0059                 0.0045
 IR Inten    --      0.6269                 0.0001                 8.6070

                      4                      5                      6
                      A                      A                      A
 Frequencies --     81.7365                85.9440               102.9059
 Red. masses --     12.0464                 9.9452                11.6775
 Frc consts  --      0.0474                 0.0433                 0.0729
 IR Inten    --      0.0000                 0.0550                 4.1069

                      7                      8                      9
                      A                      A                      A
 Frequencies --    121.3161               143.7053               170.8105
 Red. masses --     15.9722                 6.3556                 7.7500
 Frc consts  --      0.1385                 0.0773                 0.1332
 IR Inten    --      0.0000                 0.2722                 0.0000

                     10                     11                     12
                      A                      A                      A
 Frequencies --    173.8299               210.4676               218.2110
 Red. masses --      9.0034                13.7190                 5.3758
 Frc consts  --      0.1603                 0.3580                 0.1508
 IR Inten    --      0.8531                 2.9117                 0.0000

                     13                     14                     15
                      A                      A                      A
 Frequencies --    238.6236               273.1295               286.2315
 Red. masses --     13.5859                13.3973                 6.6689
 Frc consts  --      0.4558                 0.5889                 0.3219
 IR Inten    --      0.0000                 0.0000                 0.1748

                     16                     17                     18
                      A                      A                      A
 Frequencies --    300.8840               321.7054               351.0328
 Red. masses --     12.8737                 7.6526                 6.2947
 Frc consts  --      0.6867                 0.4666                 0.4570
 IR Inten    --      2.2065                 0.0000                 0.0000

                     19                     20                     21
                      A                      A                      A
 Frequencies --    359.9140               394.3386               399.0260
 Red. masses --      6.7689                12.2446                 9.6363
 Frc consts  --      0.5166                 1.1218                 0.9040
 IR Inten    --      5.1511                 7.1023                 0.0000

                     22                     23                     24
                      A                      A                      A
 Frequencies --    408.1224               462.6522               480.1075
 Red. masses --      6.6310                 9.6777                 8.7026
 Frc consts  --      0.6507                 1.2205                 1.1819
 IR Inten    --      0.0002                 0.0000                11.2977

                     25                     26                     27
                      A                      A                      A
 Frequencies --    490.6675               497.5069               498.3298
 Red. masses --     12.7362                 4.3162                11.7175
 Frc consts  --      1.8066                 0.6294                 1.7144
 IR Inten    --      0.0000                 4.0501                 0.0000

                     28                     29                     30
                      A                      A                      A
 Frequencies --    504.0930               521.6749               557.5224
 Red. masses --     15.9100                11.9916                 8.8913
 Frc consts  --      2.3820                 1.9228                 1.6283
 IR Inten    --     32.1473                 0.0000                35.8439

                     31                     32                     33
                      A                      A                      A
 Frequencies --    570.4908               594.1578               608.8350
 Red. masses --      5.5761                15.5796                17.5772
 Frc consts  --      1.0693                 3.2405                 3.8388
 IR Inten    --      0.0001               437.7121                 0.0001

                     34                     35                     36
                      A                      A                      A
 Frequencies --    620.6481               652.2848               697.3357
 Red. masses --      6.5746                 6.0891                 9.5035
 Frc consts  --      1.4922                 1.5264                 2.7228
 IR Inten    --     19.8679                 0.0000                38.4263

                     37                     38                     39
                      A                      A                      A
 Frequencies --    697.8915               698.7338               749.6156
 Red. masses --      2.7129                 7.2320                10.1875
 Frc consts  --      0.7785                 2.0803                 3.3728
 IR Inten    --     46.9392                 0.0134                 0.5266

                     40                     41                     42
                      A                      A                      A
 Frequencies --    756.8341               761.7580               787.7234
 Red. masses --      1.4773                 8.7037                 1.6696
 Frc consts  --      0.4986                 2.9757                 0.6104
 IR Inten    --      0.0001                 0.0000                39.6104

                     43                     44                     45
                      A                      A                      A
 Frequencies --    806.8492               813.2246               924.5398
 Red. masses --      4.2772                 6.8915                 1.3132
 Frc consts  --      1.6406                 2.6852                 0.6613
 IR Inten    --      0.0001                 2.2429                 0.0001

                     46                     47                     48
                      A                      A                      A
 Frequencies --    925.5368               927.0611               938.7605
 Red. masses --      7.3838                 1.3123                10.3188
 Frc consts  --      3.7266                 0.6645                 5.3578
 IR Inten    --      0.0000                 2.7010               117.7747

                     49                     50                     51
                      A                      A                      A
 Frequencies --    960.4271               962.6420               972.6066
 Red. masses --     13.0795                12.2882                 1.2773
 Frc consts  --      7.1084                 6.7092                 0.7119
 IR Inten    --      0.0002               598.3021                 0.0000

                     52                     53                     54
                      A                      A                      A
 Frequencies --    974.6896              1070.7777              1075.3611
 Red. masses --      1.2934                 3.1170                 2.9415
 Frc consts  --      0.7240                 2.1057                 2.0042
 IR Inten    --      3.7072                 0.0001               315.8248

                     55                     56                     57
                      A                      A                      A
 Frequencies --   1101.4995              1104.2354              1104.8463
 Red. masses --      7.7165                 4.3904                 2.9992
 Frc consts  --      5.5162                 3.1541                 2.1570
 IR Inten    --      0.0002               119.1347                86.6809

                     58                     59                     60
                      A                      A                      A
 Frequencies --   1112.6450              1158.8135              1164.9196
 Red. masses --      2.7365                 2.6544                20.7006
 Frc consts  --      1.9960                 2.1001                16.5510
 IR Inten    --      0.0000                40.7160                 0.0007

                     61                     62                     63
                      A                      A                      A
 Frequencies --   1165.9944              1173.9047              1181.1420
 Red. masses --     20.7083                 1.5216                 2.0689
 Frc consts  --     16.5877                 1.2354                 1.7006
 IR Inten    --    632.6701                 0.0000                 0.0000

                     64                     65                     66
                      A                      A                      A
 Frequencies --   1188.8918              1224.2093              1304.8509
 Red. masses --      2.3007                 2.3181                 2.9305
 Frc consts  --      1.9160                 2.0469                 2.9398
 IR Inten    --     90.8146               195.4567                 0.0000

                     67                     68                     69
                      A                      A                      A
 Frequencies --   1314.4048              1342.3459              1358.3374
 Red. masses --      7.6911                 5.7148                 3.5475
 Frc consts  --      7.8288                 6.0671                 3.8565
 IR Inten    --     40.1580                 0.0000               359.0575

                     70                     71                     72
                      A                      A                      A
 Frequencies --   1417.1498              1418.6435              1457.7562
 Red. masses --      4.0027                 2.2619                 2.6546
 Frc consts  --      4.7363                 2.6820                 3.3236
 IR Inten    --      0.0000               103.7249                 0.0000

                     73                     74                     75
                      A                      A                      A
 Frequencies --   1518.6024              1540.9808              1551.0276
 Red. masses --      4.7943                 7.7090                 5.5312
 Frc consts  --      6.5143                10.7855                 7.8398
 IR Inten    --    604.0137                 0.0001                74.9086

                     76                     77                     78
                      A                      A                      A
 Frequencies --   1591.4493              1612.6947              1613.6173
 Red. masses --      5.7380                 8.2742                 7.0879
 Frc consts  --      8.5625                12.6788                10.8735
 IR Inten    --      0.0000                 0.0000                59.0725

                     79                     80                     81
                      A                      A                      A
 Frequencies --   3099.5442              3099.9445              3176.1620
 Red. masses --      1.0868                 1.0868                 1.0907
 Frc consts  --      6.1514                 6.1536                 6.4829
 IR Inten    --    195.9911                 0.0033                45.8840

                     82                     83                     84
                      A                      A                      A
 Frequencies --   3176.4883              3191.8392              3191.9953
 Red. masses --      1.0907                 1.0895                 1.0896
 Frc consts  --      6.4842                 6.5397                 6.5410
 IR Inten    --      0.0005                14.3162                 0.0073

 - Thermochemistry -
 -------------------
 Temperature   298.150 Kelvin.  Pressure   1.00000 Atm.
 Atom     1 has atomic number  6 and mass  12.00000

 Molecular mass:   365.95041 amu.
 Principal axes and moments of inertia in atomic units:
                           1         2         3
     Eigenvalues --  3559.66960********************
           X           -0.58960  -0.65907   0.46690
           Y           -0.27023   0.70571   0.65494
           Z            0.76115  -0.25998   0.59419
 This molecule is an asymmetric top.
 Rotational symmetry number  1.
 Warning -- assumption of classical behavior for rotation
           may cause significant error
 Rotational temperatures (Kelvin)      0.02433     0.00562     0.00474
 Rotational constants (GHZ):           0.50700     0.11701     0.09885
 Zero-point vibrational energy     472082.2 (Joules/Mol)
                                  112.83036 (Kcal/Mol)
 Warning -- explicit consideration of  34 degrees of freedom as
           vibrations may cause significant error
 Vibrational temperatures:      4.28    42.48    45.00   117.60   123.65
          (Kelvin)            148.06   174.55   206.76   245.76   250.10
                              302.82   313.96   343.33   392.97   411.82
                              432.90   462.86   505.06   517.84   567.37
                              574.11   587.20   665.65   690.77   705.96
                              715.80   716.99   725.28   750.57   802.15
                              820.81   854.86   875.98   892.97   938.49
                             1003.31  1004.11  1005.32  1078.53  1088.92
                             1096.00  1133.36  1160.88  1170.05  1330.21
                             1331.64  1333.83  1350.67  1381.84  1385.03
                             1399.36  1402.36  1540.61  1547.20  1584.81
                             1588.75  1589.63  1600.85  1667.27  1676.06
                             1677.61  1688.99  1699.40  1710.55  1761.36
                             1877.39  1891.14  1931.34  1954.34  2038.96
                             2041.11  2097.39  2184.93  2217.13  2231.58
                             2289.74  2320.31  2321.64  4459.55  4460.13
                             4569.79  4570.26  4592.34  4592.57

 Zero-point correction=                           0.179807 (Hartree/Particle)
 Thermal correction to Energy=                    0.199213
 Thermal correction to Enthalpy=                  0.200157
 Thermal correction to Gibbs Free Energy=         0.127832
 Sum of electronic and zero-point Energies=          -1935.309662
 Sum of electronic and thermal Energies=             -1935.290256
 Sum of electronic and thermal Enthalpies=           -1935.289312
 Sum of electronic and thermal Free Energies=        -1935.361637

                     E (Thermal)             CV                S
                      KCal/Mol        Cal/Mol-Kelvin    Cal/Mol-Kelvin
 Total                  125.008             74.632            152.220
 Electronic               0.000              0.000              1.377
 Translational            0.889              2.981             43.585
 Rotational               0.889              2.981             35.259
 Vibrational            123.230             68.670             71.998
 Vibration     1          0.592              1.987             10.418
 Vibration     2          0.593              1.984              5.861
 Vibration     3          0.594              1.983              5.747
 Vibration     4          0.600              1.962              3.849
 Vibration     5          0.601              1.959              3.750
 Vibration     6          0.605              1.947              3.399
 Vibration     7          0.609              1.931              3.079
 Vibration     8          0.616              1.909              2.754
 Vibration     9          0.626              1.878              2.427
 Vibration    10          0.627              1.875              2.394
 Vibration    11          0.643              1.825              2.040
 Vibration    12          0.646              1.813              1.974
 Vibration    13          0.657              1.781              1.813
 Vibration    14          0.676              1.723              1.576
 Vibration    15          0.684              1.699              1.496
 Vibration    16          0.693              1.672              1.412
 Vibration    17          0.707              1.632              1.301
 Vibration    18          0.728              1.573              1.162
 Vibration    19          0.734              1.555              1.122
 Vibration    20          0.761              1.482              0.984
 Vibration    21          0.765              1.472              0.966
 Vibration    22          0.773              1.453              0.933
 Vibration    23          0.820              1.333              0.758
 Vibration    24          0.836              1.294              0.710
 Vibration    25          0.846              1.271              0.682
 Vibration    26          0.853              1.256              0.664
 Vibration    27          0.854              1.254              0.662
 Vibration    28          0.859              1.241              0.648
 Vibration    29          0.877              1.202              0.606
 Vibration    30          0.913              1.123              0.529
 Vibration    31          0.927              1.095              0.503
 Vibration    32          0.952              1.044              0.460
 Vibration    33          0.968              1.013              0.435
 Vibration    34          0.981              0.988              0.415

                           ! Non-Optimized Parameters !
 Normal termination of Gaussian 16 at Tue Jan  9 01:04:38 2024.
