 Gaussian 16, Revision A.03,
 Gaussian 16:  ES64L-G16RevA.03 25-Dec-2016

 ----------------------------------------------------------------
 #P UB3LYP/6-311++G(d,p) SCRF=(PCM,Solvent=n,n-DiMethylFormamide)
 ----------------------------------------------------------------

 ------------------
 Radical PCM in DMF
 ------------------
 Symbolic Z-matrix:
 Charge = -3 Multiplicity = 2

                         Standard orientation:
 ---------------------------------------------------------------------
 Center     Atomic      Atomic             Coordinates (Angstroms)
 Number     Number       Type             X           Y           Z
 ---------------------------------------------------------------------
      1          6           0       -0.886838    2.672557   -0.000371
      2          6           0       -2.220041    3.012267    0.000497
      3          6           0       -3.199248    2.001028    0.000743
      4          6           0       -0.481034    1.322511   -0.000848
      5          6           0       -1.467273    0.277766   -0.000337
      6          6           0       -2.857580    0.659253    0.000294
      7          6           0        0.989051    1.105203   -0.002044
      8          6           0        1.467268   -0.277745   -0.001013
      9          6           0        0.481029   -1.322492   -0.000785
     10          6           0       -0.989056   -1.105185   -0.000513
     11          6           0        2.857575   -0.659238   -0.000403
     12          6           0        3.199240   -2.001014   -0.000319
     13          6           0        2.220034   -3.012252   -0.000660
     14          6           0        0.886832   -2.672539   -0.000748
     15          8           0        1.757764    2.088931   -0.002963
     16          8           0       -1.757772   -2.088910   -0.000008
     17         16           0        4.376314    0.453290    0.000917
     18          8           0        5.518856   -0.529456    0.003156
     19          8           0        4.347511    1.239023    1.261422
     20          8           0        4.351095    1.237364   -1.260711
     21         16           0       -4.376302   -0.453302    0.000423
     22          8           0       -5.518888    0.529396    0.000138
     23          8           0       -4.349154   -1.238442   -1.260495
     24          8           0       -4.349401   -1.237979    1.261632
     25          1           0       -0.097795    3.415803   -0.000760
     26          1           0       -2.525696    4.057584    0.000923
     27          1           0       -4.252637    2.248239    0.001221
     28          1           0        4.252630   -2.248227    0.000242
     29          1           0        2.525690   -4.057568   -0.000639
     30          1           0        0.097788   -3.415783   -0.000741
 ---------------------------------------------------------------------

 SCF Done:  E(UB3LYP) =  -1935.98697857     A.U. after   18 cycles

 The electronic state is 2-A.
 Alpha  occ. eigenvalues --  -89.03297 -89.03297 -19.07716 -19.07715 -19.07715
 Alpha  occ. eigenvalues --  -19.07714 -19.07269 -19.07269 -19.06694 -19.06693
 Alpha  occ. eigenvalues --  -10.22093 -10.22092 -10.19536 -10.19536 -10.18163
 Alpha  occ. eigenvalues --  -10.18162 -10.17235 -10.17234 -10.16885 -10.16885
 Alpha  occ. eigenvalues --  -10.16765 -10.16765 -10.16523 -10.16523  -8.09124
 Alpha  occ. eigenvalues --   -8.09124  -6.05394  -6.05394  -6.05387  -6.05387
 Alpha  occ. eigenvalues --   -6.05310  -6.05310  -1.09142  -1.09141  -1.00096
 Alpha  occ. eigenvalues --   -0.99860  -0.96061  -0.96060  -0.94983  -0.94981
 Alpha  occ. eigenvalues --   -0.85751  -0.84880  -0.78048  -0.75341  -0.75225
 Alpha  occ. eigenvalues --   -0.73551  -0.66571  -0.64297  -0.61600  -0.61460
 Alpha  occ. eigenvalues --   -0.59420  -0.55006  -0.53243  -0.52885  -0.51395
 Alpha  occ. eigenvalues --   -0.47874  -0.46940  -0.46290  -0.45664  -0.44794
 Alpha  occ. eigenvalues --   -0.44639  -0.43825  -0.43800  -0.43410  -0.43159
 Alpha  occ. eigenvalues --   -0.41775  -0.40872  -0.40159  -0.40050  -0.37737
 Alpha  occ. eigenvalues --   -0.36908  -0.36639  -0.36456  -0.35333  -0.34149
 Alpha  occ. eigenvalues --   -0.33910  -0.32151  -0.32102  -0.31685  -0.31550
 Alpha  occ. eigenvalues --   -0.29605  -0.29112  -0.28229  -0.27964  -0.27368
 Alpha  occ. eigenvalues --   -0.27289  -0.26383  -0.24941  -0.24878  -0.24635
 Alpha  occ. eigenvalues --   -0.23980  -0.23857  -0.23247  -0.22719  -0.13542
 Alpha virt. eigenvalues --   -0.05417  -0.01974  -0.00965   0.00349   0.00996
 Alpha virt. eigenvalues --    0.01986   0.02691   0.02956   0.04118   0.04432
 Alpha virt. eigenvalues --    0.04852   0.05236   0.05395   0.05553   0.05731

  Beta  occ. eigenvalues --  -89.03297 -89.03297 -19.07712 -19.07712 -19.07711
  Beta  occ. eigenvalues --  -19.07711 -19.07263 -19.07263 -19.06111 -19.06110
  Beta  occ. eigenvalues --  -10.21948 -10.21947 -10.19512 -10.19512 -10.18075
  Beta  occ. eigenvalues --  -10.18075 -10.17140 -10.17139 -10.16822 -10.16822
  Beta  occ. eigenvalues --  -10.16743 -10.16743 -10.16545 -10.16545  -8.09125
  Beta  occ. eigenvalues --   -8.09125  -6.05395  -6.05395  -6.05387  -6.05387
  Beta  occ. eigenvalues --   -6.05312  -6.05312  -1.09136  -1.09135  -0.99100
  Beta  occ. eigenvalues --   -0.98840  -0.96054  -0.96053  -0.94971  -0.94968
  Beta  occ. eigenvalues --   -0.85493  -0.84765  -0.77645  -0.75112  -0.75103
  Beta  occ. eigenvalues --   -0.73350  -0.65840  -0.64184  -0.61535  -0.61210
  Beta  occ. eigenvalues --   -0.59268  -0.54919  -0.53044  -0.52737  -0.51262
  Beta  occ. eigenvalues --   -0.47619  -0.46895  -0.46185  -0.45543  -0.44687
  Beta  occ. eigenvalues --   -0.44602  -0.43798  -0.43784  -0.43377  -0.43114
  Beta  occ. eigenvalues --   -0.40556  -0.40513  -0.39809  -0.39738  -0.36783
  Beta  occ. eigenvalues --   -0.36434  -0.36376  -0.35412  -0.35142  -0.34015
  Beta  occ. eigenvalues --   -0.32871  -0.32109  -0.31967  -0.31670  -0.31532
  Beta  occ. eigenvalues --   -0.29442  -0.28888  -0.28191  -0.27925  -0.27323
  Beta  occ. eigenvalues --   -0.27245  -0.24724  -0.24531  -0.24169  -0.24077
  Beta  occ. eigenvalues --   -0.23857  -0.23444  -0.22754  -0.22205
  Beta virt. eigenvalues --   -0.07589  -0.04558  -0.00896  -0.00755   0.00364
  Beta virt. eigenvalues --    0.00997   0.01993   0.02706   0.02962   0.04140
  Beta virt. eigenvalues --    0.04507   0.04854   0.05239   0.05423   0.05747

 Mulliken charges and spin densities:
               1          2
     1  C   -0.221061   0.005141
     2  C   -0.454633   0.052015
     3  C    0.375628   0.014709
     4  C    0.779021   0.049666
     5  C    0.323422   0.070362
     6  C   -1.056770   0.029370
     7  C   -0.860918   0.059027
     8  C    0.323582   0.070356
     9  C    0.778911   0.049659
    10  C   -0.860798   0.059025
    11  C   -1.056685   0.029370
    12  C    0.375325   0.014704
    13  C   -0.454619   0.052017
    14  C   -0.221074   0.005138
    15  O   -0.370999   0.219076
    16  O   -0.371003   0.219075
    17  S    0.645932   0.005415
    18  O   -0.425402   0.000763
    19  O   -0.413494   0.000072
    20  O   -0.413281   0.000083
    21  S    0.645969   0.005415
    22  O   -0.425397   0.000763
    23  O   -0.413444   0.000076
    24  O   -0.413355   0.000079
    25  H    0.160360  -0.000553
    26  H    0.194172  -0.003756
    27  H    0.238039  -0.001380
    28  H    0.238040  -0.001380
    29  H    0.194172  -0.003757
    30  H    0.160361  -0.000553
 Sum of Mulliken charges =  -3.00000   1.00000

 Dipole moment (field-independent basis, Debye):
    X=              0.0001    Y=              0.0002    Z=             -0.0034  Tot=              0.0034
 Quadrupole moment (field-independent basis, Debye-Ang):
   XX=           -431.1077   YY=           -186.8828   ZZ=           -179.4723
   XY=            -50.9797   XZ=             -0.0092   YZ=              0.0171

 Normal termination of Gaussian 16 at Tue Jan 16 20:40:55 2024.
