 Q-Chem 5.4, Q-Chem, Inc., Pleasanton, CA (2021)
 Q-Chem 5.4.0 for Intel X86 EM64T Linux

User input:
--------------------------------------------------------------
$molecule
-2 1
C                  5.9024280000     -5.2110920000      1.1205530000
C                  6.7903910000     -5.0839110000      0.0788610000
C                  6.5770690000     -4.0905330000     -0.9148510000
C                  4.7675890000     -4.3783030000      1.2427240000
C                  4.5492120000     -3.3611970000      0.2253580000
C                  5.4837970000     -3.2615140000     -0.8296050000
C                  3.8675640000     -4.5663820000      2.3706630000
C                  2.7764980000     -3.6576260000      2.3573070000
C                  2.5651150000     -2.6730530000      1.3725050000
C                  3.4135840000     -2.4517540000      0.2555530000
O                  4.0599510000     -5.4712170000      3.2775290000
O                  3.2170870000     -1.5456080000     -0.6491250000
H                  6.0410600000     -5.9606410000      1.8927420000
H                  5.2967590000     -2.4947300000     -1.5741640000
Cl                 7.7183690000     -3.9005840000     -2.2855860000
Cl                 8.2078600000     -6.1799290000     -0.0054100000
H                  2.0629170000     -3.7458710000      3.1777080000
H                  1.6929970000     -2.0228550000      1.4542890000
$end

$rem
BASIS  =  6-311++G(d,p)
GUI  =  2
JOB_TYPE  =  SP
METHOD  =  B3LYP
SCF_CONVERGENCE  = 8
SOLVENT_METHOD = sm12
$end

$smx
solvent dimethylformamide
charges CM5
$end

--------------------------------------------------------------

             Standard Nuclear Orientation (Angstroms)
    I     Atom           X                Y                Z
 ----------------------------------------------------------------
    1      C       5.9024280000    -5.2110920000     1.1205530000
    2      C       6.7903910000    -5.0839110000     0.0788610000
    3      C       6.5770690000    -4.0905330000    -0.9148510000
    4      C       4.7675890000    -4.3783030000     1.2427240000
    5      C       4.5492120000    -3.3611970000     0.2253580000
    6      C       5.4837970000    -3.2615140000    -0.8296050000
    7      C       3.8675640000    -4.5663820000     2.3706630000
    8      C       2.7764980000    -3.6576260000     2.3573070000
    9      C       2.5651150000    -2.6730530000     1.3725050000
   10      C       3.4135840000    -2.4517540000     0.2555530000
   11      O       4.0599510000    -5.4712170000     3.2775290000
   12      O       3.2170870000    -1.5456080000    -0.6491250000
   13      H       6.0410600000    -5.9606410000     1.8927420000
   14      H       5.2967590000    -2.4947300000    -1.5741640000
   15      Cl      7.7183690000    -3.9005840000    -2.2855860000
   16      Cl      8.2078600000    -6.1799290000    -0.0054100000
   17      H       2.0629170000    -3.7458710000     3.1777080000
   18      H       1.6929970000    -2.0228550000     1.4542890000
 ----------------------------------------------------------------

   17   -1454.4870036917      6.62e-09  Convergence criterion met
 Total energy in the final basis set =    -1454.7672392593

                    Orbital Energies (a.u.)
 --------------------------------------------------------------

 Alpha MOs
 -- Occupied --
********-101.5588 -19.0274 -19.0274 -10.2380 -10.2376 -10.1893 -10.1893
-10.1809 -10.1808 -10.1661 -10.1658 -10.1461 -10.1457  -9.4716  -9.4716
 -7.2362  -7.2362  -7.2266  -7.2265  -7.2263  -7.2263  -0.9416  -0.9379
 -0.9033  -0.8515  -0.8280  -0.7771  -0.7472  -0.7149  -0.6609  -0.6177
 -0.5968  -0.5541  -0.4961  -0.4920  -0.4653  -0.4388  -0.4356  -0.4126
 -0.4120  -0.4072  -0.3777  -0.3702  -0.3661  -0.3447  -0.3444  -0.3321
 -0.3267  -0.3258  -0.3078  -0.3068  -0.2508  -0.2360  -0.2335  -0.2057
 -0.2035  -0.1280

          Ground-State Mulliken Net Atomic Charges

     Atom                 Charge (a.u.)
  ----------------------------------------
      1 C                    -0.864584
      2 C                     4.148373
      3 C                     4.145252
      4 C                    -2.672008
      5 C                    -2.673726
      6 C                    -0.868511
      7 C                    -1.653988
      8 C                    -1.271350
      9 C                    -1.274551
     10 C                    -1.649793
     11 O                    -0.388748
     12 O                    -0.389430
     13 H                     0.271050
     14 H                     0.271015
     15 Cl                    1.399552
     16 Cl                    1.399370
     17 H                     0.036126
     18 H                     0.035950
  ----------------------------------------
  Sum of atomic charges =    -2.000000

                    Cartesian Multipole Moments
 -----------------------------------------------------------------
    Charge (ESU x 10^10)
                -9.6064
    Dipole Moment (Debye)
         X     -40.2301      Y      35.5711      Z      -9.6230
       Tot      54.5561
    Quadrupole Moments (Debye-Ang)
        XX    -301.7418     XY     164.2861     YY    -267.5456
        XZ     -30.9136     YZ      57.4548     ZZ    -150.7668

 Total job time:  326.80s(wall), 1892.46s(cpu)
        *  Thank you very much for using Q-Chem.  Have a nice day.  *
