 Gaussian 16, Revision A.03,
 Gaussian 16:  ES64L-G16RevA.03 25-Dec-2016

 ----------------------------------------------------------------
 #P UB3LYP/6-311++G(d,p) SCRF=(PCM,Solvent=n,n-DiMethylFormamide)
 ----------------------------------------------------------------

 -------
 Reduced
 -------
 Symbolic Z-matrix:
 Charge = -2 Multiplicity = 1

                         Standard orientation:
 ---------------------------------------------------------------------
 Center     Atomic      Atomic             Coordinates (Angstroms)
 Number     Number       Type             X           Y           Z
 ---------------------------------------------------------------------
      1          6           0        3.151221   -0.616049    1.261471
      2          6           0        2.688986    0.154688   -0.000191
      3          6           0        3.151896   -0.617219   -1.260889
      4          6           0        3.401677    1.521338   -0.000727
      5          6           0        1.148508    0.266404   -0.000362
      6          6           0        0.516815    1.512486    0.000582
      7          6           0       -0.897549    1.750973    0.000875
      8          8           0       -1.413427    2.932794    0.000675
      9          6           0       -1.635384    0.526678    0.000446
     10          6           0       -1.024860   -0.741586   -0.000437
     11         17           0       -2.039222   -2.218972    0.000799
     12          6           0        0.386466   -0.965950   -0.000600
     13          8           0        0.922587   -2.147950   -0.000316
     14         17           0       -3.421973    0.675390   -0.001058
     15          1           0        2.642012   -1.582082    1.289828
     16          1           0        4.242575   -0.769179    1.251414
     17          1           0        2.893649   -0.048691    2.163594
     18          1           0        2.642870   -1.583370   -1.288370
     19          1           0        4.243248   -0.769998   -1.250000
     20          1           0        2.894680   -0.050785   -2.163689
     21          1           0        4.489398    1.364572   -0.000783
     22          1           0        3.143898    2.113167    0.883169
     23          1           0        3.143669    2.112446   -0.885066
     24          1           0        1.104378    2.425490    0.000410
 ---------------------------------------------------------------------

 SCF Done:  E(UB3LYP) =  -1458.37438411     A.U. after   17 cycles

 The electronic state is 1-A.
 Alpha  occ. eigenvalues -- -101.52795-101.52722 -19.02037 -19.01438 -10.18904
 Alpha  occ. eigenvalues --  -10.18791 -10.18110 -10.17988 -10.16540 -10.14155
 Alpha  occ. eigenvalues --  -10.13916 -10.13287 -10.13284 -10.12600  -9.44231
 Alpha  occ. eigenvalues --   -9.44161  -7.20632  -7.20564  -7.19769  -7.19703
 Alpha  occ. eigenvalues --   -7.19701  -7.19626  -0.93848  -0.93213  -0.85063
 Alpha  occ. eigenvalues --   -0.81261  -0.80385  -0.75962  -0.67976  -0.66754
 Alpha  occ. eigenvalues --   -0.66129  -0.64926  -0.56997  -0.54027  -0.50213
 Alpha  occ. eigenvalues --   -0.45741  -0.44420  -0.42502  -0.41784  -0.40904
 Alpha  occ. eigenvalues --   -0.40242  -0.38910  -0.36890  -0.36857  -0.36415
 Alpha  occ. eigenvalues --   -0.35270  -0.34767  -0.33582  -0.33035  -0.31703
 Alpha  occ. eigenvalues --   -0.31561  -0.30692  -0.30350  -0.29769  -0.29248
 Alpha  occ. eigenvalues --   -0.27794  -0.22612  -0.20772  -0.20235  -0.19387
 Alpha  occ. eigenvalues --   -0.12426
 Alpha virt. eigenvalues --   -0.00236   0.00445   0.01763   0.01893   0.02379
 Alpha virt. eigenvalues --    0.02791   0.03300   0.04355   0.04413   0.04796
 Alpha virt. eigenvalues --    0.05096   0.05689   0.06570   0.06741   0.06996

  Beta  occ. eigenvalues -- -101.52795-101.52722 -19.02037 -19.01438 -10.18904
  Beta  occ. eigenvalues --  -10.18791 -10.18110 -10.17988 -10.16540 -10.14155
  Beta  occ. eigenvalues --  -10.13916 -10.13287 -10.13284 -10.12600  -9.44231
  Beta  occ. eigenvalues --   -9.44161  -7.20632  -7.20564  -7.19769  -7.19703
  Beta  occ. eigenvalues --   -7.19701  -7.19626  -0.93848  -0.93213  -0.85063
  Beta  occ. eigenvalues --   -0.81261  -0.80385  -0.75962  -0.67976  -0.66754
  Beta  occ. eigenvalues --   -0.66129  -0.64926  -0.56997  -0.54027  -0.50213
  Beta  occ. eigenvalues --   -0.45741  -0.44420  -0.42502  -0.41784  -0.40904
  Beta  occ. eigenvalues --   -0.40242  -0.38910  -0.36890  -0.36857  -0.36415
  Beta  occ. eigenvalues --   -0.35270  -0.34767  -0.33582  -0.33035  -0.31703
  Beta  occ. eigenvalues --   -0.31561  -0.30692  -0.30350  -0.29769  -0.29248
  Beta  occ. eigenvalues --   -0.27794  -0.22612  -0.20772  -0.20235  -0.19387
  Beta  occ. eigenvalues --   -0.12426
  Beta virt. eigenvalues --   -0.00236   0.00445   0.01763   0.01893   0.02379
  Beta virt. eigenvalues --    0.02791   0.03300   0.04355   0.04413   0.04796
  Beta virt. eigenvalues --    0.05096   0.05689   0.06570   0.06741   0.06996

 Mulliken charges and spin densities:
               1          2
     1  C   -0.687525   0.000000
     2  C    0.557243   0.000000
     3  C   -0.686715   0.000000
     4  C   -0.511302  -0.000000
     5  C    0.433400  -0.000000
     6  C   -0.482826   0.000000
     7  C   -0.868681  -0.000000
     8  O   -0.665557   0.000000
     9  C    0.651387  -0.000000
    10  C    0.071610   0.000000
    11  Cl   0.260404  -0.000000
    12  C   -1.154578   0.000000
    13  O   -0.588107  -0.000000
    14  Cl   0.233601   0.000000
    15  H    0.185021  -0.000000
    16  H    0.132084  -0.000000
    17  H    0.116736  -0.000000
    18  H    0.185058  -0.000000
    19  H    0.132139  -0.000000
    20  H    0.116667  -0.000000
    21  H    0.161404   0.000000
    22  H    0.124380   0.000000
    23  H    0.124382  -0.000000
    24  H    0.159775   0.000000
 Sum of Mulliken charges =  -2.00000   0.00000

 Dipole moment (field-independent basis, Debye):
    X=              7.2059    Y=             -2.0674    Z=             -0.0010  Tot=              7.4966
 Quadrupole moment (field-independent basis, Debye-Ang):
   XX=           -137.9320   YY=           -162.1048   ZZ=           -108.2187
   XY=             19.7969   XZ=              0.0041   YZ=             -0.0098

 Normal termination of Gaussian 16 at Sun Jan 21 07:32:51 2024.
