 Gaussian 16, Revision A.03,
 Gaussian 16:  ES64L-G16RevA.03 25-Dec-2016

 ----------------------------------------------------------------
 #P UB3LYP/6-311++G(d,p) SCRF=(PCM,Solvent=n,n-DiMethylFormamide)
 ----------------------------------------------------------------

 ------------------
 Quinone PCM in DMF
 ------------------
 Symbolic Z-matrix:
 Charge =  0 Multiplicity = 1

                         Standard orientation:
 ---------------------------------------------------------------------
 Center     Atomic      Atomic             Coordinates (Angstroms)
 Number     Number       Type             X           Y           Z
 ---------------------------------------------------------------------
      1          8           0       -3.258237    2.284296    0.547143
      2          6           0       -2.468043    1.395828    0.267078
      3          6           0       -2.912865   -0.014468    0.131481
      4          6           0       -4.250894   -0.347091    0.368819
      5          6           0       -4.678660   -1.659404    0.214263
      6          6           0       -3.773485   -2.645464   -0.190524
      7          6           0       -2.445279   -2.318218   -0.437159
      8          6           0       -2.002380   -1.002142   -0.268628
      9          6           0       -0.560541   -0.686230   -0.528225
     10          8           0        0.135887   -1.518438   -1.100917
     11          6           0       -0.062680    0.651848   -0.139019
     12          6           0        1.330157    0.994370   -0.183831
     13          6           0        1.660616    2.370542   -0.281300
     14          6           0        0.697285    3.356344   -0.174710
     15          6           0       -0.639332    3.026219    0.044823
     16          6           0       -1.015138    1.689640    0.055811
     17          7           0        2.336244    0.063367   -0.106231
     18          6           0        2.196578   -1.169105    0.683520
     19          6           0        3.465277   -1.428969    1.499824
     20          6           0        4.691118   -1.641451    0.586876
     21          6           0        4.533079   -0.853417   -0.729980
     22          6           0        3.699035    0.412657   -0.531193
     23          1           0       -4.933678    0.439226    0.666291
     24          1           0       -5.714828   -1.917837    0.401211
     25          1           0       -4.108786   -3.669112   -0.315222
     26          1           0       -1.732484   -3.065987   -0.761279
     27          1           0        2.695636    2.664759   -0.382104
     28          1           0        0.997437    4.397353   -0.224273
     29          1           0       -1.398108    3.783700    0.188454
     30          1           0        1.967606   -2.018973    0.033649
     31          1           0        1.339829   -1.045719    1.349904
     32          1           0        3.300201   -2.302455    2.136532
     33          1           0        3.635868   -0.581369    2.171828
     34          1           0        4.816324   -2.704222    0.361061
     35          1           0        5.597991   -1.326232    1.111613
     36          1           0        5.508787   -0.575253   -1.137134
     37          1           0        4.040422   -1.472109   -1.485675
     38          1           0        3.637210    0.965660   -1.471343
     39          1           0        4.192577    1.069211    0.202735
 ---------------------------------------------------------------------

 SCF Done:  E(UB3LYP) =  -939.721649514     A.U. after   15 cycles

 The electronic state is 1-A.
 Alpha  occ. eigenvalues --  -19.12569 -19.11673 -14.34693 -10.27783 -10.27248
 Alpha  occ. eigenvalues --  -10.24086 -10.20816 -10.20419 -10.20326 -10.20245
 Alpha  occ. eigenvalues --  -10.20220 -10.20039 -10.19619 -10.19521 -10.19460
 Alpha  occ. eigenvalues --  -10.19323 -10.19321 -10.18915 -10.18392 -10.17209
 Alpha  occ. eigenvalues --  -10.17037 -10.16813  -1.06105  -1.05257  -0.96592
 Alpha  occ. eigenvalues --   -0.88766  -0.87214  -0.81347  -0.80514  -0.77475
 Alpha  occ. eigenvalues --   -0.77121  -0.76076  -0.75551  -0.68761  -0.67535
 Alpha  occ. eigenvalues --   -0.65580  -0.64956  -0.62919  -0.60518  -0.58074
 Alpha  occ. eigenvalues --   -0.55831  -0.55596  -0.54133  -0.51589  -0.51106
 Alpha  occ. eigenvalues --   -0.49588  -0.48829  -0.48241  -0.47707  -0.45298
 Alpha  occ. eigenvalues --   -0.44998  -0.44956  -0.44751  -0.44260  -0.44130
 Alpha  occ. eigenvalues --   -0.42863  -0.42163  -0.41366  -0.41158  -0.39508
 Alpha  occ. eigenvalues --   -0.39074  -0.38468  -0.38324  -0.37275  -0.37112
 Alpha  occ. eigenvalues --   -0.36485  -0.36297  -0.34050  -0.32992  -0.32302
 Alpha  occ. eigenvalues --   -0.29625  -0.28375  -0.28133  -0.27577  -0.27042
 Alpha  occ. eigenvalues --   -0.26628  -0.21427
 Alpha virt. eigenvalues --   -0.11016  -0.06470  -0.03414  -0.01827  -0.01103
 Alpha virt. eigenvalues --   -0.00124   0.00325   0.01093   0.01322   0.01595
 Alpha virt. eigenvalues --    0.02077   0.02830   0.03230   0.03401   0.03634

  Beta  occ. eigenvalues --  -19.12569 -19.11673 -14.34693 -10.27783 -10.27248
  Beta  occ. eigenvalues --  -10.24086 -10.20816 -10.20419 -10.20326 -10.20245
  Beta  occ. eigenvalues --  -10.20220 -10.20039 -10.19619 -10.19521 -10.19460
  Beta  occ. eigenvalues --  -10.19323 -10.19321 -10.18915 -10.18392 -10.17209
  Beta  occ. eigenvalues --  -10.17037 -10.16813  -1.06105  -1.05257  -0.96592
  Beta  occ. eigenvalues --   -0.88766  -0.87214  -0.81347  -0.80514  -0.77475
  Beta  occ. eigenvalues --   -0.77121  -0.76076  -0.75551  -0.68761  -0.67535
  Beta  occ. eigenvalues --   -0.65580  -0.64956  -0.62919  -0.60518  -0.58074
  Beta  occ. eigenvalues --   -0.55831  -0.55596  -0.54133  -0.51589  -0.51106
  Beta  occ. eigenvalues --   -0.49588  -0.48829  -0.48241  -0.47707  -0.45298
  Beta  occ. eigenvalues --   -0.44998  -0.44956  -0.44751  -0.44260  -0.44130
  Beta  occ. eigenvalues --   -0.42863  -0.42163  -0.41366  -0.41158  -0.39508
  Beta  occ. eigenvalues --   -0.39074  -0.38468  -0.38324  -0.37275  -0.37112
  Beta  occ. eigenvalues --   -0.36485  -0.36297  -0.34050  -0.32992  -0.32302
  Beta  occ. eigenvalues --   -0.29625  -0.28375  -0.28133  -0.27577  -0.27042
  Beta  occ. eigenvalues --   -0.26628  -0.21427
  Beta virt. eigenvalues --   -0.11016  -0.06470  -0.03414  -0.01827  -0.01103
  Beta virt. eigenvalues --   -0.00124   0.00325   0.01093   0.01322   0.01595
  Beta virt. eigenvalues --    0.02077   0.02830   0.03230   0.03401   0.03634

 Mulliken charges and spin densities:
               1          2
     1  O   -0.288975   0.000000
     2  C   -0.588288  -0.000000
     3  C    0.369978   0.000000
     4  C    0.111525  -0.000000
     5  C   -0.599688   0.000000
     6  C   -0.462849   0.000000
     7  C   -0.001601  -0.000000
     8  C    0.352211   0.000000
     9  C   -0.517149   0.000000
    10  O   -0.295203   0.000000
    11  C    0.192351  -0.000000
    12  C    0.004459  -0.000000
    13  C   -0.109252   0.000000
    14  C   -0.418784   0.000000
    15  C   -0.013230   0.000000
    16  C    0.418809  -0.000000
    17  N    0.466553   0.000000
    18  C   -0.223226   0.000000
    19  C   -0.546336  -0.000000
    20  C   -0.489309  -0.000000
    21  C   -0.444706   0.000000
    22  C   -0.093626  -0.000000
    23  H    0.198147  -0.000000
    24  H    0.201145  -0.000000
    25  H    0.206705   0.000000
    26  H    0.191832  -0.000000
    27  H    0.183404  -0.000000
    28  H    0.222232   0.000000
    29  H    0.181361  -0.000000
    30  H    0.207280  -0.000000
    31  H    0.176647   0.000000
    32  H    0.182967  -0.000000
    33  H    0.178527   0.000000
    34  H    0.156918  -0.000000
    35  H    0.155021   0.000000
    36  H    0.185989   0.000000
    37  H    0.180187  -0.000000
    38  H    0.191234  -0.000000
    39  H    0.176743   0.000000
 Sum of Mulliken charges =  -0.00000   0.00000

 Dipole moment (field-independent basis, Debye):
    X=              4.6354    Y=             -1.6798    Z=              1.2140  Tot=              5.0777
 Quadrupole moment (field-independent basis, Debye-Ang):
   XX=           -108.7239   YY=           -123.8061   ZZ=           -133.9980
   XY=             18.7042   XZ=              1.7992   YZ=             -5.8317

 Normal termination of Gaussian 16 at Tue Jan 16 05:21:35 2024.
