 Q-Chem 5.4, Q-Chem, Inc., Pleasanton, CA (2021)
 Q-Chem 5.4.0 for Intel X86 EM64T Linux

User input:
--------------------------------------------------------------
$molecule
-1 2
F                 -2.6856650000      0.5458980000     -0.0153840000
C                 -1.3599900000      0.2741120000     -0.0077710000
C                 -0.4668710000      1.3064420000     -0.0174240000
F                 -0.9263630000      2.5790000000     -0.0343900000
C                  0.9714350000      1.1226160000     -0.0105060000
O                  1.7905830000      2.0693880000     -0.0193490000
C                  1.3599400000     -0.2742210000      0.0077710000
C                  0.4669050000     -1.3063810000      0.0174210000
F                  0.9263040000     -2.5789410000      0.0343960000
C                 -0.9713420000     -1.1225500000      0.0104930000
O                 -1.7906080000     -2.0694490000      0.0193520000
F                  2.6856720000     -0.5459130000      0.0153910000
$end
$rem
MAX_SCF_CYCLES=200
BASIS  =  6-311++G(d,p)
GUI  =  2
JOB_TYPE  =  SP
METHOD  =  B3LYP
SOLVENT_METHOD = COSMO
$end
$solvent
dielectric 37.219
opticaldielectric 1.43
$end

--------------------------------------------------------------

             Standard Nuclear Orientation (Angstroms)
    I     Atom           X                Y                Z
 ----------------------------------------------------------------
    1      F       2.3884538808     1.3439914764     0.0000031696
    2      C       1.2079640540     0.6823393308    -0.0000076542
    3      C       1.2078564025    -0.6827467272    -0.0000076682
    4      F       2.3879647308    -1.3446900329     0.0000068595
    5      C      -0.0002740406    -1.4846100815    -0.0000099672
    6      O      -0.0004102330    -2.7365920486    -0.0000001682
    7      C      -1.2080013058    -0.6822269804     0.0000054485
    8      C      -1.2078459526     0.6826755345     0.0000042576
    9      F      -2.3878853455     1.3446812569    -0.0000009924
   10      C       0.0002432428     1.4844964389    -0.0000035739
   11      O       0.0003854400     2.7366517634     0.0000014649
   12      F      -2.3884728280    -1.3439874570     0.0000025822
 ----------------------------------------------------------------

    9    -778.7106685241      8.11e-06  Convergence criterion met
 Total energy in the final basis set =     -778.7106685241
    4    -778.7894918795      6.49e-06  Convergence criterion met
 Total energy in the final basis set =     -778.7894918795

                    Orbital Energies (a.u.)
 --------------------------------------------------------------

 Alpha MOs
 -- Occupied --
-24.7086 -24.7086 -24.7085 -24.7085 -19.1096 -19.1095 -10.2732 -10.2731
-10.2725 -10.2725 -10.2607 -10.2607  -1.2528  -1.2521  -1.2390  -1.2384
 -1.0352  -1.0333  -0.8654  -0.7732  -0.7290  -0.6498  -0.6406  -0.5796
 -0.5667  -0.5663  -0.5403  -0.5146  -0.5076  -0.4953  -0.4755  -0.4676
 -0.4654  -0.4489  -0.4399  -0.4174  -0.4096  -0.4048  -0.4013  -0.3994
 -0.3028  -0.2806  -0.2788  -0.2619  -0.1902

 Beta MOs
 -- Occupied --
-24.7083 -24.7083 -24.7082 -24.7082 -19.1025 -19.1024 -10.2721 -10.2721
-10.2715 -10.2715 -10.2592 -10.2592  -1.2521  -1.2514  -1.2383  -1.2377
 -1.0230  -1.0207  -0.8594  -0.7711  -0.7183  -0.6467  -0.6371  -0.5780
 -0.5650  -0.5644  -0.5394  -0.5083  -0.5060  -0.4925  -0.4708  -0.4652
 -0.4601  -0.4446  -0.4358  -0.4162  -0.4035  -0.3982  -0.3897  -0.3707
 -0.2735  -0.2724  -0.2722  -0.2550

          Ground-State Mulliken Net Atomic Charges

     Atom                 Charge (a.u.)    Spin (a.u.)
  --------------------------------------------------------
      1 F                    -0.231669       0.002797
      2 C                     0.156579       0.084454
      3 C                     0.157863       0.084685
      4 F                    -0.231548       0.002813
      5 C                     0.160195       0.066369
      6 O                    -0.511551       0.258860
      7 C                     0.157310       0.084513
      8 C                     0.156649       0.084506
      9 F                    -0.231524       0.002805
     10 C                     0.161018       0.066418
     11 O                    -0.511662       0.258984
     12 F                    -0.231659       0.002798
  --------------------------------------------------------
  Sum of atomic charges =    -1.000000

                    Cartesian Multipole Moments
 -----------------------------------------------------------------
    Charge (ESU x 10^10)
                -4.8032
    Dipole Moment (Debye)
         X      -0.0002      Y      -0.0019      Z      -0.0001
       Tot       0.0019
    Quadrupole Moments (Debye-Ang)
        XX     -81.8419     XY      -0.0098     YY    -108.3350
        XZ      -0.0001     YZ       0.0003     ZZ     -63.8706

 Total job time:  46.97s(wall), 116.83s(cpu)
        *  Thank you very much for using Q-Chem.  Have a nice day.  *
