 Gaussian 16, Revision A.03,
 Gaussian 16:  ES64L-G16RevA.03 25-Dec-2016

 ----------------------------------------------------------------------
 #P UB3LYP/6-311++G(d,p) nosym opt freq SCRF=(PCM,Solvent=n,n-DiMethylF
 ormamide)
 ----------------------------------------------------------------------

 --------
 Oxidized
 --------
 Symbolic Z-matrix:
 Charge =  0 Multiplicity = 1

 SCF Done:  E(UB3LYP) =  -914.717549639     A.U. after   14 cycles
 SCF Done:  E(UB3LYP) =  -914.717699950     A.U. after   12 cycles
 SCF Done:  E(UB3LYP) =  -914.717720559     A.U. after   11 cycles
 SCF Done:  E(UB3LYP) =  -914.717745844     A.U. after   11 cycles
 SCF Done:  E(UB3LYP) =  -914.717746786     A.U. after   10 cycles
 SCF Done:  E(UB3LYP) =  -914.717747856     A.U. after    9 cycles
 SCF Done:  E(UB3LYP) =  -914.717748023     A.U. after    8 cycles
 Optimization completed.
    -- Stationary point found.
 Normal termination of Gaussian 16 at Sat Feb 10 22:22:31 2024.

 ----------------------------------------------------------------------
 #P Geom=AllCheck Guess=TCheck SCRF=Check GenChk UB3LYP/6-311++G(d,p) F
 req
 ----------------------------------------------------------------------

 Structure from the checkpoint file:  "202.chk"
 --------
 Oxidized
 --------
 Charge =  0 Multiplicity = 1

                          Input orientation:
 ---------------------------------------------------------------------
 Center     Atomic      Atomic             Coordinates (Angstroms)
 Number     Number       Type             X           Y           Z
 ---------------------------------------------------------------------
      1          8           0        4.977241    0.578831   -0.652443
      2          6           0        3.710948    0.119140   -0.478378
      3          6           0        3.538208   -1.271639   -0.419245
      4          6           0        2.272156   -1.801731   -0.243506
      5          6           0        1.151283   -0.968555   -0.122435
      6          6           0       -0.191702   -1.577505    0.064939
      7          8           0       -0.304691   -2.799023    0.108798
      8          6           0       -1.356105   -0.660838    0.191543
      9          6           0       -2.658721   -1.147781    0.373452
     10          8           0       -2.903254   -2.479795    0.442609
     11          6           0       -3.736470   -0.244053    0.487607
     12          6           0       -3.545963    1.113941    0.424740
     13          6           0       -2.253884    1.636120    0.243553
     14          8           0       -2.131223    2.972617    0.190150
     15          6           0       -1.157570    0.756565    0.127163
     16          6           0        0.177774    1.330383   -0.059294
     17          8           0        0.348456    2.562671   -0.113559
     18          6           0        1.335837    0.420823   -0.182920
     19          6           0        2.610181    0.964343   -0.360259
     20          1           0        4.988126    1.543897   -0.681181
     21          1           0        4.405117   -1.914451   -0.512863
     22          1           0        2.131412   -2.873785   -0.197147
     23          1           0       -3.849918   -2.623234    0.569315
     24          1           0       -4.737369   -0.639530    0.628446
     25          1           0       -4.379343    1.799727    0.513101
     26          1           0       -1.166154    3.161986    0.061672
     27          1           0        2.725629    2.040875   -0.403854
 ---------------------------------------------------------------------

 SCF Done:  E(UB3LYP) =  -914.717748023     A.U. after    1 cycles

 Alpha  occ. eigenvalues --  -19.17695 -19.17491 -19.16293 -19.14149 -19.12027
 Alpha  occ. eigenvalues --  -10.29116 -10.27941 -10.26906 -10.26788 -10.26590
 Alpha  occ. eigenvalues --  -10.21396 -10.21379 -10.21336 -10.20872 -10.20379
 Alpha  occ. eigenvalues --  -10.20356 -10.20059 -10.19986 -10.19805  -1.09314
 Alpha  occ. eigenvalues --   -1.09087  -1.08956  -1.06103  -1.05332  -0.89525
 Alpha  occ. eigenvalues --   -0.88066  -0.81838  -0.78506  -0.77411  -0.76899
 Alpha  occ. eigenvalues --   -0.69970  -0.68275  -0.66567  -0.63701  -0.60685
 Alpha  occ. eigenvalues --   -0.59326  -0.58373  -0.56150  -0.53829  -0.52082
 Alpha  occ. eigenvalues --   -0.50690  -0.49356  -0.48851  -0.46989  -0.46395
 Alpha  occ. eigenvalues --   -0.45964  -0.45653  -0.44573  -0.44114  -0.43330
 Alpha  occ. eigenvalues --   -0.42962  -0.41889  -0.41494  -0.40376  -0.40069
 Alpha  occ. eigenvalues --   -0.39147  -0.38578  -0.37288  -0.35532  -0.33639
 Alpha  occ. eigenvalues --   -0.29486  -0.29411  -0.28340  -0.26980  -0.25579
 Alpha  occ. eigenvalues --   -0.23709
 Alpha virt. eigenvalues --   -0.12106  -0.06910  -0.03880  -0.01679  -0.00856
 Alpha virt. eigenvalues --   -0.00415   0.00673   0.00965   0.01726   0.03205
 Alpha virt. eigenvalues --    0.03317   0.03737   0.03963   0.03971   0.04398

  Beta  occ. eigenvalues --  -19.17695 -19.17491 -19.16293 -19.14149 -19.12027
  Beta  occ. eigenvalues --  -10.29116 -10.27941 -10.26906 -10.26788 -10.26590
  Beta  occ. eigenvalues --  -10.21396 -10.21379 -10.21336 -10.20872 -10.20379
  Beta  occ. eigenvalues --  -10.20356 -10.20059 -10.19986 -10.19805  -1.09314
  Beta  occ. eigenvalues --   -1.09087  -1.08956  -1.06103  -1.05332  -0.89525
  Beta  occ. eigenvalues --   -0.88066  -0.81838  -0.78506  -0.77411  -0.76899
  Beta  occ. eigenvalues --   -0.69970  -0.68275  -0.66567  -0.63701  -0.60685
  Beta  occ. eigenvalues --   -0.59326  -0.58373  -0.56150  -0.53829  -0.52082
  Beta  occ. eigenvalues --   -0.50690  -0.49356  -0.48851  -0.46989  -0.46395
  Beta  occ. eigenvalues --   -0.45964  -0.45653  -0.44573  -0.44114  -0.43330
  Beta  occ. eigenvalues --   -0.42962  -0.41889  -0.41494  -0.40376  -0.40069
  Beta  occ. eigenvalues --   -0.39147  -0.38578  -0.37288  -0.35532  -0.33639
  Beta  occ. eigenvalues --   -0.29486  -0.29411  -0.28340  -0.26980  -0.25579
  Beta  occ. eigenvalues --   -0.23709
  Beta virt. eigenvalues --   -0.12106  -0.06910  -0.03880  -0.01679  -0.00856
  Beta virt. eigenvalues --   -0.00415   0.00673   0.00965   0.01726   0.03205
  Beta virt. eigenvalues --    0.03317   0.03737   0.03963   0.03971   0.04398

 Mulliken charges and spin densities:
               1          2
     1  O   -0.253277  -0.000000
     2  C   -0.680826  -0.000000
     3  C   -0.155721  -0.000000
     4  C    0.185016  -0.000000
     5  C   -0.256357   0.000000
     6  C   -0.396931   0.000000
     7  O   -0.300704  -0.000000
     8  C    0.314798  -0.000000
     9  C   -0.269421   0.000000
    10  O   -0.211791  -0.000000
    11  C   -0.192829  -0.000000
    12  C   -0.055460   0.000000
    13  C   -0.270004  -0.000000
    14  O   -0.326520  -0.000000
    15  C    0.837701   0.000000
    16  C   -0.381523   0.000000
    17  O   -0.318991   0.000000
    18  C    0.453848   0.000000
    19  C    0.284915   0.000000
    20  H    0.313335  -0.000000
    21  H    0.231383  -0.000000
    22  H    0.186514   0.000000
    23  H    0.303463   0.000000
    24  H    0.201962  -0.000000
    25  H    0.229082   0.000000
    26  H    0.351974   0.000000
    27  H    0.176367   0.000000
 Sum of Mulliken charges =  -0.00000   0.00000

 Dipole moment (field-independent basis, Debye):
    X=             -1.5620    Y=              1.4986    Z=              0.1723  Tot=              2.1714
 Quadrupole moment (field-independent basis, Debye-Ang):
   XX=            -73.1219   YY=           -122.5224   ZZ=           -109.7113
   XY=             12.5218   XZ=             -5.1750   YZ=             -1.3230

  Exact polarizability: 408.830  -1.498 307.172 -37.565  -4.930 120.664
 Approx polarizability: 450.436   7.077 398.615 -40.380  -7.909 142.593

                      1                      2                      3
                      A                      A                      A
 Frequencies --     36.1261                71.9846                96.6487
 Red. masses --      7.9984                 6.3378                 7.0104
 Frc consts  --      0.0062                 0.0193                 0.0386
 IR Inten    --     10.2129                 0.4972                 1.7048

                      4                      5                      6
                      A                      A                      A
 Frequencies --    136.6118               160.8221               175.8586
 Red. masses --      6.6190                 7.6130                 6.8651
 Frc consts  --      0.0728                 0.1160                 0.1251
 IR Inten    --      2.4518                 0.8328                 1.2876

                      7                      8                      9
                      A                      A                      A
 Frequencies --    209.0435               277.4589               295.3923
 Red. masses --      7.0263                 7.5550                 5.4180
 Frc consts  --      0.1809                 0.3427                 0.2785
 IR Inten    --      1.0300                 6.1707                 4.5165

                     10                     11                     12
                      A                      A                      A
 Frequencies --    316.9552               356.9397               368.7068
 Red. masses --      7.6192                 3.6847                10.4719
 Frc consts  --      0.4510                 0.2766                 0.8388
 IR Inten    --      2.1572                 9.1845                 9.5529

                     13                     14                     15
                      A                      A                      A
 Frequencies --    387.8090               395.0880               407.0967
 Red. masses --      1.2563                 1.1277                 5.8929
 Frc consts  --      0.1113                 0.1037                 0.5754
 IR Inten    --     90.3310               208.5608                26.7746

                     16                     17                     18
                      A                      A                      A
 Frequencies --    430.3041               432.4570               442.7503
 Red. masses --      3.5377                 8.4243                 6.1907
 Frc consts  --      0.3859                 0.9283                 0.7150
 IR Inten    --      4.4746                36.6736                19.8951

                     19                     20                     21
                      A                      A                      A
 Frequencies --    457.3142               458.0345               488.2945
 Red. masses --      9.3255                 6.6501                 6.8336
 Frc consts  --      1.1491                 0.8220                 0.9600
 IR Inten    --     25.3172                 5.2083                13.4740

                     22                     23                     24
                      A                      A                      A
 Frequencies --    520.3677               554.2645               584.0908
 Red. masses --      7.1293                 4.5465                 3.5284
 Frc consts  --      1.1374                 0.8229                 0.7092
 IR Inten    --      1.5309                10.4937                28.1570

                     25                     26                     27
                      A                      A                      A
 Frequencies --    595.7180               670.2173               673.6259
 Red. masses --      5.2379                 4.0119                 6.6269
 Frc consts  --      1.0952                 1.0618                 1.7717
 IR Inten    --     23.2748                 6.6337                24.0771

                     28                     29                     30
                      A                      A                      A
 Frequencies --    694.4235               717.5721               736.7522
 Red. masses --      7.4094                 6.1077                 7.3609
 Frc consts  --      2.1051                 1.8529                 2.3541
 IR Inten    --      7.1850                 0.0589                23.1042

                     31                     32                     33
                      A                      A                      A
 Frequencies --    766.4274               786.9393               795.5101
 Red. masses --      3.5503                 5.4502                 1.2727
 Frc consts  --      1.2287                 1.9886                 0.4745
 IR Inten    --      0.8868                 0.0067               206.6698

                     34                     35                     36
                      A                      A                      A
 Frequencies --    840.4683               842.7620               863.2614
 Red. masses --      8.0888                 1.6291                 1.5938
 Frc consts  --      3.3665                 0.6817                 0.6998
 IR Inten    --    134.3934                49.8103                19.1221

                     37                     38                     39
                      A                      A                      A
 Frequencies --    883.6466               894.6560               946.5901
 Red. masses --      7.2790                 1.5014                 6.8500
 Frc consts  --      3.3487                 0.7081                 3.6163
 IR Inten    --     73.8561                21.5657                85.1597

                     40                     41                     42
                      A                      A                      A
 Frequencies --    965.8388               992.3156               998.2625
 Red. masses --      1.3053                 4.3601                 1.3242
 Frc consts  --      0.7174                 2.5296                 0.7775
 IR Inten    --      0.0079                34.4086                 1.0137

                     43                     44                     45
                      A                      A                      A
 Frequencies --   1080.8165              1110.3529              1164.6048
 Red. masses --      2.5182                 2.2578                 1.6403
 Frc consts  --      1.7332                 1.6401                 1.3108
 IR Inten    --    148.6829                38.8431                82.5650

                     46                     47                     48
                      A                      A                      A
 Frequencies --   1181.6026              1191.0219              1220.8800
 Red. masses --      1.3942                 1.3797                 1.9903
 Frc consts  --      1.1469                 1.1531                 1.7479
 IR Inten    --     65.1010               557.5721               233.0063

                     49                     50                     51
                      A                      A                      A
 Frequencies --   1240.9462              1252.7119              1261.4926
 Red. masses --      2.0323                 2.9062                 2.5475
 Frc consts  --      1.8439                 2.6871                 2.3886
 IR Inten    --    299.8285               672.9618               217.5957

                     52                     53                     54
                      A                      A                      A
 Frequencies --   1300.2066              1313.5012              1330.9391
 Red. masses --      2.8381                 4.3595                 2.5260
 Frc consts  --      2.8268                 4.4315                 2.6363
 IR Inten    --    738.1728               401.8113                21.9921

                     55                     56                     57
                      A                      A                      A
 Frequencies --   1373.9691              1385.1048              1406.9433
 Red. masses --      3.2419                 4.7688                 7.2021
 Frc consts  --      3.6058                 5.3905                 8.3997
 IR Inten    --    354.3981                11.9610                64.3331

                     58                     59                     60
                      A                      A                      A
 Frequencies --   1471.9583              1482.6795              1484.1220
 Red. masses --      3.6280                 2.2914                 3.5833
 Frc consts  --      4.6314                 2.9679                 4.6502
 IR Inten    --    372.5148               361.1968                20.8257

                     61                     62                     63
                      A                      A                      A
 Frequencies --   1523.0496              1603.2310              1611.0358
 Red. masses --      3.1351                 6.5717                 5.5272
 Frc consts  --      4.2848                 9.9522                 8.4521
 IR Inten    --     10.5275               127.1542               770.6758

                     64                     65                     66
                      A                      A                      A
 Frequencies --   1617.1811              1624.2049              1658.8730
 Red. masses --      3.7856                 6.4879                 8.1267
 Frc consts  --      5.8332                10.0841                13.1762
 IR Inten    --     18.8862               186.6498               318.4413

                     67                     68                     69
                      A                      A                      A
 Frequencies --   1689.4227              3164.7792              3191.6053
 Red. masses --      9.9818                 1.0909                 1.0907
 Frc consts  --     16.7855                 6.4379                 6.5462
 IR Inten    --    249.6797                13.0439                16.0955

                     70                     71                     72
                      A                      A                      A
 Frequencies --   3192.2086              3202.1252              3208.9319
 Red. masses --      1.0898                 1.0941                 1.0937
 Frc consts  --      6.5430                 6.6096                 6.6352
 IR Inten    --      0.2050                 3.4378                 8.9547

                     73                     74                     75
                      A                      A                      A
 Frequencies --   3242.8616              3789.5883              3805.4946
 Red. masses --      1.0688                 1.0665                 1.0663
 Frc consts  --      6.6222                 9.0236                 9.0982
 IR Inten    --    435.2950               203.3026               189.0679

 - Thermochemistry -
 -------------------
 Temperature   298.150 Kelvin.  Pressure   1.00000 Atm.
 Atom     1 has atomic number  8 and mass  15.99491

 Molecular mass:   256.03717 amu.
 Principal axes and moments of inertia in atomic units:
                           1         2         3
     Eigenvalues --  2587.587966250.688738838.26891
           X            0.99173   0.01715   0.12716
           Y           -0.02071   0.99943   0.02676
           Z           -0.12662  -0.02917   0.99152
 This molecule is an asymmetric top.
 Rotational symmetry number  1.
 Warning -- assumption of classical behavior for rotation
           may cause significant error
 Rotational temperatures (Kelvin)      0.03347     0.01386     0.00980
 Rotational constants (GHZ):           0.69746     0.28873     0.20420
 Zero-point vibrational energy     503052.8 (Joules/Mol)
                                  120.23249 (Kcal/Mol)
 Warning -- explicit consideration of  25 degrees of freedom as
           vibrations may cause significant error
 Vibrational temperatures:     51.98   103.57   139.06   196.55   231.39
          (Kelvin)            253.02   300.77   399.20   425.00   456.03
                              513.56   530.49   557.97   568.44   585.72
                              619.11   622.21   637.02   657.97   659.01
                              702.55   748.69   797.46   840.38   857.11
                              964.29   969.20   999.12  1032.43  1060.02
                             1102.72  1132.23  1144.56  1209.25  1212.55
                             1242.04  1271.37  1287.21  1361.93  1389.63
                             1427.72  1436.28  1555.05  1597.55  1675.61
                             1700.06  1713.61  1756.57  1785.44  1802.37
                             1815.01  1870.71  1889.84  1914.92  1976.84
                             1992.86  2024.28  2117.82  2133.25  2135.32
                             2191.33  2306.69  2317.92  2326.76  2336.87
                             2386.75  2430.70  4553.41  4592.01  4592.88
                             4607.14  4616.94  4665.75  5452.37  5475.26

 Zero-point correction=                           0.191603 (Hartree/Particle)
 Thermal correction to Energy=                    0.206025
 Thermal correction to Enthalpy=                  0.206970
 Thermal correction to Gibbs Free Energy=         0.150382
 Sum of electronic and zero-point Energies=           -914.526145
 Sum of electronic and thermal Energies=              -914.511723
 Sum of electronic and thermal Enthalpies=            -914.510778
 Sum of electronic and thermal Free Energies=         -914.567366

                     E (Thermal)             CV                S
                      KCal/Mol        Cal/Mol-Kelvin    Cal/Mol-Kelvin
 Total                  129.283             58.380            119.099
 Electronic               0.000              0.000              0.000
 Translational            0.889              2.981             42.520
 Rotational               0.889              2.981             33.324
 Vibrational            127.505             52.419             43.254
 Vibration     1          0.594              1.982              5.461
 Vibration     2          0.598              1.967              4.098
 Vibration     3          0.603              1.952              3.521
 Vibration     4          0.614              1.917              2.851
 Vibration     5          0.622              1.890              2.540
 Vibration     6          0.628              1.872              2.372
 Vibration     7          0.642              1.827              2.052
 Vibration     8          0.678              1.715              1.549
 Vibration     9          0.690              1.682              1.443
 Vibration    10          0.704              1.641              1.326
 Vibration    11          0.732              1.561              1.135
 Vibration    12          0.741              1.537              1.085
 Vibration    13          0.756              1.496              1.009
 Vibration    14          0.762              1.481              0.981
 Vibration    15          0.772              1.455              0.937
 Vibration    16          0.791              1.404              0.858
 Vibration    17          0.793              1.400              0.851
 Vibration    18          0.802              1.377              0.818
 Vibration    19          0.815              1.345              0.774
 Vibration    20          0.816              1.343              0.772
 Vibration    21          0.844              1.276              0.688
 Vibration    22          0.875              1.205              0.609
 Vibration    23          0.910              1.130              0.535
 Vibration    24          0.941              1.066              0.478
 Vibration    25          0.953              1.041              0.457

                           ! Non-Optimized Parameters !
 Normal termination of Gaussian 16 at Sat Feb 10 22:57:55 2024.
