 Gaussian 16, Revision A.03,
 Gaussian 16:  ES64L-G16RevA.03 25-Dec-2016

 ----------------------------------------------------------------------
 #P UB3LYP/6-311++G(d,p) nosym opt freq SCRF=(PCM,Solvent=n,n-DiMethylF
 ormamide)
 ----------------------------------------------------------------------

 -------
 Reduced
 -------
 Symbolic Z-matrix:
 Charge = -3 Multiplicity = 1

 SCF Done:  E(UB3LYP) =  -1317.17819846     A.U. after   23 cycles
 SCF Done:  E(UB3LYP) =  -1317.18837441     A.U. after   16 cycles
 SCF Done:  E(UB3LYP) =  -1317.19001144     A.U. after   16 cycles
 SCF Done:  E(UB3LYP) =  -1317.19033258     A.U. after   12 cycles
 SCF Done:  E(UB3LYP) =  -1317.19036958     A.U. after   13 cycles
 SCF Done:  E(UB3LYP) =  -1317.19039732     A.U. after   15 cycles
 SCF Done:  E(UB3LYP) =  -1317.19041655     A.U. after   13 cycles
 SCF Done:  E(UB3LYP) =  -1317.19034932     A.U. after   17 cycles
 SCF Done:  E(UB3LYP) =  -1317.19046946     A.U. after   15 cycles
 SCF Done:  E(UB3LYP) =  -1317.19045523     A.U. after   14 cycles
 SCF Done:  E(UB3LYP) =  -1317.19058378     A.U. after   12 cycles
 SCF Done:  E(UB3LYP) =  -1317.19065192     A.U. after   14 cycles
 SCF Done:  E(UB3LYP) =  -1317.19066153     A.U. after   14 cycles
 SCF Done:  E(UB3LYP) =  -1317.19067418     A.U. after   13 cycles
 SCF Done:  E(UB3LYP) =  -1317.19068070     A.U. after   13 cycles
 SCF Done:  E(UB3LYP) =  -1317.19068251     A.U. after   14 cycles
 SCF Done:  E(UB3LYP) =  -1317.19068353     A.U. after   11 cycles
 SCF Done:  E(UB3LYP) =  -1317.19068381     A.U. after   12 cycles
 SCF Done:  E(UB3LYP) =  -1317.19068396     A.U. after   12 cycles
 Optimization completed.
    -- Stationary point found.
 Normal termination of Gaussian 16 at Sun Feb 11 21:29:05 2024.

 ----------------------------------------------------------------------
 #P Geom=AllCheck Guess=TCheck SCRF=Check GenChk UB3LYP/6-311++G(d,p) F
 req
 ----------------------------------------------------------------------

 Structure from the checkpoint file:  "342-an.chk"
 -------
 Reduced
 -------
 Charge = -3 Multiplicity = 1

                          Input orientation:
 ---------------------------------------------------------------------
 Center     Atomic      Atomic             Coordinates (Angstroms)
 Number     Number       Type             X           Y           Z
 ---------------------------------------------------------------------
      1          6           0       -3.510374    2.403035    1.097445
      2          6           0       -4.217439    2.296145    2.287357
      3          6           0       -3.818586    1.390499    3.277791
      4          6           0       -2.345881    1.603149    0.823192
      5          6           0       -1.944346    0.672878    1.846104
      6          6           0       -2.677780    0.593332    3.022788
      7          6           0       -1.648053    1.760587   -0.413774
      8          6           0       -0.491723    0.963505   -0.633971
      9          6           0       -0.000490   -0.008114    0.313911
     10          6           0       -0.725119   -0.253009    1.652952
     11          6           0        0.259023    1.109943   -1.858508
     12          6           0        1.385387    0.347465   -2.112769
     13          6           0        1.859098   -0.601075   -1.196779
     14          6           0        1.132299   -0.746809    0.009091
     15          8           0       -2.065562    2.643238   -1.325540
     16         16           0        2.343376    0.650024   -3.617993
     17          8           0        1.439227    1.322473   -4.602308
     18          8           0        3.493581    1.532163   -3.225516
     19          8           0        2.817273   -0.685581   -4.107202
     20          6           0        0.275870   -0.025452    2.818578
     21          6           0       -1.210958   -1.728596    1.695732
     22          1           0       -3.819625    3.103040    0.330855
     23          1           0       -5.091515    2.924331    2.448191
     24          1           0       -4.362313    1.295299    4.211570
     25          1           0       -2.372224   -0.113682    3.789181
     26          1           0       -0.090679    1.833695   -2.580197
     27          1           0        2.731372   -1.206646   -1.403179
     28          1           0        1.491223   -1.484174    0.721618
     29          1           0        0.634639    1.007652    2.816620
     30          1           0        1.144460   -0.683738    2.729187
     31          1           0       -0.193020   -0.217572    3.787707
     32          1           0       -0.373848   -2.423982    1.583704
     33          1           0       -1.918952   -1.919397    0.884261
     34          1           0       -1.714382   -1.950187    2.641467
 ---------------------------------------------------------------------

 SCF Done:  E(UB3LYP) =  -1317.19068396     A.U. after    1 cycles

 Alpha  occ. eigenvalues --  -89.02233 -19.06998 -19.06961 -19.06908 -18.99388
 Alpha  occ. eigenvalues --  -10.16947 -10.16306 -10.14120 -10.14103 -10.14059
 Alpha  occ. eigenvalues --  -10.14005 -10.13925 -10.13694 -10.13536 -10.13414
 Alpha  occ. eigenvalues --  -10.12818 -10.12770 -10.12764 -10.12581 -10.12524
 Alpha  occ. eigenvalues --  -10.12032  -8.08167  -6.04458  -6.04447  -6.04284
 Alpha  occ. eigenvalues --   -1.08335  -0.94774  -0.94517  -0.89175  -0.83056
 Alpha  occ. eigenvalues --   -0.81001  -0.77927  -0.72478  -0.71568  -0.69777
 Alpha  occ. eigenvalues --   -0.69333  -0.66857  -0.61684  -0.60974  -0.58617
 Alpha  occ. eigenvalues --   -0.55990  -0.54435  -0.52140  -0.49516  -0.48906
 Alpha  occ. eigenvalues --   -0.45409  -0.44115  -0.43628  -0.43254  -0.42161
 Alpha  occ. eigenvalues --   -0.41628  -0.40806  -0.40345  -0.40004  -0.38386
 Alpha  occ. eigenvalues --   -0.37812  -0.37748  -0.36496  -0.34915  -0.34803
 Alpha  occ. eigenvalues --   -0.34314  -0.32934  -0.32304  -0.32202  -0.31604
 Alpha  occ. eigenvalues --   -0.31362  -0.31290  -0.29359  -0.29306  -0.27518
 Alpha  occ. eigenvalues --   -0.27178  -0.27143  -0.26291  -0.23525  -0.21971
 Alpha  occ. eigenvalues --   -0.21591  -0.20826  -0.19926  -0.17621  -0.07350
 Alpha virt. eigenvalues --   -0.00030   0.00646   0.01030   0.01415   0.01548
 Alpha virt. eigenvalues --    0.02209   0.02412   0.02494   0.02818   0.03679
 Alpha virt. eigenvalues --    0.04648   0.04699   0.05013   0.05493   0.05899

  Beta  occ. eigenvalues --  -89.02233 -19.06998 -19.06961 -19.06908 -18.99388
  Beta  occ. eigenvalues --  -10.16947 -10.16306 -10.14120 -10.14103 -10.14059
  Beta  occ. eigenvalues --  -10.14005 -10.13925 -10.13694 -10.13536 -10.13414
  Beta  occ. eigenvalues --  -10.12818 -10.12770 -10.12764 -10.12581 -10.12524
  Beta  occ. eigenvalues --  -10.12032  -8.08167  -6.04458  -6.04447  -6.04284
  Beta  occ. eigenvalues --   -1.08335  -0.94774  -0.94517  -0.89175  -0.83056
  Beta  occ. eigenvalues --   -0.81001  -0.77927  -0.72478  -0.71568  -0.69777
  Beta  occ. eigenvalues --   -0.69333  -0.66857  -0.61684  -0.60974  -0.58617
  Beta  occ. eigenvalues --   -0.55990  -0.54435  -0.52140  -0.49516  -0.48906
  Beta  occ. eigenvalues --   -0.45409  -0.44115  -0.43628  -0.43254  -0.42161
  Beta  occ. eigenvalues --   -0.41628  -0.40806  -0.40345  -0.40004  -0.38386
  Beta  occ. eigenvalues --   -0.37812  -0.37748  -0.36496  -0.34915  -0.34803
  Beta  occ. eigenvalues --   -0.34314  -0.32934  -0.32304  -0.32202  -0.31604
  Beta  occ. eigenvalues --   -0.31362  -0.31290  -0.29359  -0.29306  -0.27518
  Beta  occ. eigenvalues --   -0.27178  -0.27143  -0.26291  -0.23525  -0.21971
  Beta  occ. eigenvalues --   -0.21591  -0.20826  -0.19926  -0.17621  -0.07350
  Beta virt. eigenvalues --   -0.00030   0.00646   0.01030   0.01415   0.01548
  Beta virt. eigenvalues --    0.02209   0.02412   0.02494   0.02818   0.03679
  Beta virt. eigenvalues --    0.04648   0.04699   0.05013   0.05493   0.05899

 Mulliken charges and spin densities:
               1          2
     1  C   -0.331872  -0.000000
     2  C   -0.393688   0.000000
     3  C   -0.612888   0.000000
     4  C    0.655799   0.000000
     5  C    0.307065  -0.000000
     6  C   -0.279855   0.000000
     7  C   -0.606596  -0.000000
     8  C    0.875603   0.000000
     9  C    0.176984   0.000000
    10  C    0.522951  -0.000000
    11  C   -0.025259   0.000000
    12  C   -0.995580  -0.000000
    13  C   -0.787251   0.000000
    14  C   -0.440150  -0.000000
    15  O   -0.778257   0.000000
    16  S    0.794886  -0.000000
    17  O   -0.450220  -0.000000
    18  O   -0.410352   0.000000
    19  O   -0.453343  -0.000000
    20  C   -0.796205  -0.000000
    21  C   -0.793810  -0.000000
    22  H    0.153913  -0.000000
    23  H    0.140247  -0.000000
    24  H    0.141182   0.000000
    25  H    0.094242  -0.000000
    26  H    0.190829   0.000000
    27  H    0.171739   0.000000
    28  H    0.096565  -0.000000
    29  H    0.155663  -0.000000
    30  H    0.132542   0.000000
    31  H    0.128773  -0.000000
    32  H    0.134107   0.000000
    33  H    0.150074   0.000000
    34  H    0.132163  -0.000000
 Sum of Mulliken charges =  -3.00000   0.00000

 Dipole moment (field-independent basis, Debye):
    X=             -0.3350    Y=            -19.6285    Z=             25.8237  Tot=             32.4385
 Quadrupole moment (field-independent basis, Debye-Ang):
   XX=           -241.3640   YY=           -194.7819   ZZ=           -268.7904
   XY=             22.5257   XZ=             67.6181   YZ=             21.3168

  Exact polarizability: 633.883-153.397 368.532-252.480  24.692 554.519
 Approx polarizability: 684.797-180.406 407.655-257.900  23.178 585.760

                      1                      2                      3
                      A                      A                      A
 Frequencies --     21.9169                37.2472                58.9877
 Red. masses --      5.2629                10.2532                 5.7305
 Frc consts  --      0.0015                 0.0084                 0.0117
 IR Inten    --      0.4763                 4.1549                 0.2894

                      4                      5                      6
                      A                      A                      A
 Frequencies --    101.9416               112.7212               147.8397
 Red. masses --      3.7600                 8.6252                 6.0023
 Frc consts  --      0.0230                 0.0646                 0.0773
 IR Inten    --      2.3488                 0.7034                 0.2943

                      7                      8                      9
                      A                      A                      A
 Frequencies --    176.4384               195.8846               206.6983
 Red. masses --      5.9114                 2.2718                 7.0635
 Frc consts  --      0.1084                 0.0514                 0.1778
 IR Inten    --      4.2466                 0.5211                21.1424

                     10                     11                     12
                      A                      A                      A
 Frequencies --    234.5645               260.6470               280.3461
 Red. masses --      5.6759                 1.4383                 1.3175
 Frc consts  --      0.1840                 0.0576                 0.0610
 IR Inten    --      6.1839                 0.2426                 0.8162

                     13                     14                     15
                      A                      A                      A
 Frequencies --    286.4816               300.2094               304.3654
 Red. masses --      2.6738                 3.7433                 4.0263
 Frc consts  --      0.1293                 0.1988                 0.2198
 IR Inten    --      6.8174                 5.0414                 5.3482

                     16                     17                     18
                      A                      A                      A
 Frequencies --    326.9058               340.4513               362.3518
 Red. masses --      4.1314                 4.5780                 3.6405
 Frc consts  --      0.2601                 0.3126                 0.2816
 IR Inten    --      1.6876                39.7243                 2.0249

                     19                     20                     21
                      A                      A                      A
 Frequencies --    382.8387               408.8724               413.5863
 Red. masses --      7.0168                 5.6811                 4.7232
 Frc consts  --      0.6059                 0.5596                 0.4760
 IR Inten    --      9.0456                11.9718                 7.1411

                     22                     23                     24
                      A                      A                      A
 Frequencies --    450.1287               478.2279               500.5124
 Red. masses --      6.5768                 3.7955                 5.0109
 Frc consts  --      0.7851                 0.5114                 0.7396
 IR Inten    --      0.8312                 1.0358                10.7938

                     25                     26                     27
                      A                      A                      A
 Frequencies --    503.5954               515.7064               569.7308
 Red. masses --      7.4188                11.9379                 4.3255
 Frc consts  --      1.1085                 1.8706                 0.8272
 IR Inten    --     36.9922                74.7081                 8.9072

                     28                     29                     30
                      A                      A                      A
 Frequencies --    588.6899               598.8280               617.5997
 Red. masses --     10.7261                 2.8564                 5.2659
 Frc consts  --      2.1901                 0.6035                 1.1834
 IR Inten    --    507.6376               158.7172                63.4648

                     31                     32                     33
                      A                      A                      A
 Frequencies --    630.5267               633.3512               656.8003
 Red. masses --      6.4050                 2.2715                 3.9809
 Frc consts  --      1.5003                 0.5368                 1.0118
 IR Inten    --     34.4217                 2.0041               101.6576

                     34                     35                     36
                      A                      A                      A
 Frequencies --    661.8671               672.4020               687.8228
 Red. masses --      2.2588                 1.4009                 6.4264
 Frc consts  --      0.5830                 0.3732                 1.7913
 IR Inten    --     27.4336                84.3849                33.0595

                     37                     38                     39
                      A                      A                      A
 Frequencies --    737.8139               753.4737               789.5624
 Red. masses --      3.3275                 2.4569                 4.1033
 Frc consts  --      1.0672                 0.8218                 1.5072
 IR Inten    --      0.3557                25.1593               189.9720

                     40                     41                     42
                      A                      A                      A
 Frequencies --    800.5601               805.9074               826.9616
 Red. masses --      2.0820                 3.7977                 1.4395
 Frc consts  --      0.7862                 1.4533                 0.5800
 IR Inten    --     21.4239               465.0052                63.1526

                     43                     44                     45
                      A                      A                      A
 Frequencies --    894.5359               899.2181               909.3954
 Red. masses --      1.3713                 1.3438                 2.9097
 Frc consts  --      0.6465                 0.6402                 1.4178
 IR Inten    --     18.0459                 1.9700                38.6377

                     46                     47                     48
                      A                      A                      A
 Frequencies --    919.8163               933.7129               945.3855
 Red. masses --      1.5622                 8.5947                 1.2579
 Frc consts  --      0.7787                 4.4148                 0.6624
 IR Inten    --      0.0949               143.9267                 1.1059

                     49                     50                     51
                      A                      A                      A
 Frequencies --    978.2702              1023.7111              1026.2954
 Red. masses --      7.5551                 1.3405                 2.4411
 Frc consts  --      4.2600                 0.8277                 1.5149
 IR Inten    --    895.0967                80.1805               819.9993

                     52                     53                     54
                      A                      A                      A
 Frequencies --   1054.0567              1074.3757              1075.6643
 Red. masses --      2.9824                14.1239                 3.0020
 Frc consts  --      1.9523                 9.6054                 2.0465
 IR Inten    --    625.5311               595.4648                92.1931

                     55                     56                     57
                      A                      A                      A
 Frequencies --   1088.6123              1094.3774              1100.9825
 Red. masses --      5.2542                 1.7288                 2.7062
 Frc consts  --      3.6686                 1.2199                 1.9327
 IR Inten    --    484.1086               131.0470               173.1032

                     58                     59                     60
                      A                      A                      A
 Frequencies --   1107.6664              1134.3833              1139.9228
 Red. masses --      2.4439                 3.3645                 1.2115
 Frc consts  --      1.7667                 2.5509                 0.9275
 IR Inten    --     31.8551                11.2631               376.0929

                     61                     62                     63
                      A                      A                      A
 Frequencies --   1157.4816              1186.2339              1208.5833
 Red. masses --      2.1770                 1.8428                 2.8845
 Frc consts  --      1.7185                 1.5278                 2.4824
 IR Inten    --    236.6109              1669.7760                28.2111

                     64                     65                     66
                      A                      A                      A
 Frequencies --   1259.0298              1276.7770              1304.4322
 Red. masses --      1.6402                 2.5804                 2.4424
 Frc consts  --      1.5319                 2.4784                 2.4486
 IR Inten    --     27.3079               582.3899               677.5876

                     67                     68                     69
                      A                      A                      A
 Frequencies --   1339.2941              1350.9590              1361.4480
 Red. masses --      4.2544                 4.5913                 4.9603
 Frc consts  --      4.4962                 4.9371                 5.4170
 IR Inten    --     70.8693               494.7084               810.2290

                     70                     71                     72
                      A                      A                      A
 Frequencies --   1380.9399              1401.8827              1404.0022
 Red. masses --      1.2000                 2.0960                 1.7696
 Frc consts  --      1.3483                 2.4270                 2.0552
 IR Inten    --     10.3479              1602.6104              1277.7229

                     73                     74                     75
                      A                      A                      A
 Frequencies --   1434.8153              1464.1875              1476.9178
 Red. masses --      3.1378                 2.9807                 1.0482
 Frc consts  --      3.8060                 3.7649                 1.3471
 IR Inten    --    211.1834               154.6103                 0.3710

                     76                     77                     78
                      A                      A                      A
 Frequencies --   1477.6985              1487.6265              1490.4169
 Red. masses --      1.0508                 1.1391                 2.0759
 Frc consts  --      1.3520                 1.4853                 2.7168
 IR Inten    --      3.1891                34.4097               126.8904

                     79                     80                     81
                      A                      A                      A
 Frequencies --   1495.9937              1500.6028              1518.0205
 Red. masses --      1.6685                 2.0956                 4.1180
 Frc consts  --      2.2001                 2.7803                 5.5911
 IR Inten    --     12.9347               190.5121               203.2297

                     82                     83                     84
                      A                      A                      A
 Frequencies --   1561.0951              1621.8926              3012.1198
 Red. masses --      4.2531                 6.6010                 1.0333
 Frc consts  --      6.1068                10.2307                 5.5234
 IR Inten    --   1187.5309                29.5285                73.0030

                     85                     86                     87
                      A                      A                      A
 Frequencies --   3018.7471              3076.1309              3081.4596
 Red. masses --      1.0340                 1.1014                 1.1024
 Frc consts  --      5.5519                 6.1403                 6.1672
 IR Inten    --     71.2071                14.6380                41.1749

                     88                     89                     90
                      A                      A                      A
 Frequencies --   3081.7156              3084.3320              3115.4849
 Red. masses --      1.1009                 1.1018                 1.0860
 Frc consts  --      6.1599                 6.1755                 6.2106
 IR Inten    --     52.3466                70.3407               120.9110

                     91                     92                     93
                      A                      A                      A
 Frequencies --   3133.0339              3138.0472              3162.6814
 Red. masses --      1.0860                 1.0864                 1.0927
 Frc consts  --      6.2806                 6.3031                 6.4396
 IR Inten    --     48.3576                86.2391                73.1835

                     94                     95                     96
                      A                      A                      A
 Frequencies --   3176.4939              3196.5249              3219.1491
 Red. masses --      1.0903                 1.0902                 1.0865
 Frc consts  --      6.4819                 6.5633                 6.6339
 IR Inten    --     35.2449                 8.1609                 1.1837

 - Thermochemistry -
 -------------------
 Temperature   298.150 Kelvin.  Pressure   1.00000 Atm.
 Atom     1 has atomic number  6 and mass  12.00000

 Molecular mass:   301.05346 amu.
 Principal axes and moments of inertia in atomic units:
                           1         2         3
     Eigenvalues --  2664.28101********************
           X           -0.66565  -0.48418   0.56787
           Y            0.07227   0.71555   0.69481
           Z            0.74276  -0.50354   0.44132
 This molecule is an asymmetric top.
 Rotational symmetry number  1.
 Warning -- assumption of classical behavior for rotation
           may cause significant error
 Rotational temperatures (Kelvin)      0.03251     0.00763     0.00653
 Rotational constants (GHZ):           0.67738     0.15906     0.13603
 Zero-point vibrational energy     654943.5 (Joules/Mol)
                                  156.53525 (Kcal/Mol)
 Warning -- explicit consideration of  30 degrees of freedom as
           vibrations may cause significant error
 Vibrational temperatures:     31.53    53.59    84.87   146.67   162.18
          (Kelvin)            212.71   253.86   281.83   297.39   337.49
                              375.01   403.36   412.18   431.93   437.91
                              470.34   489.83   521.34   550.82   588.28
                              595.06   647.63   688.06   720.13   724.56
                              741.99   819.72   846.99   861.58   888.59
                              907.19   911.25   944.99   952.28   967.44
                              989.62  1061.55  1084.08  1136.00  1151.83
                             1159.52  1189.81  1287.04  1293.77  1308.42
                             1323.41  1343.40  1360.20  1407.51  1472.89
                             1476.61  1516.55  1545.79  1547.64  1566.27
                             1574.57  1584.07  1593.68  1632.12  1640.09
                             1665.36  1706.73  1738.88  1811.46  1837.00
                             1876.79  1926.95  1943.73  1958.82  1986.86
                             2017.00  2020.05  2064.38  2106.64  2124.96
                             2126.08  2140.36  2144.38  2152.40  2159.03
                             2184.09  2246.07  2333.54  4333.77  4343.30
                             4425.87  4433.53  4433.90  4437.67  4482.49
                             4507.74  4514.95  4550.39  4570.27  4599.09
                             4631.64

 Zero-point correction=                           0.249455 (Hartree/Particle)
 Thermal correction to Energy=                    0.267333
 Thermal correction to Enthalpy=                  0.268277
 Thermal correction to Gibbs Free Energy=         0.203501
 Sum of electronic and zero-point Energies=          -1316.941229
 Sum of electronic and thermal Energies=             -1316.923351
 Sum of electronic and thermal Enthalpies=           -1316.922407
 Sum of electronic and thermal Free Energies=        -1316.987183

                     E (Thermal)             CV                S
                      KCal/Mol        Cal/Mol-Kelvin    Cal/Mol-Kelvin
 Total                  167.754             71.942            136.333
 Electronic               0.000              0.000              0.000
 Translational            0.889              2.981             43.003
 Rotational               0.889              2.981             34.349
 Vibrational            165.976             65.981             58.980
 Vibration     1          0.593              1.985              6.452
 Vibration     2          0.594              1.982              5.400
 Vibration     3          0.596              1.974              4.491
 Vibration     4          0.604              1.948              3.417
 Vibration     5          0.607              1.939              3.222
 Vibration     6          0.617              1.905              2.700
 Vibration     7          0.628              1.871              2.366
 Vibration     8          0.636              1.846              2.171
 Vibration     9          0.641              1.830              2.073
 Vibration    10          0.654              1.788              1.844
 Vibration    11          0.669              1.745              1.657
 Vibration    12          0.680              1.710              1.532
 Vibration    13          0.684              1.699              1.495
 Vibration    14          0.693              1.673              1.416
 Vibration    15          0.695              1.665              1.393
 Vibration    16          0.711              1.622              1.275
 Vibration    17          0.720              1.595              1.210
 Vibration    18          0.736              1.550              1.112
 Vibration    19          0.752              1.507              1.028
 Vibration    20          0.773              1.451              0.931
 Vibration    21          0.777              1.441              0.914
 Vibration    22          0.809              1.361              0.795
 Vibration    23          0.835              1.298              0.715
 Vibration    24          0.856              1.249              0.657
 Vibration    25          0.859              1.242              0.649
 Vibration    26          0.871              1.215              0.620
 Vibration    27          0.926              1.097              0.505
 Vibration    28          0.946              1.056              0.470
 Vibration    29          0.957              1.034              0.452
 Vibration    30          0.977              0.995              0.420

 Optimization completed.
    -- Stationary point found.
 Normal termination of Gaussian 16 at Sun Feb 11 23:49:56 2024.
