 Q-Chem 5.4, Q-Chem, Inc., Pleasanton, CA (2021)
 Q-Chem 5.4.0 for Intel X86 EM64T Linux

User input:
--------------------------------------------------------------
$molecule
0 1
O                  1.6794420000      2.3630090000      0.3794500000
C                  1.4005360000      1.1934110000      0.1990230000
C                 -0.0173530000      0.7036740000      0.2083690000
C                 -1.0476710000      1.6150250000      0.4303230000
C                 -2.3728010000      1.1814320000      0.4432910000
C                 -2.6745510000     -0.1640160000      0.2346500000
C                 -1.6506420000     -1.0824180000      0.0118560000
C                 -0.3240060000     -0.6528070000     -0.0018650000
C                  0.7688670000     -1.6250830000     -0.2382170000
O                  0.5918420000     -2.8253060000     -0.4302490000
C                  2.1464190000     -1.1205400000     -0.2421130000
O                  3.1267370000     -2.0281850000     -0.4599980000
C                  2.4604720000      0.1829300000     -0.0413050000
O                  3.7243630000      0.6406600000     -0.0458890000
H                 -0.7947210000      2.6558890000      0.5904540000
H                 -3.1702720000      1.8948780000      0.6164860000
H                 -3.7058100000     -0.4973180000      0.2454780000
H                 -1.8615660000     -2.1320190000     -0.1525500000
H                  2.6831860000     -2.8880570000     -0.5772850000
H                  4.3244470000     -0.1002140000     -0.2107760000
$end
$rem
MAX_SCF_CYCLES=200
BASIS  =  6-311++G(d,p)
GUI  =  2
JOB_TYPE  =  SP
METHOD  =  B3LYP
SOLVENT_METHOD = PCM
$end
$pcm
theory = CPCM
$end
$solvent
dielectric 37.219
opticaldielectric 1.43
$end

--------------------------------------------------------------

             Standard Nuclear Orientation (Angstroms)
    I     Atom           X                Y                Z
 ----------------------------------------------------------------
    1      O       1.6794420000     2.3630090000     0.3794500000
    2      C       1.4005360000     1.1934110000     0.1990230000
    3      C      -0.0173530000     0.7036740000     0.2083690000
    4      C      -1.0476710000     1.6150250000     0.4303230000
    5      C      -2.3728010000     1.1814320000     0.4432910000
    6      C      -2.6745510000    -0.1640160000     0.2346500000
    7      C      -1.6506420000    -1.0824180000     0.0118560000
    8      C      -0.3240060000    -0.6528070000    -0.0018650000
    9      C       0.7688670000    -1.6250830000    -0.2382170000
   10      O       0.5918420000    -2.8253060000    -0.4302490000
   11      C       2.1464190000    -1.1205400000    -0.2421130000
   12      O       3.1267370000    -2.0281850000    -0.4599980000
   13      C       2.4604720000     0.1829300000    -0.0413050000
   14      O       3.7243630000     0.6406600000    -0.0458890000
   15      H      -0.7947210000     2.6558890000     0.5904540000
   16      H      -3.1702720000     1.8948780000     0.6164860000
   17      H      -3.7058100000    -0.4973180000     0.2454780000
   18      H      -1.8615660000    -2.1320190000    -0.1525500000
   19      H       2.6831860000    -2.8880570000    -0.5772850000
   20      H       4.3244470000    -0.1002140000    -0.2107760000
 ----------------------------------------------------------------

    9    -685.7831523381      3.85e-06  Convergence criterion met
 Total energy in the final basis set =     -685.7831523381

                    Orbital Energies (a.u.)
 --------------------------------------------------------------

 Alpha MOs
 -- Occupied --
-19.1841 -19.1819 -19.1456 -19.1405 -10.2931 -10.2923 -10.2680 -10.2640
-10.2129 -10.2123 -10.2009 -10.1995 -10.1985 -10.1978  -1.1155  -1.0951
 -1.0714  -1.0634  -0.8943  -0.8350  -0.7821  -0.7724  -0.7099  -0.6636
 -0.6525  -0.6116  -0.5908  -0.5636  -0.5508  -0.5084  -0.5002  -0.4831
 -0.4707  -0.4676  -0.4574  -0.4535  -0.4365  -0.4221  -0.4211  -0.4081
 -0.3858  -0.3842  -0.3785  -0.3721  -0.3041  -0.2910  -0.2908  -0.2816
 -0.2481

          Ground-State Mulliken Net Atomic Charges

     Atom                 Charge (a.u.)
  ----------------------------------------
      1 O                    -0.301560
      2 C                    -0.527518
      3 C                     0.386596
      4 C                     0.285049
      5 C                    -0.420028
      6 C                    -0.350617
      7 C                     0.229895
      8 C                     0.368987
      9 C                    -0.493967
     10 O                    -0.339002
     11 C                     0.058722
     12 O                    -0.298047
     13 C                     0.158121
     14 O                    -0.274673
     15 H                     0.194975
     16 H                     0.227230
     17 H                     0.231127
     18 H                     0.197796
     19 H                     0.330121
     20 H                     0.336793
  ----------------------------------------
  Sum of atomic charges =     0.000000

                    Cartesian Multipole Moments
 -----------------------------------------------------------------
    Charge (ESU x 10^10)
                 0.0000
    Dipole Moment (Debye)
         X      -3.1374      Y      -2.2033      Z      -0.1699
       Tot       3.8375
    Quadrupole Moments (Debye-Ang)
        XX     -67.7933     XY     -13.5145     YY     -90.2170
        XZ      -3.4197     YZ      -0.9013     ZZ     -80.7934

 Total job time:  28.85s(wall), 187.80s(cpu)
        *  Thank you very much for using Q-Chem.  Have a nice day.  *
