 Gaussian 16, Revision A.03,
 Gaussian 16:  ES64L-G16RevA.03 25-Dec-2016

 ----------------------------------------------------------------------
 #P UB3LYP/6-311++G(d,p) nosym opt freq SCRF=(PCM,Solvent=n,n-DiMethylF
 ormamide)
 ----------------------------------------------------------------------

 --------
 Oxidized
 --------
 Symbolic Z-matrix:
 Charge = -1 Multiplicity = 1

 SCF Done:  E(UB3LYP) =  -1317.03060042     A.U. after   17 cycles
 SCF Done:  E(UB3LYP) =  -1317.03167609     A.U. after   13 cycles
 SCF Done:  E(UB3LYP) =  -1317.03227818     A.U. after   12 cycles
 SCF Done:  E(UB3LYP) =  -1317.03229724     A.U. after   12 cycles
 SCF Done:  E(UB3LYP) =  -1317.03229868     A.U. after   10 cycles
 SCF Done:  E(UB3LYP) =  -1317.03229844     A.U. after   12 cycles
 SCF Done:  E(UB3LYP) =  -1317.03229822     A.U. after   10 cycles
 SCF Done:  E(UB3LYP) =  -1317.03229910     A.U. after   10 cycles
 SCF Done:  E(UB3LYP) =  -1317.03229931     A.U. after    9 cycles
 Optimization completed.
    -- Stationary point found.
 Normal termination of Gaussian 16 at Sun Feb 11 17:21:20 2024.

 ----------------------------------------------------------------------
 #P Geom=AllCheck Guess=TCheck SCRF=Check GenChk UB3LYP/6-311++G(d,p) F
 req
 ----------------------------------------------------------------------

 Structure from the checkpoint file:  "342.chk"
 --------
 Oxidized
 --------
 Charge = -1 Multiplicity = 1

                          Input orientation:
 ---------------------------------------------------------------------
 Center     Atomic      Atomic             Coordinates (Angstroms)
 Number     Number       Type             X           Y           Z
 ---------------------------------------------------------------------
      1          6           0       -3.494498    2.407430    1.106664
      2          6           0       -4.223949    2.285029    2.275701
      3          6           0       -3.820156    1.349310    3.233688
      4          6           0       -2.361007    1.606629    0.876225
      5          6           0       -1.946744    0.663880    1.832591
      6          6           0       -2.702033    0.555903    3.011409
      7          6           0       -1.628757    1.791154   -0.398004
      8          6           0       -0.430865    0.947817   -0.628870
      9          6           0       -0.003243    0.002447    0.316190
     10          6           0       -0.725677   -0.237570    1.641720
     11          6           0        0.269795    1.124136   -1.835485
     12          6           0        1.391270    0.366765   -2.109866
     13          6           0        1.833477   -0.579011   -1.178259
     14          6           0        1.141960   -0.752841    0.010409
     15          8           0       -1.997864    2.613206   -1.234694
     16         16           0        2.327261    0.624089   -3.641532
     17          8           0        1.413980    1.363116   -4.555672
     18          8           0        3.527536    1.417969   -3.246724
     19          8           0        2.674938   -0.741232   -4.127635
     20          6           0        0.273554    0.027058    2.803959
     21          6           0       -1.193772   -1.720471    1.686112
     22          1           0       -3.779705    3.121463    0.344404
     23          1           0       -5.095995    2.905039    2.447433
     24          1           0       -4.379460    1.238901    4.155968
     25          1           0       -2.416650   -0.158910    3.772985
     26          1           0       -0.089244    1.855695   -2.546406
     27          1           0        2.708319   -1.182316   -1.388292
     28          1           0        1.504424   -1.495770    0.709499
     29          1           0        0.614760    1.064863    2.791256
     30          1           0        1.146780   -0.621899    2.721601
     31          1           0       -0.195083   -0.168058    3.769708
     32          1           0       -0.345316   -2.399233    1.585749
     33          1           0       -1.896981   -1.927739    0.876050
     34          1           0       -1.687098   -1.942408    2.633685
 ---------------------------------------------------------------------

 SCF Done:  E(UB3LYP) =  -1317.03229931     A.U. after    1 cycles

 Alpha  occ. eigenvalues --  -89.04502 -19.11556 -19.08934 -19.08881 -19.08840
 Alpha  occ. eigenvalues --  -10.26959 -10.21400 -10.20738 -10.20545 -10.20438
 Alpha  occ. eigenvalues --  -10.19690 -10.19667 -10.19379 -10.19244 -10.19043
 Alpha  occ. eigenvalues --  -10.18905 -10.18709 -10.18528 -10.18454 -10.16958
 Alpha  occ. eigenvalues --  -10.16948  -8.10395  -6.06665  -6.06655  -6.06574
 Alpha  occ. eigenvalues --   -1.10715  -1.04860  -0.97092  -0.96834  -0.89557
 Alpha  occ. eigenvalues --   -0.87431  -0.83096  -0.78971  -0.77055  -0.76417
 Alpha  occ. eigenvalues --   -0.74451  -0.69745  -0.66774  -0.66072  -0.63871
 Alpha  occ. eigenvalues --   -0.61387  -0.59659  -0.57775  -0.55033  -0.53309
 Alpha  occ. eigenvalues --   -0.50457  -0.48913  -0.48300  -0.47653  -0.45449
 Alpha  occ. eigenvalues --   -0.45246  -0.45154  -0.44757  -0.44680  -0.43820
 Alpha  occ. eigenvalues --   -0.43693  -0.43039  -0.41926  -0.41598  -0.40927
 Alpha  occ. eigenvalues --   -0.38880  -0.38063  -0.37935  -0.37019  -0.36938
 Alpha  occ. eigenvalues --   -0.35417  -0.34677  -0.33353  -0.33249  -0.33217
 Alpha  occ. eigenvalues --   -0.30460  -0.29472  -0.29385  -0.27412  -0.26984
 Alpha  occ. eigenvalues --   -0.26821  -0.26391  -0.25768  -0.25353
 Alpha virt. eigenvalues --   -0.08754  -0.03729  -0.02952  -0.02017  -0.00716
 Alpha virt. eigenvalues --    0.00432   0.00874   0.01831   0.01847   0.02228
 Alpha virt. eigenvalues --    0.02972   0.03710   0.04159   0.04213   0.04534

  Beta  occ. eigenvalues --  -89.04502 -19.11556 -19.08934 -19.08881 -19.08840
  Beta  occ. eigenvalues --  -10.26959 -10.21400 -10.20738 -10.20545 -10.20438
  Beta  occ. eigenvalues --  -10.19690 -10.19667 -10.19379 -10.19244 -10.19043
  Beta  occ. eigenvalues --  -10.18905 -10.18709 -10.18528 -10.18454 -10.16958
  Beta  occ. eigenvalues --  -10.16948  -8.10395  -6.06665  -6.06655  -6.06574
  Beta  occ. eigenvalues --   -1.10715  -1.04860  -0.97092  -0.96834  -0.89557
  Beta  occ. eigenvalues --   -0.87431  -0.83096  -0.78971  -0.77055  -0.76417
  Beta  occ. eigenvalues --   -0.74451  -0.69745  -0.66774  -0.66072  -0.63871
  Beta  occ. eigenvalues --   -0.61387  -0.59659  -0.57775  -0.55033  -0.53309
  Beta  occ. eigenvalues --   -0.50457  -0.48913  -0.48300  -0.47653  -0.45449
  Beta  occ. eigenvalues --   -0.45246  -0.45154  -0.44757  -0.44680  -0.43820
  Beta  occ. eigenvalues --   -0.43693  -0.43039  -0.41926  -0.41598  -0.40927
  Beta  occ. eigenvalues --   -0.38880  -0.38063  -0.37935  -0.37019  -0.36938
  Beta  occ. eigenvalues --   -0.35417  -0.34677  -0.33353  -0.33249  -0.33217
  Beta  occ. eigenvalues --   -0.30460  -0.29472  -0.29385  -0.27412  -0.26984
  Beta  occ. eigenvalues --   -0.26821  -0.26391  -0.25768  -0.25353
  Beta virt. eigenvalues --   -0.08754  -0.03729  -0.02952  -0.02017  -0.00716
  Beta virt. eigenvalues --    0.00432   0.00874   0.01831   0.01847   0.02228
  Beta virt. eigenvalues --    0.02972   0.03710   0.04159   0.04213   0.04534

 Mulliken charges and spin densities:
               1          2
     1  C    0.050894   0.000000
     2  C   -0.413837  -0.000000
     3  C   -0.451510   0.000000
     4  C    0.503558   0.000000
     5  C    0.423469  -0.000000
     6  C   -0.214028   0.000000
     7  C   -0.776988   0.000000
     8  C    0.863864  -0.000000
     9  C    0.399254  -0.000000
    10  C    0.267523  -0.000000
    11  C    0.376517   0.000000
    12  C   -1.040567  -0.000000
    13  C   -0.719710   0.000000
    14  C   -0.343022   0.000000
    15  O   -0.316078  -0.000000
    16  S    0.816633   0.000000
    17  O   -0.406714   0.000000
    18  O   -0.362024  -0.000000
    19  O   -0.395949  -0.000000
    20  C   -0.820263  -0.000000
    21  C   -0.818170  -0.000000
    22  H    0.202897   0.000000
    23  H    0.193906  -0.000000
    24  H    0.204126   0.000000
    25  H    0.149468  -0.000000
    26  H    0.229769  -0.000000
    27  H    0.226732   0.000000
    28  H    0.155397  -0.000000
    29  H    0.183279  -0.000000
    30  H    0.164356   0.000000
    31  H    0.160742   0.000000
    32  H    0.164359   0.000000
    33  H    0.181744  -0.000000
    34  H    0.160375   0.000000
 Sum of Mulliken charges =  -1.00000   0.00000

 Dipole moment (field-independent basis, Debye):
    X=            -12.2395    Y=             -7.5200    Z=             25.7308  Tot=             29.4691
 Quadrupole moment (field-independent basis, Debye-Ang):
   XX=           -168.5170   YY=           -149.0369   ZZ=           -214.5068
   XY=             -8.9814   XZ=             40.9277   YZ=             17.6015

  Exact polarizability: 325.924 -64.105 267.423 -74.188 -36.085 345.540
 Approx polarizability: 355.049 -76.358 319.128 -54.453 -55.342 380.376

                      1                      2                      3
                      A                      A                      A
 Frequencies --     25.4027                32.7079                54.5856
 Red. masses --     10.0116                 8.5930                 4.4742
 Frc consts  --      0.0038                 0.0054                 0.0079
 IR Inten    --      0.5739                 0.4434                 2.6627

                      4                      5                      6
                      A                      A                      A
 Frequencies --     95.7857               104.4226               129.5239
 Red. masses --      3.7243                 8.9161                 5.9108
 Frc consts  --      0.0201                 0.0573                 0.0584
 IR Inten    --      1.9892                 4.0747                 3.0776

                      7                      8                      9
                      A                      A                      A
 Frequencies --    150.9639               187.9496               204.8522
 Red. masses --      5.7034                 1.9615                 7.6859
 Frc consts  --      0.0766                 0.0408                 0.1900
 IR Inten    --      0.0211                 0.0694                 4.4330

                     10                     11                     12
                      A                      A                      A
 Frequencies --    224.2081               245.9110               266.5821
 Red. masses --      6.1611                 1.7427                 1.0605
 Frc consts  --      0.1825                 0.0621                 0.0444
 IR Inten    --      1.7333                 0.2344                 0.4369

                     13                     14                     15
                      A                      A                      A
 Frequencies --    286.5661               299.0962               307.8918
 Red. masses --      4.1101                 3.4892                 3.1749
 Frc consts  --      0.1989                 0.1839                 0.1773
 IR Inten    --      2.9330                 0.9501                 2.9887

                     16                     17                     18
                      A                      A                      A
 Frequencies --    345.1524               356.4650               386.0593
 Red. masses --      3.1115                 4.6676                 7.1103
 Frc consts  --      0.2184                 0.3494                 0.6244
 IR Inten    --      0.0175                15.7616                17.7868

                     19                     20                     21
                      A                      A                      A
 Frequencies --    407.1491               409.5508               419.6157
 Red. masses --      4.0361                 6.6656                 4.5577
 Frc consts  --      0.3942                 0.6587                 0.4728
 IR Inten    --      0.8543                20.3290                 1.9159

                     22                     23                     24
                      A                      A                      A
 Frequencies --    444.8652               468.1336               501.9457
 Red. masses --      7.0827                 3.9748                 7.6062
 Frc consts  --      0.8259                 0.5132                 1.1291
 IR Inten    --     29.4365                 2.1579                24.5368

                     25                     26                     27
                      A                      A                      A
 Frequencies --    510.3068               517.2758               559.8337
 Red. masses --      4.7361                13.3408                 3.5067
 Frc consts  --      0.7267                 2.1032                 0.6475
 IR Inten    --      5.4459                26.6227                 0.7438

                     28                     29                     30
                      A                      A                      A
 Frequencies --    592.1114               596.0288               626.8286
 Red. masses --     10.6949                 3.5746                 5.2711
 Frc consts  --      2.2092                 0.7482                 1.2203
 IR Inten    --    270.1196                90.2680                 1.9049

                     31                     32                     33
                      A                      A                      A
 Frequencies --    652.2645               670.9056               700.3039
 Red. masses --      6.8875                 5.1751                 6.4555
 Frc consts  --      1.7265                 1.3724                 1.8653
 IR Inten    --     73.9218                 4.6704                13.0654

                     34                     35                     36
                      A                      A                      A
 Frequencies --    714.5644               760.1654               777.4077
 Red. masses --      3.6849                 3.9436                 1.5705
 Frc consts  --      1.1086                 1.3426                 0.5592
 IR Inten    --     32.6618                 3.2367                68.0919

                     37                     38                     39
                      A                      A                      A
 Frequencies --    800.6969               827.9422               832.5203
 Red. masses --      5.3220                 3.2921                 3.1796
 Frc consts  --      2.0103                 1.3296                 1.2984
 IR Inten    --      0.5381                 0.1712                 2.8795

                     40                     41                     42
                      A                      A                      A
 Frequencies --    852.5762               901.5102               918.8864
 Red. masses --      1.4443                 1.4758                 2.8105
 Frc consts  --      0.6185                 0.7067                 1.3982
 IR Inten    --     31.8509                 0.2000                 4.9192

                     43                     44                     45
                      A                      A                      A
 Frequencies --    938.6100               944.6891               956.3705
 Red. masses --      1.5890                 1.4502                 9.7637
 Frc consts  --      0.8248                 0.7626                 5.2616
 IR Inten    --      1.6311                 6.3608                61.0213

                     46                     47                     48
                      A                      A                      A
 Frequencies --    990.2426               992.4659               996.2663
 Red. masses --      7.6798                 1.3802                 1.3547
 Frc consts  --      4.4369                 0.8010                 0.7922
 IR Inten    --    399.7392                 2.5143                 3.7988

                     49                     50                     51
                      A                      A                      A
 Frequencies --   1013.7386              1038.6727              1055.7116
 Red. masses --      1.3187                 1.2743                 2.5261
 Frc consts  --      0.7985                 0.8100                 1.6588
 IR Inten    --      0.0088                 0.0136                25.8725

                     52                     53                     54
                      A                      A                      A
 Frequencies --   1082.4870              1104.8337              1111.8824
 Red. masses --      2.6347                 2.1969                 6.2660
 Frc consts  --      1.8190                 1.5800                 4.5641
 IR Inten    --     86.2981                 9.9624               463.4886

                     55                     56                     57
                      A                      A                      A
 Frequencies --   1115.1884              1123.7689              1129.2851
 Red. masses --      2.2367                 5.5398                 3.3760
 Frc consts  --      1.6389                 4.1219                 2.5366
 IR Inten    --    216.9324               394.5612                 2.4230

                     58                     59                     60
                      A                      A                      A
 Frequencies --   1136.7721              1161.8179              1184.5968
 Red. masses --      2.3660                 2.3642                 1.2049
 Frc consts  --      1.8014                 1.8802                 0.9962
 IR Inten    --     99.8132                42.9603                 2.4848

                     61                     62                     63
                      A                      A                      A
 Frequencies --   1193.4700              1220.8044              1238.3324
 Red. masses --      1.8128                 3.0847                 1.5856
 Frc consts  --      1.5213                 2.7087                 1.4326
 IR Inten    --     35.5674                 1.6222                 0.2912

                     64                     65                     66
                      A                      A                      A
 Frequencies --   1282.6747              1301.7120              1320.3373
 Red. masses --      1.5871                 3.8743                 2.1099
 Frc consts  --      1.5384                 3.8678                 2.1671
 IR Inten    --     59.1076               379.7038                59.5116

                     67                     68                     69
                      A                      A                      A
 Frequencies --   1338.0520              1351.8287              1398.9573
 Red. masses --      8.4330                 7.9245                 1.1808
 Frc consts  --      8.8957                 8.5323                 1.3615
 IR Inten    --     23.2252                31.0145                 7.1942

                     70                     71                     72
                      A                      A                      A
 Frequencies --   1420.4596              1426.6843              1474.2818
 Red. masses --      1.4324                 2.6780                 2.1397
 Frc consts  --      1.7028                 3.2115                 2.7401
 IR Inten    --     19.9148                57.3253                46.2236

                     73                     74                     75
                      A                      A                      A
 Frequencies --   1478.2997              1487.5946              1491.7229
 Red. masses --      1.0464                 1.0477                 1.4322
 Frc consts  --      1.3474                 1.3660                 1.8777
 IR Inten    --      0.0865                 4.7130                 2.6752

                     76                     77                     78
                      A                      A                      A
 Frequencies --   1498.1981              1512.0720              1512.4139
 Red. masses --      1.0643                 2.2408                 1.7232
 Frc consts  --      1.4076                 3.0186                 2.3224
 IR Inten    --     22.9050                11.2690                24.3150

                     79                     80                     81
                      A                      A                      A
 Frequencies --   1592.3725              1612.4739              1624.9373
 Red. masses --      6.9488                 7.3967                 6.5091
 Frc consts  --     10.3813                11.3311                10.1262
 IR Inten    --     12.0427                 0.5722               191.0870

                     82                     83                     84
                      A                      A                      A
 Frequencies --   1634.5201              1676.9623              3038.6786
 Red. masses --      5.6949                10.7644                 1.0343
 Frc consts  --      8.9644                17.8356                 5.6267
 IR Inten    --    139.6104               517.2441                43.3426

                     85                     86                     87
                      A                      A                      A
 Frequencies --   3041.3621              3108.8294              3109.6492
 Red. masses --      1.0352                 1.1025                 1.1022
 Frc consts  --      5.6415                 6.2778                 6.2798
 IR Inten    --     29.4472                18.7759                49.2979

                     88                     89                     90
                      A                      A                      A
 Frequencies --   3113.6357              3116.2625              3170.9221
 Red. masses --      1.1025                 1.1020                 1.0866
 Frc consts  --      6.2977                 6.3050                 6.4370
 IR Inten    --      0.8642                85.8729                 1.6923

                     91                     92                     93
                      A                      A                      A
 Frequencies --   3183.7463              3185.4518              3193.1151
 Red. masses --      1.0899                 1.0873                 1.0936
 Frc consts  --      6.5092                 6.5006                 6.5695
 IR Inten    --     15.6911                 3.4211                23.7133

                     94                     95                     96
                      A                      A                      A
 Frequencies --   3199.3530              3201.6203              3215.8583
 Red. masses --      1.0943                 1.0948                 1.0899
 Frc consts  --      6.5994                 6.6118                 6.6409
 IR Inten    --     14.6993                18.6022                 4.7489

 - Thermochemistry -
 -------------------
 Temperature   298.150 Kelvin.  Pressure   1.00000 Atm.
 Atom     1 has atomic number  6 and mass  12.00000

 Molecular mass:   301.05346 amu.
 Principal axes and moments of inertia in atomic units:
                           1         2         3
     Eigenvalues --  2613.27380********************
           X           -0.66416  -0.48113   0.57220
           Y            0.07533   0.71843   0.69151
           Z            0.74379  -0.50237   0.44091
 This molecule is an asymmetric top.
 Rotational symmetry number  1.
 Warning -- assumption of classical behavior for rotation
           may cause significant error
 Rotational temperatures (Kelvin)      0.03314     0.00767     0.00658
 Rotational constants (GHZ):           0.69061     0.15984     0.13715
 Zero-point vibrational energy     671180.2 (Joules/Mol)
                                  160.41591 (Kcal/Mol)
 Warning -- explicit consideration of  29 degrees of freedom as
           vibrations may cause significant error
 Vibrational temperatures:     36.55    47.06    78.54   137.81   150.24
          (Kelvin)            186.36   217.20   270.42   294.74   322.59
                              353.81   383.55   412.30   430.33   442.99
                              496.60   512.87   555.45   585.80   589.25
                              603.73   640.06   673.54   722.19   734.22
                              744.24   805.48   851.92   857.55   901.87
                              938.46   965.28  1007.58  1028.10  1093.71
                             1118.52  1152.02  1191.22  1197.81  1226.67
                             1297.07  1322.07  1350.45  1359.20  1376.00
                             1424.74  1427.94  1433.40  1458.54  1494.42
                             1518.93  1557.46  1589.61  1599.75  1604.51
                             1616.85  1624.79  1635.56  1671.60  1704.37
                             1717.14  1756.47  1781.68  1845.48  1872.87
                             1899.67  1925.16  1944.98  2012.79  2043.72
                             2052.68  2121.16  2126.94  2140.32  2146.26
                             2155.57  2175.53  2176.03  2291.07  2319.99
                             2337.92  2351.71  2412.77  4371.98  4375.84
                             4472.91  4474.09  4479.83  4483.61  4562.25
                             4580.70  4583.15  4594.18  4603.16  4606.42
                             4626.90

 Zero-point correction=                           0.255639 (Hartree/Particle)
 Thermal correction to Energy=                    0.273247
 Thermal correction to Enthalpy=                  0.274191
 Thermal correction to Gibbs Free Energy=         0.209468
 Sum of electronic and zero-point Energies=          -1316.776660
 Sum of electronic and thermal Energies=             -1316.759052
 Sum of electronic and thermal Enthalpies=           -1316.758108
 Sum of electronic and thermal Free Energies=        -1316.822831

                     E (Thermal)             CV                S
                      KCal/Mol        Cal/Mol-Kelvin    Cal/Mol-Kelvin
 Total                  171.465             69.611            136.221
 Electronic               0.000              0.000              0.000
 Translational            0.889              2.981             43.003
 Rotational               0.889              2.981             34.317
 Vibrational            169.688             63.649             58.901
 Vibration     1          0.593              1.985              6.159
 Vibration     2          0.594              1.983              5.658
 Vibration     3          0.596              1.976              4.644
 Vibration     4          0.603              1.952              3.538
 Vibration     5          0.605              1.946              3.370
 Vibration     6          0.612              1.924              2.953
 Vibration     7          0.618              1.902              2.660
 Vibration     8          0.633              1.856              2.248
 Vibration     9          0.640              1.833              2.089
 Vibration    10          0.649              1.804              1.925
 Vibration    11          0.660              1.770              1.760
 Vibration    12          0.672              1.734              1.618
 Vibration    13          0.684              1.699              1.494
 Vibration    14          0.692              1.675              1.422
 Vibration    15          0.698              1.659              1.374
 Vibration    16          0.724              1.585              1.188
 Vibration    17          0.732              1.562              1.137
 Vibration    18          0.755              1.500              1.015
 Vibration    19          0.772              1.455              0.937
 Vibration    20          0.774              1.449              0.928
 Vibration    21          0.782              1.428              0.893
 Vibration    22          0.804              1.372              0.811
 Vibration    23          0.825              1.321              0.743
 Vibration    24          0.857              1.246              0.653
 Vibration    25          0.865              1.227              0.633
 Vibration    26          0.872              1.212              0.616
 Vibration    27          0.915              1.118              0.524
 Vibration    28          0.950              1.049              0.463
 Vibration    29          0.954              1.040              0.457

 Optimization completed.
    -- Stationary point found.
 Normal termination of Gaussian 16 at Sun Feb 11 19:08:37 2024.
