 Q-Chem 5.4, Q-Chem, Inc., Pleasanton, CA (2021)
 Q-Chem 5.4.0 for Intel X86 EM64T Linux

User input:
--------------------------------------------------------------
$molecule
-1 2
C                 -2.0235500000      3.0394340000     -0.2451900000
C                 -2.9662510000      2.4982000000      0.6090560000
C                 -2.6691320000      1.3288680000      1.3380850000
C                 -0.7571280000      2.4352840000     -0.4012720000
C                 -0.4548690000      1.2537430000      0.3349120000
C                 -1.4307870000      0.7236620000      1.1967830000
C                  0.2291170000      3.0023260000     -1.2962960000
C                  1.4956950000      2.3131910000     -1.3884050000
C                  1.8186810000      1.1653760000     -0.6959120000
C                  0.8554400000      0.5800540000      0.2116760000
O                  0.0640150000      4.0520820000     -2.0008160000
O                  1.1124030000     -0.4612620000      0.8708460000
H                 -2.2286620000      3.9377800000     -0.8165320000
H                 -3.9366460000      2.9737520000      0.7193040000
H                 -3.4101900000      0.9043390000      2.0088750000
H                 -1.1748810000     -0.1756870000      1.7455380000
O                  2.3749430000      2.9056570000     -2.2480880000
H                  1.8523870000      3.6710470000     -2.5755970000
C                  3.1656890000      0.5050570000     -0.8451710000
C                  4.1618690000      0.9280380000      0.2536580000
C                  5.5095560000      0.1831400000      0.2296130000
C                  6.3347810000      0.5141940000      1.4819440000
C                  6.3236710000      0.4750260000     -1.0397140000
H                  3.5729360000      0.7409020000     -1.8316140000
H                  3.0231430000     -0.5788610000     -0.7791150000
H                  3.6822160000      0.7536930000      1.2219300000
H                  4.3454940000      2.0080430000      0.1783330000
H                  5.2902300000     -0.8936990000      0.2498620000
H                  7.2813490000     -0.0382030000      1.4978630000
H                  5.7836190000      0.2669120000      2.3942150000
H                  6.5734460000      1.5837240000      1.5181560000
H                  7.2762920000     -0.0668880000     -1.0321870000
H                  6.5479600000      1.5453730000     -1.1166560000
H                  5.7830450000      0.1866430000     -1.9440720000
$end
$rem
MAX_SCF_CYCLES=200
BASIS  =  6-311++G(d,p)
GUI  =  2
JOB_TYPE  =  SP
METHOD  =  B3LYP
SOLVENT_METHOD = PCM
$end
$pcm
theory = CPCM
$end
$solvent
dielectric 37.219
opticaldielectric 1.43
$end

--------------------------------------------------------------

             Standard Nuclear Orientation (Angstroms)
    I     Atom           X                Y                Z
 ----------------------------------------------------------------
    1      C      -2.0235500000     3.0394340000    -0.2451900000
    2      C      -2.9662510000     2.4982000000     0.6090560000
    3      C      -2.6691320000     1.3288680000     1.3380850000
    4      C      -0.7571280000     2.4352840000    -0.4012720000
    5      C      -0.4548690000     1.2537430000     0.3349120000
    6      C      -1.4307870000     0.7236620000     1.1967830000
    7      C       0.2291170000     3.0023260000    -1.2962960000
    8      C       1.4956950000     2.3131910000    -1.3884050000
    9      C       1.8186810000     1.1653760000    -0.6959120000
   10      C       0.8554400000     0.5800540000     0.2116760000
   11      O       0.0640150000     4.0520820000    -2.0008160000
   12      O       1.1124030000    -0.4612620000     0.8708460000
   13      H      -2.2286620000     3.9377800000    -0.8165320000
   14      H      -3.9366460000     2.9737520000     0.7193040000
   15      H      -3.4101900000     0.9043390000     2.0088750000
   16      H      -1.1748810000    -0.1756870000     1.7455380000
   17      O       2.3749430000     2.9056570000    -2.2480880000
   18      H       1.8523870000     3.6710470000    -2.5755970000
   19      C       3.1656890000     0.5050570000    -0.8451710000
   20      C       4.1618690000     0.9280380000     0.2536580000
   21      C       5.5095560000     0.1831400000     0.2296130000
   22      C       6.3347810000     0.5141940000     1.4819440000
   23      C       6.3236710000     0.4750260000    -1.0397140000
   24      H       3.5729360000     0.7409020000    -1.8316140000
   25      H       3.0231430000    -0.5788610000    -0.7791150000
   26      H       3.6822160000     0.7536930000     1.2219300000
   27      H       4.3454940000     2.0080430000     0.1783330000
   28      H       5.2902300000    -0.8936990000     0.2498620000
   29      H       7.2813490000    -0.0382030000     1.4978630000
   30      H       5.7836190000     0.2669120000     2.3942150000
   31      H       6.5734460000     1.5837240000     1.5181560000
   32      H       7.2762920000    -0.0668880000    -1.0321870000
   33      H       6.5479600000     1.5453730000    -1.1166560000
   34      H       5.7830450000     0.1866430000    -1.9440720000
 ----------------------------------------------------------------

    8    -807.2982362950      7.25e-06  Convergence criterion met
 Total energy in the final basis set =     -807.2982362950

                    Orbital Energies (a.u.)
 --------------------------------------------------------------

 Alpha MOs
 -- Occupied --
-19.1436 -19.0875 -19.0749 -10.2243 -10.2222 -10.2217 -10.1746 -10.1725
-10.1719 -10.1709 -10.1705 -10.1691 -10.1640 -10.1625 -10.1563 -10.1532
-10.1484 -10.1477  -1.0637  -1.0008  -0.9971  -0.8585  -0.8148  -0.7958
 -0.7563  -0.7505  -0.7120  -0.6755  -0.6714  -0.6343  -0.6146  -0.5861
 -0.5692  -0.5501  -0.5367  -0.5044  -0.4841  -0.4646  -0.4544  -0.4513
 -0.4395  -0.4288  -0.4257  -0.4180  -0.4176  -0.4102  -0.3924  -0.3896
 -0.3817  -0.3770  -0.3758  -0.3697  -0.3520  -0.3483  -0.3439  -0.3384
 -0.3356  -0.3185  -0.3134  -0.3109  -0.2675  -0.2612  -0.2579  -0.2407
 -0.2276  -0.1517

 Beta MOs
 -- Occupied --
-19.1430 -19.0815 -19.0699 -10.2228 -10.2207 -10.2191 -10.1744 -10.1718
-10.1714 -10.1701 -10.1700 -10.1693 -10.1640 -10.1617 -10.1563 -10.1531
-10.1484 -10.1477  -1.0614  -0.9920  -0.9869  -0.8561  -0.8129  -0.7936
 -0.7543  -0.7485  -0.7104  -0.6755  -0.6633  -0.6327  -0.6126  -0.5840
 -0.5667  -0.5500  -0.5349  -0.5020  -0.4815  -0.4632  -0.4535  -0.4506
 -0.4352  -0.4259  -0.4208  -0.4150  -0.4134  -0.4077  -0.3905  -0.3810
 -0.3779  -0.3764  -0.3737  -0.3606  -0.3500  -0.3434  -0.3381  -0.3346
 -0.3277  -0.3172  -0.3130  -0.3105  -0.2560  -0.2509  -0.2484  -0.2360
 -0.2189

          Ground-State Mulliken Net Atomic Charges

     Atom                 Charge (a.u.)    Spin (a.u.)
  --------------------------------------------------------
      1 C                     0.108052       0.074284
      2 C                    -0.411046       0.002035
      3 C                    -0.463186       0.070118
      4 C                     0.244731      -0.005582
      5 C                     0.022071       0.058823
      6 C                     0.117672       0.006915
      7 C                    -0.846045       0.176320
      8 C                    -0.652426       0.060181
      9 C                     2.036984       0.041750
     10 C                    -0.807815       0.086076
     11 O                    -0.538501       0.223802
     12 O                    -0.474752       0.189615
     13 H                     0.174762      -0.003807
     14 H                     0.198886      -0.000978
     15 H                     0.195323      -0.004857
     16 H                     0.170916      -0.000592
     17 O                    -0.289401       0.016765
     18 H                     0.301496      -0.003461
     19 C                    -0.272399       0.006810
     20 C                    -0.680352       0.001753
     21 C                     0.433998       0.002676
     22 C                    -0.655391      -0.000909
     23 C                    -0.667342      -0.000135
     24 H                     0.206981      -0.000912
     25 H                     0.192876       0.002552
     26 H                     0.168587      -0.001910
     27 H                     0.160756       0.002006
     28 H                     0.139464       0.000440
     29 H                     0.153991       0.000065
     30 H                     0.139862       0.000007
     31 H                     0.145435      -0.000019
     32 H                     0.151224       0.000251
     33 H                     0.147030       0.000001
     34 H                     0.147558      -0.000085
  --------------------------------------------------------
  Sum of atomic charges =    -1.000000

                    Cartesian Multipole Moments
 -----------------------------------------------------------------
    Charge (ESU x 10^10)
                -4.8032
    Dipole Moment (Debye)
         X      -3.9547      Y      -8.1647      Z       2.8088
       Tot       9.4969
    Quadrupole Moments (Debye-Ang)
        XX    -118.0109     XY      -3.1549     YY    -147.8049
        XZ      -1.3120     YZ      17.6543     ZZ    -124.6021

 Total job time:  90.30s(wall), 554.08s(cpu)
        *  Thank you very much for using Q-Chem.  Have a nice day.  *
