 Q-Chem 5.4, Q-Chem, Inc., Pleasanton, CA (2021)
 Q-Chem 5.4.0 for Intel X86 EM64T Linux

User input:
--------------------------------------------------------------
$molecule
0 1
N                 -2.9263150000      1.8492790000      0.2750490000
C                 -2.5270110000      0.5596000000      0.1319940000
C                 -3.5009360000     -0.4650550000      0.0561820000
C                 -3.1379720000     -1.7873290000     -0.0895120000
C                 -1.7898700000     -2.1541840000     -0.1667580000
C                 -0.8100980000     -1.1754900000     -0.0958210000
C                  0.6162550000     -1.6192270000     -0.1829430000
O                  0.9066300000     -2.7983140000     -0.3110370000
C                  1.6700140000     -0.5717340000     -0.1079090000
C                  3.0157270000     -0.9451450000     -0.1864330000
C                  4.0122340000      0.0202240000     -0.1180020000
C                  3.6709410000      1.3679580000      0.0297280000
C                  2.3361380000      1.7464010000      0.1085180000
C                  1.3260120000      0.7810110000      0.0404190000
C                 -0.0989320000      1.2188950000      0.1278330000
O                 -0.3512500000      2.4217520000      0.2588700000
C                 -1.1483460000      0.1959880000      0.0541090000
H                 -3.9051990000      2.0712050000      0.3295710000
H                 -2.2194550000      2.5716590000      0.3300430000
H                 -4.5491150000     -0.1898550000      0.1152700000
H                 -3.9082100000     -2.5486300000     -0.1444270000
H                 -1.4894480000     -3.1870210000     -0.2809590000
H                  3.2534940000     -1.9954840000     -0.3006700000
H                  5.0544620000     -0.2719040000     -0.1792110000
H                  4.4492230000      2.1209200000      0.0830760000
H                  2.0510270000      2.7844810000      0.2230200000
$end

$rem
BASIS  =  6-311++G(d,p)
GUI  =  2
JOB_TYPE  =  SP
METHOD  =  B3LYP
SCF_CONVERGENCE  = 8
SOLVENT_METHOD = sm12
$end

$smx
solvent dimethylformamide
charges CM5
$end

--------------------------------------------------------------

             Standard Nuclear Orientation (Angstroms)
    I     Atom           X                Y                Z
 ----------------------------------------------------------------
    1      N      -2.9263150000     1.8492790000     0.2750490000
    2      C      -2.5270110000     0.5596000000     0.1319940000
    3      C      -3.5009360000    -0.4650550000     0.0561820000
    4      C      -3.1379720000    -1.7873290000    -0.0895120000
    5      C      -1.7898700000    -2.1541840000    -0.1667580000
    6      C      -0.8100980000    -1.1754900000    -0.0958210000
    7      C       0.6162550000    -1.6192270000    -0.1829430000
    8      O       0.9066300000    -2.7983140000    -0.3110370000
    9      C       1.6700140000    -0.5717340000    -0.1079090000
   10      C       3.0157270000    -0.9451450000    -0.1864330000
   11      C       4.0122340000     0.0202240000    -0.1180020000
   12      C       3.6709410000     1.3679580000     0.0297280000
   13      C       2.3361380000     1.7464010000     0.1085180000
   14      C       1.3260120000     0.7810110000     0.0404190000
   15      C      -0.0989320000     1.2188950000     0.1278330000
   16      O      -0.3512500000     2.4217520000     0.2588700000
   17      C      -1.1483460000     0.1959880000     0.0541090000
   18      H      -3.9051990000     2.0712050000     0.3295710000
   19      H      -2.2194550000     2.5716590000     0.3300430000
   20      H      -4.5491150000    -0.1898550000     0.1152700000
   21      H      -3.9082100000    -2.5486300000    -0.1444270000
   22      H      -1.4894480000    -3.1870210000    -0.2809590000
   23      H       3.2534940000    -1.9954840000    -0.3006700000
   24      H       5.0544620000    -0.2719040000    -0.1792110000
   25      H       4.4492230000     2.1209200000     0.0830760000
   26      H       2.0510270000     2.7844810000     0.2230200000
 ----------------------------------------------------------------

   15    -744.3359616611      3.20e-09  Convergence criterion met
 Total energy in the final basis set =     -744.3595116624

                    Orbital Energies (a.u.)
 --------------------------------------------------------------

 Alpha MOs
 -- Occupied --
-19.1233 -19.1222 -14.3327 -10.2763 -10.2756 -10.2470 -10.2055 -10.2046
-10.2040 -10.2000 -10.1959 -10.1958 -10.1951 -10.1946 -10.1937 -10.1914
-10.1851  -1.0585  -1.0554  -0.9425  -0.8871  -0.8654  -0.8085  -0.7751
 -0.7677  -0.7551  -0.6854  -0.6648  -0.6463  -0.6134  -0.5872  -0.5708
 -0.5563  -0.5255  -0.5058  -0.4992  -0.4825  -0.4732  -0.4673  -0.4533
 -0.4493  -0.4480  -0.4390  -0.4278  -0.4158  -0.4001  -0.3914  -0.3866
 -0.3720  -0.3701  -0.3644  -0.3322  -0.2864  -0.2822  -0.2754  -0.2740
 -0.2698  -0.2250

          Ground-State Mulliken Net Atomic Charges

     Atom                 Charge (a.u.)
  ----------------------------------------
      1 N                    -0.315960
      2 C                     0.334016
      3 C                     1.511247
      4 C                     0.361232
      5 C                    -0.261120
      6 C                    -0.261791
      7 C                    -1.624058
      8 O                    -0.268083
      9 C                    -0.845225
     10 C                     0.082067
     11 C                     0.389357
     12 C                     0.348031
     13 C                     0.367677
     14 C                    -0.303490
     15 C                    -1.253293
     16 O                    -0.258083
     17 C                    -0.560234
     18 H                     0.439508
     19 H                     0.291099
     20 H                     0.323421
     21 H                     0.324918
     22 H                     0.148553
     23 H                     0.182427
     24 H                     0.321543
     25 H                     0.326847
     26 H                     0.199396
  ----------------------------------------
  Sum of atomic charges =     0.000000

                    Cartesian Multipole Moments
 -----------------------------------------------------------------
    Charge (ESU x 10^10)
                 0.0000
    Dipole Moment (Debye)
         X      -2.1824      Y       1.9885      Z       0.2710
       Tot       2.9648
    Quadrupole Moments (Debye-Ang)
        XX     -62.5496     XY       2.9803     YY    -103.6061
        XZ      -0.9041     YZ      -0.2192     ZZ    -102.1363

 Total job time:  494.21s(wall), 3861.83s(cpu)
        *  Thank you very much for using Q-Chem.  Have a nice day.  *
