 Gaussian 16, Revision A.03,
 Gaussian 16:  ES64L-G16RevA.03 25-Dec-2016

 ----------------------------------------------------------------------
 #P UB3LYP/6-311++G(d,p) nosym opt freq SCRF=(PCM,Solvent=n,n-DiMethylF
 ormamide)
 ----------------------------------------------------------------------

 --------
 Oxidized
 --------
 Symbolic Z-matrix:
 Charge =  0 Multiplicity = 1

 SCF Done:  E(UB3LYP) =  -728.269756392     A.U. after   15 cycles
 SCF Done:  E(UB3LYP) =  -728.269959556     A.U. after   12 cycles
 SCF Done:  E(UB3LYP) =  -728.269993596     A.U. after   12 cycles
 SCF Done:  E(UB3LYP) =  -728.269986923     A.U. after   11 cycles
 SCF Done:  E(UB3LYP) =  -728.269995583     A.U. after   10 cycles
 SCF Done:  E(UB3LYP) =  -728.269996056     A.U. after    9 cycles
 Optimization completed.
    -- Stationary point found.
 Normal termination of Gaussian 16 at Sun Feb 11 15:29:42 2024.

 ----------------------------------------------------------------------
 #P Geom=AllCheck Guess=TCheck SCRF=Check GenChk UB3LYP/6-311++G(d,p) F
 req
 ----------------------------------------------------------------------

 Structure from the checkpoint file:  "345.chk"
 --------
 Oxidized
 --------
 Charge =  0 Multiplicity = 1

                          Input orientation:
 ---------------------------------------------------------------------
 Center     Atomic      Atomic             Coordinates (Angstroms)
 Number     Number       Type             X           Y           Z
 ---------------------------------------------------------------------
      1          8           0        1.931264   -3.126459    0.507795
      2          6           0        1.473143   -1.984625    0.370580
      3          6           0        0.054752   -1.709346    0.292985
      4          6           0       -0.435279   -0.448807    0.154680
      5          8           0        0.385067    0.627978    0.061957
      6          6           0        1.744854    0.468383    0.105464
      7          6           0        2.512428    1.629926   -0.006087
      8          6           0        3.893509    1.523074    0.037852
      9          6           0        4.510368    0.270757    0.192064
     10          6           0        3.736689   -0.871498    0.301871
     11          6           0        2.334340   -0.791664    0.260873
     12          6           0       -1.859506   -0.079788    0.068698
     13          6           0       -2.854198   -0.939822    0.560838
     14          6           0       -4.197229   -0.593032    0.460345
     15          6           0       -4.569078    0.615835   -0.129879
     16          6           0       -3.587412    1.479590   -0.614723
     17          6           0       -2.241572    1.139178   -0.513842
     18          1           0       -0.624759   -2.548841    0.332402
     19          1           0        2.018247    2.586200   -0.123867
     20          1           0        4.499657    2.417160   -0.047957
     21          1           0        5.590992    0.202333    0.224737
     22          1           0        4.190039   -1.847909    0.420727
     23          1           0       -2.582149   -1.871073    1.041558
     24          1           0       -4.953801   -1.263558    0.850683
     25          1           0       -5.616462    0.883935   -0.206526
     26          1           0       -3.868881    2.420154   -1.073736
     27          1           0       -1.485028    1.811917   -0.895544
 ---------------------------------------------------------------------

 SCF Done:  E(UB3LYP) =  -728.269996056     A.U. after    1 cycles

 Alpha  occ. eigenvalues --  -19.21382 -19.10679 -10.28140 -10.26802 -10.26782
 Alpha  occ. eigenvalues --  -10.20960 -10.20279 -10.19900 -10.19627 -10.19603
 Alpha  occ. eigenvalues --  -10.19525 -10.19346 -10.19133 -10.19112 -10.18981
 Alpha  occ. eigenvalues --  -10.18943 -10.18928  -1.13716  -1.03688  -0.89044
 Alpha  occ. eigenvalues --   -0.87778  -0.83048  -0.79719  -0.77358  -0.76442
 Alpha  occ. eigenvalues --   -0.75811  -0.68430  -0.66497  -0.62672  -0.61985
 Alpha  occ. eigenvalues --   -0.60776  -0.56772  -0.55124  -0.54503  -0.50823
 Alpha  occ. eigenvalues --   -0.49083  -0.48779  -0.47927  -0.46645  -0.45669
 Alpha  occ. eigenvalues --   -0.45052  -0.44317  -0.43905  -0.43139  -0.41050
 Alpha  occ. eigenvalues --   -0.40505  -0.39555  -0.38517  -0.37557  -0.37164
 Alpha  occ. eigenvalues --   -0.36654  -0.35715  -0.31030  -0.27922  -0.27444
 Alpha  occ. eigenvalues --   -0.26843  -0.26218  -0.25169
 Alpha virt. eigenvalues --   -0.08630  -0.05100  -0.03028  -0.02484  -0.00811
 Alpha virt. eigenvalues --    0.00013   0.00348   0.00846   0.01427   0.01871
 Alpha virt. eigenvalues --    0.03275   0.03386   0.03536   0.03756   0.04751

  Beta  occ. eigenvalues --  -19.21382 -19.10679 -10.28140 -10.26802 -10.26782
  Beta  occ. eigenvalues --  -10.20960 -10.20279 -10.19900 -10.19627 -10.19603
  Beta  occ. eigenvalues --  -10.19525 -10.19346 -10.19133 -10.19112 -10.18981
  Beta  occ. eigenvalues --  -10.18943 -10.18928  -1.13716  -1.03688  -0.89044
  Beta  occ. eigenvalues --   -0.87778  -0.83048  -0.79719  -0.77358  -0.76442
  Beta  occ. eigenvalues --   -0.75811  -0.68430  -0.66497  -0.62672  -0.61985
  Beta  occ. eigenvalues --   -0.60776  -0.56772  -0.55124  -0.54503  -0.50823
  Beta  occ. eigenvalues --   -0.49083  -0.48779  -0.47927  -0.46645  -0.45669
  Beta  occ. eigenvalues --   -0.45052  -0.44317  -0.43905  -0.43139  -0.41050
  Beta  occ. eigenvalues --   -0.40505  -0.39555  -0.38517  -0.37557  -0.37164
  Beta  occ. eigenvalues --   -0.36654  -0.35715  -0.31030  -0.27922  -0.27444
  Beta  occ. eigenvalues --   -0.26843  -0.26218  -0.25169
  Beta virt. eigenvalues --   -0.08630  -0.05100  -0.03028  -0.02484  -0.00811
  Beta virt. eigenvalues --    0.00013   0.00348   0.00846   0.01427   0.01871
  Beta virt. eigenvalues --    0.03275   0.03386   0.03536   0.03756   0.04751

 Mulliken charges and spin densities:
               1          2
     1  O   -0.407265  -0.000000
     2  C   -1.417577   0.000000
     3  C   -0.003371  -0.000000
     4  C    0.265115   0.000000
     5  O    0.044198  -0.000000
     6  C   -1.421265   0.000000
     7  C   -0.377811   0.000000
     8  C   -0.468731   0.000000
     9  C   -0.217148  -0.000000
    10  C    0.152175   0.000000
    11  C    2.379158  -0.000000
    12  C    1.126262  -0.000000
    13  C   -0.493809   0.000000
    14  C   -0.410918   0.000000
    15  C   -0.255394   0.000000
    16  C   -0.312295  -0.000000
    17  C   -0.140820  -0.000000
    18  H    0.212372  -0.000000
    19  H    0.207226   0.000000
    20  H    0.209401   0.000000
    21  H    0.201869  -0.000000
    22  H    0.187427   0.000000
    23  H    0.152930   0.000000
    24  H    0.212522  -0.000000
    25  H    0.187110  -0.000000
    26  H    0.211026  -0.000000
    27  H    0.177613   0.000000
 Sum of Mulliken charges =  -0.00000  -0.00000

 Dipole moment (field-independent basis, Debye):
    X=             -2.6872    Y=              5.8273    Z=             -0.7719  Tot=              6.4633
 Quadrupole moment (field-independent basis, Debye-Ang):
   XX=            -75.2032   YY=           -107.6100   ZZ=           -102.1318
   XY=             14.7709   XZ=             -1.9238   YZ=             -1.5728

  Exact polarizability: 372.075 -19.081 284.878   5.338 -34.024 136.148
 Approx polarizability: 393.769 -30.046 357.780   5.185 -45.334 160.147

                      1                      2                      3
                      A                      A                      A
 Frequencies --     30.2379                57.5223               102.5113
 Red. masses --      4.0112                 5.5089                 5.0513
 Frc consts  --      0.0022                 0.0107                 0.0313
 IR Inten    --      1.0599                 0.4306                 0.7997

                      4                      5                      6
                      A                      A                      A
 Frequencies --    118.6489               154.4188               202.1628
 Red. masses --      5.7819                 4.7474                 5.1682
 Frc consts  --      0.0480                 0.0667                 0.1245
 IR Inten    --      5.1965                 0.8479                 2.8345

                      7                      8                      9
                      A                      A                      A
 Frequencies --    264.3078               281.9210               295.5728
 Red. masses --      6.8012                 5.7712                 6.1904
 Frc consts  --      0.2799                 0.2703                 0.3186
 IR Inten    --      3.7242                 0.2103                 6.4632

                     10                     11                     12
                      A                      A                      A
 Frequencies --    347.8092               409.6928               434.9456
 Red. masses --      6.3328                 2.8656                 3.4531
 Frc consts  --      0.4514                 0.2834                 0.3849
 IR Inten    --      9.9725                 0.5452                 0.7361

                     13                     14                     15
                      A                      A                      A
 Frequencies --    467.7657               505.9156               514.6722
 Red. masses --      3.9555                 8.9741                 6.7911
 Frc consts  --      0.5099                 1.3533                 1.0599
 IR Inten    --      6.9201                 5.8025                 4.7602

                     16                     17                     18
                      A                      A                      A
 Frequencies --    535.0734               587.2251               612.6919
 Red. masses --      3.4625                 8.5909                 5.7339
 Frc consts  --      0.5841                 1.7454                 1.2682
 IR Inten    --      8.3441                 1.9066                28.9647

                     19                     20                     21
                      A                      A                      A
 Frequencies --    631.1789               668.3980               684.7301
 Red. masses --      6.4397                 4.8405                 6.5460
 Frc consts  --      1.5115                 1.2741                 1.8083
 IR Inten    --      0.2040                 2.2359                 8.6774

                     22                     23                     24
                      A                      A                      A
 Frequencies --    686.3987               700.9981               754.6538
 Red. masses --      3.0469                 1.7422                 5.3259
 Frc consts  --      0.8458                 0.5044                 1.7871
 IR Inten    --     27.7107                59.9033                 7.4837

                     25                     26                     27
                      A                      A                      A
 Frequencies --    766.6071               783.6336               790.8373
 Red. masses --      2.3363                 1.5966                 2.0326
 Frc consts  --      0.8089                 0.5777                 0.7490
 IR Inten    --     39.1708               140.1660                 4.8029

                     28                     29                     30
                      A                      A                      A
 Frequencies --    854.9312               859.6922               867.0932
 Red. masses --      1.2896                 4.9025                 1.6108
 Frc consts  --      0.5554                 2.1348                 0.7135
 IR Inten    --      4.8001                17.1590                33.2108

                     31                     32                     33
                      A                      A                      A
 Frequencies --    882.6923               920.6452               947.8550
 Red. masses --      1.5161                 6.7009                 1.4324
 Frc consts  --      0.6960                 3.3463                 0.7582
 IR Inten    --      3.8907                48.7727                 2.9321

                     34                     35                     36
                      A                      A                      A
 Frequencies --    983.5660               997.9088              1008.2753
 Red. masses --      1.3607                 1.3789                 1.3042
 Frc consts  --      0.7756                 0.8090                 0.7812
 IR Inten    --      2.1676                 0.8003                 0.0017

                     37                     38                     39
                      A                      A                      A
 Frequencies --   1013.3763              1015.8522              1032.1327
 Red. masses --      5.8429                 1.3118                 3.8225
 Frc consts  --      3.5352                 0.7976                 2.3992
 IR Inten    --      4.2955                 0.4449                11.7862

                     40                     41                     42
                      A                      A                      A
 Frequencies --   1047.1401              1064.8617              1107.1653
 Red. masses --      2.2102                 2.1957                 1.5892
 Frc consts  --      1.4279                 1.4669                 1.1478
 IR Inten    --     31.5453                41.0477                22.9903

                     43                     44                     45
                      A                      A                      A
 Frequencies --   1111.3460              1148.5402              1170.9713
 Red. masses --      2.9124                 1.5942                 1.2307
 Frc consts  --      2.1194                 1.2391                 0.9942
 IR Inten    --      0.1479                78.8589                 0.2597

                     46                     47                     48
                      A                      A                      A
 Frequencies --   1181.0438              1204.3583              1231.0597
 Red. masses --      1.1034                 1.1428                 3.1794
 Frc consts  --      0.9068                 0.9767                 2.8389
 IR Inten    --      0.3201                20.4174                71.3752

                     49                     50                     51
                      A                      A                      A
 Frequencies --   1253.5464              1275.4433              1307.2208
 Red. masses --      2.5519                 1.8562                 2.5247
 Frc consts  --      2.3626                 1.7791                 2.5419
 IR Inten    --     11.7592                89.7548                19.0956

                     52                     53                     54
                      A                      A                      A
 Frequencies --   1330.4164              1355.4414              1359.9471
 Red. masses --      3.0792                 2.2430                 3.5914
 Frc consts  --      3.2112                 2.4279                 3.9134
 IR Inten    --     76.7115                21.8907                11.1152

                     55                     56                     57
                      A                      A                      A
 Frequencies --   1388.8051              1475.9589              1488.0785
 Red. masses --      3.8762                 2.2302                 2.6127
 Frc consts  --      4.4050                 2.8625                 3.4087
 IR Inten    --    593.5597                44.9803               132.2956

                     58                     59                     60
                      A                      A                      A
 Frequencies --   1498.6371              1522.8362              1594.1999
 Red. masses --      2.6336                 2.2085                 5.8832
 Frc consts  --      3.4849                 3.0175                 8.8094
 IR Inten    --     38.9747                23.9046               293.0441

                     61                     62                     63
                      A                      A                      A
 Frequencies --   1610.5541              1628.3222              1636.9153
 Red. masses --      5.8038                 7.9432                 5.5332
 Frc consts  --      8.8698                12.4087                 8.7354
 IR Inten    --     27.6492               277.3566                97.4641

                     64                     65                     66
                      A                      A                      A
 Frequencies --   1641.6146              1652.9046              3172.2320
 Red. masses --      7.5894                 7.8182                 1.0863
 Frc consts  --     12.0504                12.5850                 6.4409
 IR Inten    --    972.5687               221.0650                 0.3582

                     67                     68                     69
                      A                      A                      A
 Frequencies --   3179.3662              3180.9675              3189.9415
 Red. masses --      1.0871                 1.0893                 1.0899
 Frc consts  --      6.4741                 6.4941                 6.5342
 IR Inten    --      2.8114                 9.5431                 6.3869

                     70                     71                     72
                      A                      A                      A
 Frequencies --   3190.1987              3198.5083              3199.3971
 Red. masses --      1.0932                 1.0958                 1.0938
 Frc consts  --      6.5552                 6.6048                 6.5969
 IR Inten    --     26.3571                15.0125                11.7515

                     73                     74                     75
                      A                      A                      A
 Frequencies --   3204.1974              3207.6121              3219.8677
 Red. masses --      1.0972                 1.0938                 1.0913
 Frc consts  --      6.6370                 6.6305                 6.6659
 IR Inten    --     11.3315                 6.3993                 1.6332

 - Thermochemistry -
 -------------------
 Temperature   298.150 Kelvin.  Pressure   1.00000 Atm.
 Atom     1 has atomic number  8 and mass  15.99491

 Molecular mass:   222.06808 amu.
 Principal axes and moments of inertia in atomic units:
                           1         2         3
     Eigenvalues --  1553.220376579.710268067.67888
           X            0.99704   0.07378  -0.02173
           Y           -0.06867   0.98122   0.18028
           Z            0.03463  -0.17825   0.98338
 This molecule is an asymmetric top.
 Rotational symmetry number  1.
 Warning -- assumption of classical behavior for rotation
           may cause significant error
 Rotational temperatures (Kelvin)      0.05576     0.01316     0.01074
 Rotational constants (GHZ):           1.16194     0.27429     0.22370
 Zero-point vibrational energy     544325.8 (Joules/Mol)
                                  130.09699 (Kcal/Mol)
 Warning -- explicit consideration of  18 degrees of freedom as
           vibrations may cause significant error
 Vibrational temperatures:     43.51    82.76   147.49   170.71   222.17
          (Kelvin)            290.87   380.28   405.62   425.26   500.42
                              589.46   625.79   673.01   727.90   740.50
                              769.85   844.89   881.53   908.13   961.68
                              985.17   987.57  1008.58  1085.78  1102.98
                             1127.47  1137.84  1230.06  1236.91  1247.55
                             1270.00  1324.60  1363.75  1415.13  1435.77
                             1450.68  1458.02  1461.58  1485.01  1506.60
                             1532.10  1592.96  1598.98  1652.49  1684.77
                             1699.26  1732.80  1771.22  1803.57  1835.08
                             1880.80  1914.17  1950.18  1956.66  1998.18
                             2123.58  2141.01  2156.20  2191.02  2293.70
                             2317.23  2342.79  2355.16  2361.92  2378.16
                             4564.13  4574.40  4576.70  4589.61  4589.98
                             4601.94  4603.22  4610.13  4615.04  4632.67

 Zero-point correction=                           0.207323 (Hartree/Particle)
 Thermal correction to Energy=                    0.219777
 Thermal correction to Enthalpy=                  0.220721
 Thermal correction to Gibbs Free Energy=         0.167358
 Sum of electronic and zero-point Energies=           -728.062673
 Sum of electronic and thermal Energies=              -728.050219
 Sum of electronic and thermal Enthalpies=            -728.049275
 Sum of electronic and thermal Free Energies=         -728.102638

                     E (Thermal)             CV                S
                      KCal/Mol        Cal/Mol-Kelvin    Cal/Mol-Kelvin
 Total                  137.912             50.401            112.313
 Electronic               0.000              0.000              0.000
 Translational            0.889              2.981             42.096
 Rotational               0.889              2.981             32.778
 Vibrational            136.135             44.439             37.440
 Vibration     1          0.594              1.984              5.814
 Vibration     2          0.596              1.974              4.540
 Vibration     3          0.605              1.947              3.406
 Vibration     4          0.609              1.934              3.122
 Vibration     5          0.620              1.898              2.617
 Vibration     6          0.639              1.837              2.113
 Vibration     7          0.671              1.738              1.633
 Vibration     8          0.681              1.707              1.522
 Vibration     9          0.690              1.682              1.442
 Vibration    10          0.725              1.580              1.176
 Vibration    11          0.774              1.449              0.928
 Vibration    12          0.796              1.394              0.843
 Vibration    13          0.825              1.322              0.744
 Vibration    14          0.861              1.237              0.643
 Vibration    15          0.870              1.217              0.622
 Vibration    16          0.890              1.172              0.576
 Vibration    17          0.944              1.059              0.472
 Vibration    18          0.972              1.005              0.428

                           ! Non-Optimized Parameters !
 Normal termination of Gaussian 16 at Sun Feb 11 16:13:52 2024.
