 Q-Chem 5.4, Q-Chem, Inc., Pleasanton, CA (2021)
 Q-Chem 5.4.0 for Intel X86 EM64T Linux

User input:
--------------------------------------------------------------
$molecule
0 1
C                 -1.4501230000     -2.6074110000      0.9637230000
C                 -2.2887670000     -2.1473870000     -0.2019070000
C                 -1.9865880000     -0.9651080000     -0.7834070000
C                 -0.8719370000     -0.1041010000     -0.3438820000
C                 -0.0680470000     -0.5635220000      0.8146380000
C                 -0.3467790000     -1.7233570000      1.4198200000
O                 -1.6410820000     -3.6745180000      1.5201260000
O                 -0.6242220000      0.9531760000     -0.9052570000
C                 -3.3930650000     -3.0013170000     -0.6906320000
C                 -4.2643220000     -3.6572560000      0.1935080000
C                 -3.6051770000     -3.1422450000     -2.0715010000
C                 -4.6620380000     -3.9058850000     -2.5557700000
C                 -5.3270390000     -4.4111150000     -0.2945350000
C                 -5.5295490000     -4.5399520000     -1.6676970000
H                 -2.5714890000     -0.5740730000     -1.6085340000
H                  0.7405460000      0.0867380000      1.1297250000
H                  0.2185400000     -2.0941750000      2.2677340000
H                 -4.1142590000     -3.5717570000      1.2607270000
H                 -2.9215640000     -2.6702370000     -2.7679430000
H                 -4.8030330000     -4.0119920000     -3.6253530000
H                 -5.9972290000     -4.9025450000      0.4015030000
H                 -6.3536970000     -5.1357000000     -2.0433660000
$end

$rem
BASIS  =  6-311++G(d,p)
GUI  =  2
JOB_TYPE  =  SP
METHOD  =  B3LYP
SCF_CONVERGENCE  = 8
SOLVENT_METHOD = sm12
$end

$smx
solvent dimethylformamide
charges CM5
$end

--------------------------------------------------------------

             Standard Nuclear Orientation (Angstroms)
    I     Atom           X                Y                Z
 ----------------------------------------------------------------
    1      C      -1.4501230000    -2.6074110000     0.9637230000
    2      C      -2.2887670000    -2.1473870000    -0.2019070000
    3      C      -1.9865880000    -0.9651080000    -0.7834070000
    4      C      -0.8719370000    -0.1041010000    -0.3438820000
    5      C      -0.0680470000    -0.5635220000     0.8146380000
    6      C      -0.3467790000    -1.7233570000     1.4198200000
    7      O      -1.6410820000    -3.6745180000     1.5201260000
    8      O      -0.6242220000     0.9531760000    -0.9052570000
    9      C      -3.3930650000    -3.0013170000    -0.6906320000
   10      C      -4.2643220000    -3.6572560000     0.1935080000
   11      C      -3.6051770000    -3.1422450000    -2.0715010000
   12      C      -4.6620380000    -3.9058850000    -2.5557700000
   13      C      -5.3270390000    -4.4111150000    -0.2945350000
   14      C      -5.5295490000    -4.5399520000    -1.6676970000
   15      H      -2.5714890000    -0.5740730000    -1.6085340000
   16      H       0.7405460000     0.0867380000     1.1297250000
   17      H       0.2185400000    -2.0941750000     2.2677340000
   18      H      -4.1142590000    -3.5717570000     1.2607270000
   19      H      -2.9215640000    -2.6702370000    -2.7679430000
   20      H      -4.8030330000    -4.0119920000    -3.6253530000
   21      H      -5.9972290000    -4.9025450000     0.4015030000
   22      H      -6.3536970000    -5.1357000000    -2.0433660000
 ----------------------------------------------------------------

   15    -612.6725723336      2.82e-09  Convergence criterion met
 Total energy in the final basis set =     -612.6922257788

                    Orbital Energies (a.u.)
 --------------------------------------------------------------

 Alpha MOs
 -- Occupied --
-19.1423 -19.1366 -10.2893 -10.2822 -10.2258 -10.2106 -10.2097 -10.2073
-10.2040 -10.1899 -10.1888 -10.1872 -10.1859 -10.1854  -1.0742  -1.0657
 -0.8831  -0.8589  -0.8090  -0.7616  -0.7544  -0.7076  -0.6520  -0.6299
 -0.6103  -0.5898  -0.5335  -0.5233  -0.5062  -0.4862  -0.4717  -0.4666
 -0.4523  -0.4478  -0.4404  -0.4336  -0.4272  -0.4194  -0.4059  -0.3845
 -0.3676  -0.3592  -0.3176  -0.3080  -0.2899  -0.2784  -0.2681  -0.2582

          Ground-State Mulliken Net Atomic Charges

     Atom                 Charge (a.u.)
  ----------------------------------------
      1 C                    -1.570096
      2 C                     1.766443
      3 C                    -0.205465
      4 C                    -1.012571
      5 C                     0.553984
      6 C                     0.568946
      7 O                    -0.283821
      8 O                    -0.335343
      9 C                     0.728184
     10 C                    -1.151474
     11 C                    -0.521121
     12 C                    -0.109200
     13 C                    -0.173381
     14 C                    -0.430927
     15 H                     0.297228
     16 H                     0.326596
     17 H                     0.333815
     18 H                     0.152644
     19 H                     0.266229
     20 H                     0.271094
     21 H                     0.264735
     22 H                     0.263501
  ----------------------------------------
  Sum of atomic charges =     0.000000

                    Cartesian Multipole Moments
 -----------------------------------------------------------------
    Charge (ESU x 10^10)
                 0.0000
    Dipole Moment (Debye)
         X      -0.8807      Y      -1.0347      Z      -0.0388
       Tot       1.3593
    Quadrupole Moments (Debye-Ang)
        XX     -68.4182     XY       7.5472     YY     -89.7363
        XZ       6.9723     YZ       9.4891     ZZ     -74.9638

 Total job time:  331.34s(wall), 2443.97s(cpu)
        *  Thank you very much for using Q-Chem.  Have a nice day.  *
