 Gaussian 16, Revision A.03,
 Gaussian 16:  ES64L-G16RevA.03 25-Dec-2016

 --------------------------------------
 #P UB3LYP/6-311++G(d,p) nosym opt freq
 --------------------------------------

 -------
 Radical
 -------
 Symbolic Z-matrix:
 Charge = -1 Multiplicity = 2

 SCF Done:  E(UB3LYP) =  -767.673246365     A.U. after   23 cycles
 Optimization completed.
    -- Stationary point found.
 Normal termination of Gaussian 16 at Wed Dec 27 20:00:13 2023.

 ----------------------------------------------------------------------
 #P Geom=AllCheck Guess=TCheck SCRF=Check GenChk UB3LYP/6-311++G(d,p) F
 req
 ----------------------------------------------------------------------

 Structure from the checkpoint file:  "130-rad.chk"
 -------
 Radical
 -------
 Charge = -1 Multiplicity = 2

                          Input orientation:
 ---------------------------------------------------------------------
 Center     Atomic      Atomic             Coordinates (Angstroms)
 Number     Number       Type             X           Y           Z
 ---------------------------------------------------------------------
      1          6           0       -3.376286    3.491116    0.027371
      2          6           0       -4.597628    2.846593    0.073215
      3          6           0       -4.610480    1.428819    0.120155
      4          6           0       -2.151135    2.784800    0.025922
      5          6           0       -2.178124    1.362132    0.073377
      6          6           0       -3.431658    0.713649    0.119959
      7          6           0       -0.895601    3.534924   -0.024140
      8          6           0        0.330002    2.735262   -0.022465
      9          6           0        0.301977    1.312617    0.025040
     10          6           0       -0.953077    0.560593    0.075152
     11          6           0        1.581503    3.392082   -0.069335
     12          6           0        2.776997    2.699260   -0.070624
     13          6           0        2.735031    1.282070   -0.023034
     14          6           0        1.529476    0.614557    0.023310
     15          8           0       -0.871328    4.792541   -0.066119
     16          8           0       -0.977304   -0.694839    0.117061
     17          6           0       -5.897869    3.615732    0.074121
     18          1           0       -5.562371    0.904182    0.156570
     19          1           0       -3.429936   -0.369950    0.155571
     20          1           0        1.485843   -0.468130    0.059898
     21          6           0        4.105949    3.415871   -0.121116
     22          1           0        3.665902    0.719799   -0.023284
     23          1           0       -3.318097    4.573923   -0.009439
     24          1           0        1.565233    4.476377   -0.104718
     25          1           0       -5.718226    4.692845    0.034917
     26          1           0       -6.487928    3.406615    0.974798
     27          1           0       -6.523610    3.348449   -0.786185
     28          1           0        3.968060    4.499343   -0.153683
     29          1           0        4.686233    3.124824   -1.005245
     30          1           0        4.722112    3.182323    0.755761
 ---------------------------------------------------------------------

 SCF Done:  E(UB3LYP) =  -767.673246365     A.U. after    1 cycles

 Alpha  occ. eigenvalues --  -18.94369 -18.94243 -10.09411 -10.09163 -10.07028
 Alpha  occ. eigenvalues --  -10.07028 -10.06563 -10.06563 -10.05412 -10.05412
 Alpha  occ. eigenvalues --  -10.04996 -10.04995 -10.04704 -10.04703 -10.04620
 Alpha  occ. eigenvalues --  -10.04620 -10.04546 -10.04546  -0.86984  -0.86651
 Alpha  occ. eigenvalues --   -0.74144  -0.73515  -0.67943  -0.65563  -0.63558
 Alpha  occ. eigenvalues --   -0.62409  -0.59656  -0.57350  -0.53673  -0.50333
 Alpha  occ. eigenvalues --   -0.48533  -0.46542  -0.43269  -0.40381  -0.39625
 Alpha  occ. eigenvalues --   -0.35537  -0.34251  -0.33924  -0.33099  -0.32258
 Alpha  occ. eigenvalues --   -0.32174  -0.30715  -0.30349  -0.29530  -0.29068
 Alpha  occ. eigenvalues --   -0.28938  -0.27827  -0.27050  -0.26666  -0.25540
 Alpha  occ. eigenvalues --   -0.24653  -0.23586  -0.22537  -0.22269  -0.20792
 Alpha  occ. eigenvalues --   -0.20733  -0.13761  -0.13529  -0.12949  -0.12042
 Alpha  occ. eigenvalues --   -0.11292  -0.10438  -0.01243
 Alpha virt. eigenvalues --    0.07186   0.07484   0.07534   0.09185   0.09636
 Alpha virt. eigenvalues --    0.09792   0.10832   0.11071   0.11339   0.11885
 Alpha virt. eigenvalues --    0.12203   0.12635   0.13249   0.13903   0.14284

  Beta  occ. eigenvalues --  -18.93799 -18.93625 -10.09285 -10.09018 -10.07033
  Beta  occ. eigenvalues --  -10.07033 -10.06513 -10.06513 -10.05360 -10.05360
  Beta  occ. eigenvalues --  -10.05014 -10.05014 -10.04644 -10.04643 -10.04588
  Beta  occ. eigenvalues --  -10.04587 -10.04456 -10.04456  -0.85996  -0.85582
  Beta  occ. eigenvalues --   -0.73911  -0.73406  -0.67608  -0.65465  -0.63327
  Beta  occ. eigenvalues --   -0.62275  -0.59427  -0.57236  -0.53033  -0.50173
  Beta  occ. eigenvalues --   -0.48295  -0.46484  -0.43037  -0.40140  -0.39506
  Beta  occ. eigenvalues --   -0.35406  -0.34178  -0.33692  -0.32963  -0.32153
  Beta  occ. eigenvalues --   -0.32100  -0.30651  -0.30292  -0.29467  -0.28954
  Beta  occ. eigenvalues --   -0.27720  -0.27268  -0.26976  -0.26444  -0.25354
  Beta  occ. eigenvalues --   -0.23293  -0.22468  -0.22319  -0.22160  -0.20596
  Beta  occ. eigenvalues --   -0.19565  -0.13202  -0.12090  -0.11479  -0.11390
  Beta  occ. eigenvalues --   -0.10742  -0.09881
  Beta virt. eigenvalues --    0.04663   0.07473   0.07522   0.07972   0.09621
  Beta virt. eigenvalues --    0.09774   0.09845   0.10892   0.11070   0.11611
  Beta virt. eigenvalues --    0.11875   0.12508   0.12626   0.13242   0.13891

 Mulliken charges and spin densities:
               1          2
     1  C   -0.268844   0.012231
     2  C    0.474864   0.029724
     3  C   -0.483251   0.048805
     4  C    0.259412   0.066966
     5  C    0.185738   0.043533
     6  C    0.196597   0.014097
     7  C   -0.608359   0.080607
     8  C    0.259203   0.066950
     9  C    0.185741   0.043538
    10  C   -1.272206   0.049104
    11  C   -0.268934   0.012232
    12  C    0.474946   0.029719
    13  C   -0.483299   0.048808
    14  C    0.196595   0.014097
    15  O   -0.365515   0.231760
    16  O   -0.361494   0.212601
    17  C   -0.374152  -0.002600
    18  H    0.120589  -0.003844
    19  H    0.161256  -0.000634
    20  H    0.161257  -0.000634
    21  C   -0.374166  -0.002601
    22  H    0.120588  -0.003844
    23  H    0.115977  -0.001733
    24  H    0.115971  -0.001733
    25  H    0.151893   0.000023
    26  H    0.131936   0.003201
    27  H    0.131915   0.003201
    28  H    0.151895   0.000023
    29  H    0.131943   0.003201
    30  H    0.131905   0.003200
 Sum of Mulliken charges =  -1.00000   1.00000

 Dipole moment (field-independent basis, Debye):
    X=              4.4390    Y=             -9.8780    Z=             -0.1211  Tot=             10.8302
 Quadrupole moment (field-independent basis, Debye-Ang):
   XX=           -125.4134   YY=           -160.5287   ZZ=           -112.7883
   XY=              8.7696   XZ=              0.2962   YZ=              0.6645

  Exact polarizability: 391.083  -3.236 233.135  -5.543  -3.963 111.088
 Approx polarizability: 541.698  -2.187 440.918  -7.284  -8.660 177.380

                      1                      2                      3
                      A                      A                      A
 Frequencies --     43.2525                84.9270                88.2994
 Red. masses --      4.9188                 1.6173                 1.1006
 Frc consts  --      0.0054                 0.0069                 0.0051
 IR Inten    --      5.6028                 0.0000                 0.1039

                      4                      5                      6
                      A                      A                      A
 Frequencies --     90.5284               115.0217               158.4329
 Red. masses --      1.6193                 4.5292                 6.6235
 Frc consts  --      0.0078                 0.0353                 0.0980
 IR Inten    --      0.0000                 1.1331                 1.7663

                      7                      8                      9
                      A                      A                      A
 Frequencies --    162.5277               174.5587               235.3974
 Red. masses --      3.7529                 3.8045                 4.3489
 Frc consts  --      0.0584                 0.0683                 0.1420
 IR Inten    --      3.5249                 0.0000                 0.4663

                     10                     11                     12
                      A                      A                      A
 Frequencies --    256.2761               305.3865               318.8942
 Red. masses --      4.2045                 4.3781                 5.0117
 Frc consts  --      0.1627                 0.2406                 0.3003
 IR Inten    --      4.7807                 0.0000                 1.6162

                     13                     14                     15
                      A                      A                      A
 Frequencies --    350.4642               368.0391               376.3563
 Red. masses --      6.1637                 3.4621                 6.9523
 Frc consts  --      0.4460                 0.2763                 0.5802
 IR Inten    --      3.5308                 1.5356                 1.9584

                     16                     17                     18
                      A                      A                      A
 Frequencies --    421.2046               434.8471               455.5832
 Red. masses --      3.8225                 4.7310                 4.6176
 Frc consts  --      0.3996                 0.5271                 0.5647
 IR Inten    --      0.6456                 1.6368                 9.5936

                     19                     20                     21
                      A                      A                      A
 Frequencies --    468.9297               485.3309               540.8651
 Red. masses --      3.1404                11.9678                 3.9370
 Frc consts  --      0.4069                 1.6609                 0.6786
 IR Inten    --      0.0000                 0.5597                 0.0000

                     22                     23                     24
                      A                      A                      A
 Frequencies --    581.6927               597.1509               647.0792
 Red. masses --      5.0784                 5.7933                 3.7359
 Frc consts  --      1.0124                 1.2171                 0.9216
 IR Inten    --     12.0001                 0.6108                10.1374

                     25                     26                     27
                      A                      A                      A
 Frequencies --    663.7732               711.0181               721.2037
 Red. masses --      7.2950                 6.6511                 4.0076
 Frc consts  --      1.8937                 1.9811                 1.2281
 IR Inten    --      0.6664                 0.6224                32.5461

                     28                     29                     30
                      A                      A                      A
 Frequencies --    727.4728               732.1029               780.7649
 Red. masses --      5.6113                 4.4085                 6.0494
 Frc consts  --      1.7496                 1.3921                 2.1727
 IR Inten    --      4.2057                 0.0001                 9.6205

                     31                     32                     33
                      A                      A                      A
 Frequencies --    800.9153               811.1372               836.7194
 Red. masses --      2.3129                 1.3471                 2.5067
 Frc consts  --      0.8741                 0.5222                 1.0340
 IR Inten    --     11.0414                 0.0000                22.6267

                     34                     35                     36
                      A                      A                      A
 Frequencies --    909.2398               925.9036               931.2894
 Red. masses --      3.9793                 1.3270                 1.4139
 Frc consts  --      1.9383                 0.6703                 0.7225
 IR Inten    --      1.7269                 0.0006                10.5143

                     37                     38                     39
                      A                      A                      A
 Frequencies --    936.6207               978.0953               979.4052
 Red. masses --      6.6118                 1.7645                 1.2993
 Frc consts  --      3.4174                 0.9946                 0.7343
 IR Inten    --     21.1539                 0.1167                 0.0001

                     40                     41                     42
                      A                      A                      A
 Frequencies --    984.1314              1011.1001              1037.8295
 Red. masses --      1.3377                 1.4686                 1.9497
 Frc consts  --      0.7633                 0.8846                 1.2373
 IR Inten    --      3.0069                 2.4692                10.9012

                     43                     44                     45
                      A                      A                      A
 Frequencies --   1056.2000              1056.3708              1106.2848
 Red. masses --      1.4945                 1.4953                 2.7542
 Frc consts  --      0.9823                 0.9832                 1.9860
 IR Inten    --      0.0594                 4.9547                 6.4563

                     46                     47                     48
                      A                      A                      A
 Frequencies --   1123.3000              1150.0850              1173.8001
 Red. masses --      1.6723                 1.4088                 2.8032
 Frc consts  --      1.2432                 1.0979                 2.2756
 IR Inten    --      5.4374                 7.8118                10.5885

                     49                     50                     51
                      A                      A                      A
 Frequencies --   1197.8741              1223.6167              1225.2974
 Red. masses --      2.4928                 4.5128                 1.7421
 Frc consts  --      2.1075                 3.9810                 1.5410
 IR Inten    --      2.9409                72.9264                 0.2481

                     52                     53                     54
                      A                      A                      A
 Frequencies --   1234.5189              1269.5160              1324.0490
 Red. masses --      3.0755                 1.8329                 1.9857
 Frc consts  --      2.7616                 1.7405                 2.0510
 IR Inten    --     33.4281                38.3788                 0.0452

                     55                     56                     57
                      A                      A                      A
 Frequencies --   1362.0113              1364.5528              1393.8405
 Red. masses --      7.9617                 8.3287                 2.1578
 Frc consts  --      8.7020                 9.1371                 2.4700
 IR Inten    --     14.4984                33.3646               178.5590

                     58                     59                     60
                      A                      A                      A
 Frequencies --   1402.5805              1406.9573              1449.6124
 Red. masses --      1.2610                 1.6416                 3.1657
 Frc consts  --      1.4616                 1.9146                 3.9194
 IR Inten    --      7.8804                42.4244                10.9258

                     61                     62                     63
                      A                      A                      A
 Frequencies --   1479.0622              1482.8814              1482.8956
 Red. masses --      2.0082                 1.0454                 1.0454
 Frc consts  --      2.5884                 1.3544                 1.3545
 IR Inten    --    152.2227                 1.4531                 8.3888

                     64                     65                     66
                      A                      A                      A
 Frequencies --   1486.8446              1497.0316              1500.5803
 Red. masses --      1.8081                 1.5882                 1.7757
 Frc consts  --      2.3551                 2.0971                 2.3558
 IR Inten    --     65.2046                38.6757                 3.3960

                     67                     68                     69
                      A                      A                      A
 Frequencies --   1530.2207              1533.4147              1551.9025
 Red. masses --      4.7612                 5.5891                 4.9564
 Frc consts  --      6.5686                 7.7430                 7.0331
 IR Inten    --    292.0177               191.5396                86.6354

                     70                     71                     72
                      A                      A                      A
 Frequencies --   1613.8305              1631.7395              1641.3931
 Red. masses --      9.1652                 5.7584                 6.5201
 Frc consts  --     14.0640                 9.0335                10.3498
 IR Inten    --      7.3058                38.1293                 4.0783

                     73                     74                     75
                      A                      A                      A
 Frequencies --   2995.0145              2995.7129              3031.9173
 Red. masses --      1.0385                 1.0385                 1.0997
 Frc consts  --      5.4887                 5.4913                 5.9559
 IR Inten    --    294.6949                10.4190                 0.3719

                     76                     77                     78
                      A                      A                      A
 Frequencies --   3031.9329              3084.5572              3084.5907
 Red. masses --      1.0997                 1.0972                 1.0972
 Frc consts  --      5.9560                 6.1505                 6.1506
 IR Inten    --     78.8160                 3.4051                45.5957

                     79                     80                     81
                      A                      A                      A
 Frequencies --   3127.7411              3127.7957              3167.8494
 Red. masses --      1.0878                 1.0877                 1.0891
 Frc consts  --      6.2696                 6.2693                 6.4395
 IR Inten    --     50.5343                31.9657                16.3520

                     82                     83                     84
                      A                      A                      A
 Frequencies --   3168.3561              3180.0643              3180.6649
 Red. masses --      1.0893                 1.0914                 1.0916
 Frc consts  --      6.4429                 6.5027                 6.5067
 IR Inten    --      9.7071                24.5824                 9.9703

 - Thermochemistry -
 -------------------
 Temperature   298.150 Kelvin.  Pressure   1.00000 Atm.
 Atom     1 has atomic number  6 and mass  12.00000

 Molecular mass:   236.08373 amu.
 Principal axes and moments of inertia in atomic units:
                           1         2         3
     Eigenvalues --  1889.544066660.456938527.64592
           X            0.99961   0.01931   0.02015
           Y           -0.01997   0.99926   0.03296
           Z           -0.01950  -0.03334   0.99925
 This molecule is an asymmetric top.
 Rotational symmetry number  1.
 Warning -- assumption of classical behavior for rotation
           may cause significant error
 Rotational temperatures (Kelvin)      0.04584     0.01300     0.01016
 Rotational constants (GHZ):           0.95512     0.27096     0.21163
 Zero-point vibrational energy     606316.7 (Joules/Mol)
                                  144.91316 (Kcal/Mol)
 Warning -- explicit consideration of  23 degrees of freedom as
           vibrations may cause significant error
 Vibrational temperatures:     62.23   122.19   127.04   130.25   165.49
          (Kelvin)            227.95   233.84   251.15   338.68   368.72
                              439.38   458.82   504.24   529.53   541.49
                              606.02   625.65   655.48   674.69   698.28
                              778.18   836.93   859.17   931.00   955.02
                             1023.00  1037.65  1046.67  1053.33  1123.35
                             1152.34  1167.05  1203.85  1308.19  1332.17
                             1339.92  1347.59  1407.26  1409.15  1415.95
                             1454.75  1493.21  1519.64  1519.88  1591.70
                             1616.18  1654.72  1688.84  1723.47  1760.51
                             1762.93  1776.20  1826.55  1905.01  1959.63
                             1963.29  2005.43  2018.00  2024.30  2085.67
                             2128.04  2133.54  2133.56  2139.24  2153.89
                             2159.00  2201.65  2206.24  2232.84  2321.94
                             2347.71  2361.60  4309.16  4310.16  4362.25
                             4362.28  4437.99  4438.04  4500.12  4500.20
                             4557.83  4558.56  4575.40  4576.27

 Zero-point correction=                           0.230934 (Hartree/Particle)
 Thermal correction to Energy=                    0.245811
 Thermal correction to Enthalpy=                  0.246755
 Thermal correction to Gibbs Free Energy=         0.188315
 Sum of electronic and zero-point Energies=           -767.442313
 Sum of electronic and thermal Energies=              -767.427436
 Sum of electronic and thermal Enthalpies=            -767.426492
 Sum of electronic and thermal Free Energies=         -767.484931

                     E (Thermal)             CV                S
                      KCal/Mol        Cal/Mol-Kelvin    Cal/Mol-Kelvin
 Total                  154.248             58.375            122.996
 Electronic               0.000              0.000              1.377
 Translational            0.889              2.981             42.279
 Rotational               0.889              2.981             33.039
 Vibrational            152.471             52.413             46.300
 Vibration     1          0.595              1.980              5.104
 Vibration     2          0.601              1.960              3.774
 Vibration     3          0.601              1.957              3.697
 Vibration     4          0.602              1.956              3.649
 Vibration     5          0.608              1.937              3.182
 Vibration     6          0.621              1.893              2.568
 Vibration     7          0.623              1.888              2.520
 Vibration     8          0.627              1.874              2.386
 Vibration     9          0.655              1.787              1.837
 Vibration    10          0.666              1.752              1.687
 Vibration    11          0.696              1.663              1.387
 Vibration    12          0.705              1.637              1.316
 Vibration    13          0.727              1.574              1.164
 Vibration    14          0.741              1.538              1.088
 Vibration    15          0.747              1.520              1.054
 Vibration    16          0.784              1.424              0.888
 Vibration    17          0.795              1.394              0.843
 Vibration    18          0.814              1.349              0.779
 Vibration    19          0.826              1.319              0.741
 Vibration    20          0.841              1.283              0.696
 Vibration    21          0.896              1.160              0.563
 Vibration    22          0.938              1.071              0.482
 Vibration    23          0.955              1.038              0.455

 Optimization completed.
    -- Stationary point found.
 Normal termination of Gaussian 16 at Wed Dec 27 22:14:24 2023.
