 Q-Chem 5.4, Q-Chem, Inc., Pleasanton, CA (2021)
 Q-Chem 5.4.0 for Intel X86 EM64T Linux

User input:
--------------------------------------------------------------
$molecule
-1 2
C                 -3.3762860000      3.4911160000      0.0273710000
C                 -4.5976280000      2.8465930000      0.0732150000
C                 -4.6104800000      1.4288190000      0.1201550000
C                 -2.1511350000      2.7848000000      0.0259220000
C                 -2.1781240000      1.3621320000      0.0733770000
C                 -3.4316580000      0.7136490000      0.1199590000
C                 -0.8956010000      3.5349240000     -0.0241400000
C                  0.3300020000      2.7352620000     -0.0224650000
C                  0.3019770000      1.3126170000      0.0250400000
C                 -0.9530770000      0.5605930000      0.0751520000
C                  1.5815030000      3.3920820000     -0.0693350000
C                  2.7769970000      2.6992600000     -0.0706240000
C                  2.7350310000      1.2820700000     -0.0230340000
C                  1.5294760000      0.6145570000      0.0233100000
O                 -0.8713280000      4.7925410000     -0.0661190000
O                 -0.9773040000     -0.6948390000      0.1170610000
C                 -5.8978690000      3.6157320000      0.0741210000
H                 -5.5623710000      0.9041820000      0.1565700000
H                 -3.4299360000     -0.3699500000      0.1555710000
H                  1.4858430000     -0.4681300000      0.0598980000
C                  4.1059490000      3.4158710000     -0.1211160000
H                  3.6659020000      0.7197990000     -0.0232840000
H                 -3.3180970000      4.5739230000     -0.0094390000
H                  1.5652330000      4.4763770000     -0.1047180000
H                 -5.7182260000      4.6928450000      0.0349170000
H                 -6.4879280000      3.4066150000      0.9747980000
H                 -6.5236100000      3.3484490000     -0.7861850000
H                  3.9680600000      4.4993430000     -0.1536830000
H                  4.6862330000      3.1248240000     -1.0052450000
H                  4.7221120000      3.1823230000      0.7557610000
$end

$rem
BASIS  =  6-311++G(d,p)
GUI  =  2
JOB_TYPE  =  SP
METHOD  =  B3LYP
SCF_CONVERGENCE  = 8
SOLVENT_METHOD = sm12
$end

$smx
solvent dimethylformamide
charges CM5
$end

--------------------------------------------------------------

             Standard Nuclear Orientation (Angstroms)
    I     Atom           X                Y                Z
 ----------------------------------------------------------------
    1      C      -3.3762860000     3.4911160000     0.0273710000
    2      C      -4.5976280000     2.8465930000     0.0732150000
    3      C      -4.6104800000     1.4288190000     0.1201550000
    4      C      -2.1511350000     2.7848000000     0.0259220000
    5      C      -2.1781240000     1.3621320000     0.0733770000
    6      C      -3.4316580000     0.7136490000     0.1199590000
    7      C      -0.8956010000     3.5349240000    -0.0241400000
    8      C       0.3300020000     2.7352620000    -0.0224650000
    9      C       0.3019770000     1.3126170000     0.0250400000
   10      C      -0.9530770000     0.5605930000     0.0751520000
   11      C       1.5815030000     3.3920820000    -0.0693350000
   12      C       2.7769970000     2.6992600000    -0.0706240000
   13      C       2.7350310000     1.2820700000    -0.0230340000
   14      C       1.5294760000     0.6145570000     0.0233100000
   15      O      -0.8713280000     4.7925410000    -0.0661190000
   16      O      -0.9773040000    -0.6948390000     0.1170610000
   17      C      -5.8978690000     3.6157320000     0.0741210000
   18      H      -5.5623710000     0.9041820000     0.1565700000
   19      H      -3.4299360000    -0.3699500000     0.1555710000
   20      H       1.4858430000    -0.4681300000     0.0598980000
   21      C       4.1059490000     3.4158710000    -0.1211160000
   22      H       3.6659020000     0.7197990000    -0.0232840000
   23      H      -3.3180970000     4.5739230000    -0.0094390000
   24      H       1.5652330000     4.4763770000    -0.1047180000
   25      H      -5.7182260000     4.6928450000     0.0349170000
   26      H      -6.4879280000     3.4066150000     0.9747980000
   27      H      -6.5236100000     3.3484490000    -0.7861850000
   28      H       3.9680600000     4.4993430000    -0.1536830000
   29      H       4.6862330000     3.1248240000    -1.0052450000
   30      H       4.7221120000     3.1823230000     0.7557610000
 ----------------------------------------------------------------

   16    -767.6673092968      8.48e-09  Convergence criterion met
 Total energy in the final basis set =     -767.7588897042

                    Orbital Energies (a.u.)
 --------------------------------------------------------------

 Alpha MOs
 -- Occupied --
-19.0773 -19.0759 -10.2271 -10.2240 -10.1882 -10.1882 -10.1786 -10.1786
-10.1780 -10.1780 -10.1780 -10.1779 -10.1763 -10.1763 -10.1730 -10.1730
-10.1714 -10.1714  -1.0033  -1.0003  -0.8679  -0.8609  -0.8031  -0.7747
 -0.7618  -0.7515  -0.7129  -0.6887  -0.6647  -0.6258  -0.6107  -0.5914
 -0.5622  -0.5277  -0.5223  -0.4802  -0.4654  -0.4615  -0.4516  -0.4320
 -0.4317  -0.4298  -0.4237  -0.4167  -0.4137  -0.4109  -0.4077  -0.3835
 -0.3825  -0.3805  -0.3743  -0.3603  -0.3490  -0.3481  -0.3361  -0.3332
 -0.2673  -0.2640  -0.2578  -0.2471  -0.2463  -0.2374  -0.1443

 Beta MOs
 -- Occupied --
-19.0717 -19.0698 -10.2257 -10.2224 -10.1878 -10.1878 -10.1785 -10.1785
-10.1777 -10.1777 -10.1772 -10.1772 -10.1755 -10.1755 -10.1729 -10.1729
-10.1715 -10.1715  -0.9936  -0.9896  -0.8655  -0.8598  -0.7997  -0.7736
 -0.7593  -0.7501  -0.7104  -0.6877  -0.6585  -0.6243  -0.6084  -0.5908
 -0.5597  -0.5253  -0.5210  -0.4782  -0.4645  -0.4596  -0.4504  -0.4310
 -0.4293  -0.4267  -0.4227  -0.4157  -0.4065  -0.4051  -0.4035  -0.3831
 -0.3814  -0.3732  -0.3576  -0.3571  -0.3484  -0.3470  -0.3345  -0.3211
 -0.2603  -0.2499  -0.2441  -0.2420  -0.2409  -0.2319

          Ground-State Mulliken Net Atomic Charges

     Atom                 Charge (a.u.)    Spin (a.u.)
  --------------------------------------------------------
      1 C                    -0.857604       0.026741
      2 C                     1.857694       0.028149
      3 C                     1.169869       0.044456
      4 C                    -1.020481       0.057758
      5 C                    -2.337078       0.033516
      6 C                     0.148743       0.022623
      7 C                    -1.225376       0.088624
      8 C                    -1.019502       0.057830
      9 C                    -2.336168       0.033504
     10 C                    -3.450725       0.051608
     11 C                    -0.857530       0.026756
     12 C                     1.855725       0.028135
     13 C                     1.169951       0.044529
     14 C                     0.148211       0.022596
     15 O                    -0.318117       0.232110
     16 O                    -0.285635       0.208229
     17 C                     1.846402      -0.001466
     18 H                     0.315223      -0.003351
     19 H                     0.195407      -0.000911
     20 H                     0.195361      -0.000911
     21 C                     1.845635      -0.001460
     22 H                     0.315260      -0.003353
     23 H                     0.001344      -0.002562
     24 H                     0.001355      -0.002559
     25 H                     0.333180       0.000134
     26 H                     0.243982       0.002288
     27 H                     0.243916       0.002283
     28 H                     0.333094       0.000133
     29 H                     0.243963       0.002288
     30 H                     0.243899       0.002281
  --------------------------------------------------------
  Sum of atomic charges =    -1.000000

                    Cartesian Multipole Moments
 -----------------------------------------------------------------
    Charge (ESU x 10^10)
                -4.8032
    Dipole Moment (Debye)
         X       4.4455      Y      -9.4821      Z      -0.1338
       Tot      10.4733
    Quadrupole Moments (Debye-Ang)
        XX    -108.7016     XY       8.0777     YY    -159.1187
        XZ      -0.0240     YZ       0.6507     ZZ    -112.9691

 Total job time:  817.83s(wall), 6094.42s(cpu)
        *  Thank you very much for using Q-Chem.  Have a nice day.  *
