 Gaussian 16, Revision A.03,
 Gaussian 16:  ES64L-G16RevA.03 25-Dec-2016

 --------------------------------------
 #P UB3LYP/6-311++G(d,p) nosym opt freq
 --------------------------------------

 -------
 Reduced
 -------
 Symbolic Z-matrix:
 Charge = -2 Multiplicity = 1

 SCF Done:  E(UB3LYP) =  -3184.02586738     A.U. after   44 cycles
 Optimization completed.
    -- Stationary point found.
 Normal termination of Gaussian 16 at Mon Jan  8 21:27:47 2024.

 ----------------------------------------------------------------------
 #P Geom=AllCheck Guess=TCheck SCRF=Check GenChk UB3LYP/6-311++G(d,p) F
 req
 ----------------------------------------------------------------------

 Structure from the checkpoint file:  "306-an.chk"
 -------
 Reduced
 -------
 Charge = -2 Multiplicity = 1

                          Input orientation:
 ---------------------------------------------------------------------
 Center     Atomic      Atomic             Coordinates (Angstroms)
 Number     Number       Type             X           Y           Z
 ---------------------------------------------------------------------
      1          6           0       -4.110281    3.638789    1.516745
      2          6           0       -4.598050    3.871355    0.251388
      3          6           0       -3.996850    3.220773   -0.849091
      4          6           0       -2.931056    2.346942   -0.660850
      5          6           0       -2.376864    2.087940    0.628869
      6          6           0       -3.019970    2.764116    1.745063
      7          6           0       -2.591954    2.579419    3.129253
      8          6           0       -1.502759    1.683747    3.285477
      9          6           0       -0.901213    1.049437    2.199243
     10          6           0       -1.222061    1.182857    0.815000
     11          8           0       -3.165864    3.173805    4.120034
     12          8           0       -0.596050    0.606268   -0.127483
     13          1           0       -4.533257    4.113498    2.395570
     14          1           0       -4.356823    3.403901   -1.862779
     15          8           0       -2.407398    1.725127   -1.781001
     16         35           0        0.618197   -0.147250    2.612351
     17          1           0       -5.434001    4.548682    0.087056
     18          1           0       -1.147243    1.497786    4.293157
     19          1           0       -3.008373    1.940870   -2.504202
 ---------------------------------------------------------------------

 SCF Done:  E(UB3LYP) =  -3184.02586738     A.U. after    2 cycles

 Alpha  occ. eigenvalues -- -482.56672 -62.21944 -56.03929 -56.03627 -56.03604
 Alpha  occ. eigenvalues --  -18.90825 -18.77311 -18.77272  -9.98970  -9.94772
 Alpha  occ. eigenvalues --   -9.93994  -9.93545  -9.92875  -9.92505  -9.91686
 Alpha  occ. eigenvalues --   -9.91105  -9.90703  -9.89330  -8.42886  -6.25861
 Alpha  occ. eigenvalues --   -6.24846  -6.24775  -2.36983  -2.36704  -2.36650
 Alpha  occ. eigenvalues --   -2.35842  -2.35842  -0.81749  -0.69788  -0.68707
 Alpha  occ. eigenvalues --   -0.59448  -0.55535  -0.51360  -0.48804  -0.46540
 Alpha  occ. eigenvalues --   -0.40714  -0.37348  -0.34522  -0.31425  -0.26487
 Alpha  occ. eigenvalues --   -0.24978  -0.22309  -0.20477  -0.18991  -0.17044
 Alpha  occ. eigenvalues --   -0.16567  -0.14251  -0.13249  -0.12077  -0.11328
 Alpha  occ. eigenvalues --   -0.11198  -0.08953  -0.08643  -0.08252  -0.06588
 Alpha  occ. eigenvalues --   -0.04736  -0.03200   0.01393   0.01920   0.02627
 Alpha  occ. eigenvalues --    0.04910   0.05267   0.13166
 Alpha virt. eigenvalues --    0.14901   0.16885   0.19255   0.19622   0.20802
 Alpha virt. eigenvalues --    0.21805   0.22776   0.23234   0.24127   0.24466
 Alpha virt. eigenvalues --    0.25260   0.26011   0.26459   0.26538   0.27671

  Beta  occ. eigenvalues -- -482.56672 -62.21944 -56.03929 -56.03627 -56.03604
  Beta  occ. eigenvalues --  -18.90825 -18.77311 -18.77272  -9.98970  -9.94772
  Beta  occ. eigenvalues --   -9.93994  -9.93545  -9.92875  -9.92505  -9.91686
  Beta  occ. eigenvalues --   -9.91105  -9.90703  -9.89330  -8.42886  -6.25861
  Beta  occ. eigenvalues --   -6.24846  -6.24775  -2.36983  -2.36704  -2.36650
  Beta  occ. eigenvalues --   -2.35842  -2.35842  -0.81749  -0.69788  -0.68707
  Beta  occ. eigenvalues --   -0.59448  -0.55535  -0.51360  -0.48804  -0.46540
  Beta  occ. eigenvalues --   -0.40714  -0.37348  -0.34522  -0.31425  -0.26487
  Beta  occ. eigenvalues --   -0.24978  -0.22309  -0.20477  -0.18991  -0.17044
  Beta  occ. eigenvalues --   -0.16567  -0.14251  -0.13249  -0.12077  -0.11328
  Beta  occ. eigenvalues --   -0.11198  -0.08953  -0.08643  -0.08252  -0.06588
  Beta  occ. eigenvalues --   -0.04736  -0.03200   0.01393   0.01920   0.02627
  Beta  occ. eigenvalues --    0.04910   0.05267   0.13166
  Beta virt. eigenvalues --    0.14901   0.16885   0.19255   0.19622   0.20802
  Beta virt. eigenvalues --    0.21805   0.22776   0.23234   0.24127   0.24466
  Beta virt. eigenvalues --    0.25260   0.26011   0.26459   0.26538   0.27671

 Mulliken charges and spin densities:
               1          2
     1  C   -0.167906   0.000000
     2  C   -0.099528   0.000000
     3  C   -0.104393   0.000000
     4  C    0.375971  -0.000000
     5  C    0.505948  -0.000000
     6  C    0.345224  -0.000000
     7  C   -0.973067   0.000000
     8  C    0.109594  -0.000000
     9  C    0.601664  -0.000000
    10  C   -0.782323  -0.000000
    11  O   -0.538853   0.000000
    12  O   -0.435647   0.000000
    13  H    0.132320  -0.000000
    14  H   -0.613610   0.000000
    15  O   -0.204927  -0.000000
    16  Br  -0.399885   0.000000
    17  H    0.012903  -0.000000
    18  H    0.135836   0.000000
    19  H    0.100680   0.000000
 Sum of Mulliken charges =  -2.00000  -0.00000

 Dipole moment (field-independent basis, Debye):
    X=             19.1671    Y=            -18.1290    Z=            -14.5340  Tot=             30.1210
 Quadrupole moment (field-independent basis, Debye-Ang):
   XX=           -177.6308   YY=           -163.3528   ZZ=           -178.0872
   XY=             62.4737   XZ=             28.6372   YZ=            -33.9002

  Exact polarizability: 643.344-372.721 438.924 569.568-228.6941365.633
 Approx polarizability: 934.860-461.258 485.609 988.581-443.5372177.034

                      1                      2                      3
                      A                      A                      A
 Frequencies --     55.3533                65.2489               144.1818
 Red. masses --     10.7045                 6.8452                12.5953
 Frc consts  --      0.0193                 0.0172                 0.1543
 IR Inten    --      6.7000                 0.4197                 3.8139

                      4                      5                      6
                      A                      A                      A
 Frequencies --    148.3596               200.0340               223.4886
 Red. masses --     10.0807                 4.6041                19.4298
 Frc consts  --      0.1307                 0.1085                 0.5718
 IR Inten    --      4.0826                 3.2117                 0.8146

                      7                      8                      9
                      A                      A                      A
 Frequencies --    256.2843               269.9522               322.7457
 Red. masses --      3.2603                 9.1110                 5.3651
 Frc consts  --      0.1262                 0.3912                 0.3293
 IR Inten    --      8.4642                 4.6978                17.1685

                     10                     11                     12
                      A                      A                      A
 Frequencies --    347.8755               355.1977               373.5046
 Red. masses --      5.7331                 1.5165                 9.9397
 Frc consts  --      0.4088                 0.1127                 0.8170
 IR Inten    --     52.3125                60.7385                 1.1113

                     13                     14                     15
                      A                      A                      A
 Frequencies --    441.6486               468.0278               504.0574
 Red. masses --     11.4986                 4.5058                 5.1698
 Frc consts  --      1.3214                 0.5815                 0.7739
 IR Inten    --   1619.5633                 7.9468                19.4158

                     16                     17                     18
                      A                      A                      A
 Frequencies --    532.6086               539.5958               648.0080
 Red. masses --      7.9200                 4.4184                 3.7794
 Frc consts  --      1.3237                 0.7580                 0.9351
 IR Inten    --      1.5913                12.9646                37.2231

                     19                     20                     21
                      A                      A                      A
 Frequencies --    650.9743               669.3498               671.6875
 Red. masses --      6.2015                 3.9235                 3.1644
 Frc consts  --      1.5484                 1.0357                 0.8412
 IR Inten    --      0.6500                28.9308                 5.5752

                     22                     23                     24
                      A                      A                      A
 Frequencies --    730.6988               759.6314               769.3557
 Red. masses --      1.6588                 7.6295                 3.0368
 Frc consts  --      0.5218                 2.5939                 1.0591
 IR Inten    --     21.2273               231.6746                25.5315

                     25                     26                     27
                      A                      A                      A
 Frequencies --    785.2823               809.7155               811.1546
 Red. masses --      1.9474                 2.7899                 2.8262
 Frc consts  --      0.7076                 1.0777                 1.0956
 IR Inten    --     57.0332                70.7651                49.3757

                     28                     29                     30
                      A                      A                      A
 Frequencies --    928.2769               936.5480              1040.8293
 Red. masses --      6.6362                 1.2554                 4.1688
 Frc consts  --      3.3692                 0.6488                 2.6609
 IR Inten    --    702.1311                11.6386               275.1242

                     31                     32                     33
                      A                      A                      A
 Frequencies --   1074.4194              1119.2279              1147.7529
 Red. masses --      2.2472                 1.9358                 2.1202
 Frc consts  --      1.5284                 1.4288                 1.6456
 IR Inten    --    163.9055                22.4885                77.3037

                     34                     35                     36
                      A                      A                      A
 Frequencies --   1175.8107              1211.3335              1245.0590
 Red. masses --      1.9417                 1.7734                 2.7939
 Frc consts  --      1.5817                 1.5331                 2.5518
 IR Inten    --     57.8084               478.5101               325.9303

                     37                     38                     39
                      A                      A                      A
 Frequencies --   1264.4328              1319.9118              1363.7022
 Red. masses --      1.9717                 4.9436                 6.9650
 Frc consts  --      1.8573                 5.0744                 7.6315
 IR Inten    --    437.4456               848.3286               838.2487

                     40                     41                     42
                      A                      A                      A
 Frequencies --   1393.9815              1431.4026              1454.8791
 Red. masses --      4.4798                 3.2599                 3.3328
 Frc consts  --      5.1289                 3.9353                 4.1564
 IR Inten    --    171.9192               226.6948               204.1024

                     43                     44                     45
                      A                      A                      A
 Frequencies --   1499.6229              1508.2430              1549.6385
 Red. masses --      5.3027                 5.1019                 5.9133
 Frc consts  --      7.0261                 6.8379                 8.3665
 IR Inten    --   3943.0756               432.8509              3661.7093

                     46                     47                     48
                      A                      A                      A
 Frequencies --   1590.7951              3076.0583              3111.7766
 Red. masses --      5.3033                 1.0853                 1.0901
 Frc consts  --      7.9073                 6.0506                 6.2192
 IR Inten    --    122.5605                44.6276                82.0837

                     49                     50                     51
                      A                      A                      A
 Frequencies --   3159.4690              3167.3617              3760.3829
 Red. masses --      1.0887                 1.0909                 1.0650
 Frc consts  --      6.4030                 6.4481                 8.8725
 IR Inten    --    114.7017                49.2276               665.4425

 - Thermochemistry -
 -------------------
 Temperature   298.150 Kelvin.  Pressure   1.00000 Atm.
 Atom     1 has atomic number  6 and mass  12.00000

 Molecular mass:   251.94221 amu.
 Principal axes and moments of inertia in atomic units:
                           1         2         3
     Eigenvalues --  1970.367445187.711377156.71622
           X            0.73098  -0.25408   0.63333
           Y           -0.55093   0.32793   0.76743
           Z            0.40267   0.90989  -0.09973
 This molecule is an asymmetric top.
 Rotational symmetry number  1.
 Warning -- assumption of classical behavior for rotation
           may cause significant error
 Rotational temperatures (Kelvin)      0.04396     0.01670     0.01210
 Rotational constants (GHZ):           0.91594     0.34789     0.25217
 Zero-point vibrational energy     317518.4 (Joules/Mol)
                                   75.88873 (Kcal/Mol)
 Warning -- explicit consideration of  17 degrees of freedom as
           vibrations may cause significant error
 Vibrational temperatures:     79.64    93.88   207.45   213.46   287.80
          (Kelvin)            321.55   368.74   388.40   464.36   500.52
                              511.05   537.39   635.43   673.39   725.23
                              766.30   776.36   932.34   936.61   963.05
                              966.41  1051.31  1092.94  1106.93  1129.85
                             1165.00  1167.07  1335.58  1347.48  1497.52
                             1545.85  1610.32  1651.36  1691.73  1742.84
                             1791.36  1819.24  1899.06  1962.06  2005.63
                             2059.47  2093.25  2157.62  2170.03  2229.58
                             2288.80  4425.76  4477.15  4545.77  4557.13
                             5410.35

 Zero-point correction=                           0.120936 (Hartree/Particle)
 Thermal correction to Energy=                    0.132653
 Thermal correction to Enthalpy=                  0.133597
 Thermal correction to Gibbs Free Energy=         0.082068
 Sum of electronic and zero-point Energies=          -3183.904931
 Sum of electronic and thermal Energies=             -3183.893215
 Sum of electronic and thermal Enthalpies=           -3183.892271
 Sum of electronic and thermal Free Energies=        -3183.943800

                     E (Thermal)             CV                S
                      KCal/Mol        Cal/Mol-Kelvin    Cal/Mol-Kelvin
 Total                   83.241             44.831            108.452
 Electronic               0.000              0.000              0.000
 Translational            0.889              2.981             42.472
 Rotational               0.889              2.981             32.659
 Vibrational             81.463             38.870             33.321
 Vibration     1          0.596              1.975              4.616
 Vibration     2          0.597              1.971              4.292
 Vibration     3          0.616              1.909              2.748
 Vibration     4          0.618              1.904              2.693
 Vibration     5          0.638              1.840              2.133
 Vibration     6          0.649              1.805              1.931
 Vibration     7          0.666              1.752              1.687
 Vibration     8          0.674              1.729              1.597
 Vibration     9          0.708              1.630              1.296
 Vibration    10          0.726              1.580              1.176
 Vibration    11          0.731              1.565              1.143
 Vibration    12          0.745              1.526              1.065
 Vibration    13          0.801              1.379              0.821
 Vibration    14          0.825              1.321              0.743
 Vibration    15          0.859              1.241              0.648
 Vibration    16          0.888              1.178              0.581
 Vibration    17          0.895              1.162              0.566

 Optimization completed.
    -- Stationary point found.
 Normal termination of Gaussian 16 at Mon Jan  8 21:47:37 2024.
