 Gaussian 16, Revision A.03,
 Gaussian 16:  ES64L-G16RevA.03 25-Dec-2016

 ----------------------------------------------------------------
 #P UB3LYP/6-311++G(d,p) SCRF=(PCM,Solvent=n,n-DiMethylFormamide)
 ----------------------------------------------------------------

 -------
 Reduced
 -------
 Symbolic Z-matrix:
 Charge = -2 Multiplicity = 1

                         Standard orientation:
 ---------------------------------------------------------------------
 Center     Atomic      Atomic             Coordinates (Angstroms)
 Number     Number       Type             X           Y           Z
 ---------------------------------------------------------------------
      1          6           0       -2.846174    1.351225   -0.013048
      2          6           0       -3.854935    0.415530   -0.010035
      3          6           0       -3.521324   -0.957204   -0.002481
      4          6           0       -2.191152   -1.363859    0.011941
      5          6           0       -1.109517   -0.432649   -0.010402
      6          6           0       -1.481018    0.974005   -0.009470
      7          6           0       -0.492313    2.049019    0.000603
      8          6           0        0.853451    1.599879    0.013738
      9          6           0        1.184372    0.245409    0.010022
     10          6           0        0.301550   -0.875309   -0.028586
     11          8           0       -0.821126    3.296474    0.007833
     12          8           0        0.678664   -2.086920   -0.077604
     13          1           0       -3.046585    2.417230   -0.020864
     14          1           0       -4.305330   -1.716019   -0.017122
     15          8           0       -1.937818   -2.724141    0.044552
     16         35           0        3.114226   -0.187008    0.007524
     17          1           0       -4.900805    0.716696   -0.016845
     18          1           0        1.633259    2.353490    0.032770
     19          1           0       -2.793844   -3.145715    0.186787
 ---------------------------------------------------------------------

 SCF Done:  E(UB3LYP) =  -3184.30378427     A.U. after   18 cycles

 The electronic state is 1-A.
 Alpha  occ. eigenvalues -- -482.79946 -62.45224 -56.27215 -56.26901 -56.26882
 Alpha  occ. eigenvalues --  -19.13545 -19.01879 -19.01785 -10.21935 -10.18788
 Alpha  occ. eigenvalues --  -10.17542 -10.17494 -10.15433 -10.15425 -10.15044
 Alpha  occ. eigenvalues --  -10.14497 -10.14121 -10.12876  -8.66173  -6.49161
 Alpha  occ. eigenvalues --   -6.48119  -6.48062  -2.60280  -2.59991  -2.59948
 Alpha  occ. eigenvalues --   -2.59119  -2.59119  -1.04491  -0.94540  -0.93401
 Alpha  occ. eigenvalues --   -0.82739  -0.79134  -0.74736  -0.72024  -0.69921
 Alpha  occ. eigenvalues --   -0.64387  -0.60442  -0.57711  -0.54598  -0.49783
 Alpha  occ. eigenvalues --   -0.48049  -0.45287  -0.44005  -0.42474  -0.40464
 Alpha  occ. eigenvalues --   -0.39998  -0.37541  -0.36762  -0.36224  -0.35916
 Alpha  occ. eigenvalues --   -0.34395  -0.33040  -0.32443  -0.32104  -0.30494
 Alpha  occ. eigenvalues --   -0.28452  -0.26727  -0.22916  -0.21680  -0.21048
 Alpha  occ. eigenvalues --   -0.19967  -0.19541  -0.11488
 Alpha virt. eigenvalues --   -0.00146   0.00025   0.00266   0.00331   0.01258
 Alpha virt. eigenvalues --    0.01674   0.03204   0.03623   0.04527   0.05095
 Alpha virt. eigenvalues --    0.05924   0.06220   0.06537   0.07490   0.07650

  Beta  occ. eigenvalues -- -482.79946 -62.45224 -56.27215 -56.26901 -56.26882
  Beta  occ. eigenvalues --  -19.13545 -19.01879 -19.01785 -10.21935 -10.18788
  Beta  occ. eigenvalues --  -10.17542 -10.17494 -10.15433 -10.15425 -10.15044
  Beta  occ. eigenvalues --  -10.14497 -10.14121 -10.12876  -8.66173  -6.49161
  Beta  occ. eigenvalues --   -6.48119  -6.48062  -2.60280  -2.59991  -2.59948
  Beta  occ. eigenvalues --   -2.59119  -2.59119  -1.04491  -0.94540  -0.93401
  Beta  occ. eigenvalues --   -0.82739  -0.79134  -0.74736  -0.72024  -0.69921
  Beta  occ. eigenvalues --   -0.64387  -0.60442  -0.57711  -0.54598  -0.49783
  Beta  occ. eigenvalues --   -0.48049  -0.45287  -0.44005  -0.42474  -0.40464
  Beta  occ. eigenvalues --   -0.39998  -0.37541  -0.36762  -0.36224  -0.35916
  Beta  occ. eigenvalues --   -0.34395  -0.33040  -0.32443  -0.32104  -0.30494
  Beta  occ. eigenvalues --   -0.28452  -0.26727  -0.22916  -0.21680  -0.21048
  Beta  occ. eigenvalues --   -0.19967  -0.19541  -0.11488
  Beta virt. eigenvalues --   -0.00146   0.00025   0.00266   0.00331   0.01258
  Beta virt. eigenvalues --    0.01674   0.03204   0.03623   0.04527   0.05095
  Beta virt. eigenvalues --    0.05924   0.06220   0.06537   0.07490   0.07650

 Mulliken charges and spin densities:
               1          2
     1  C    0.057040  -0.000000
     2  C   -0.462430   0.000000
     3  C   -0.218149  -0.000000
     4  C   -0.009906   0.000000
     5  C    0.145207  -0.000000
     6  C    0.278494   0.000000
     7  C   -0.711227  -0.000000
     8  C    0.020517  -0.000000
     9  C    0.444139  -0.000000
    10  C   -0.625504   0.000000
    11  O   -0.689813   0.000000
    12  O   -0.610097   0.000000
    13  H    0.140621  -0.000000
    14  H    0.136730  -0.000000
    15  O   -0.243387  -0.000000
    16  Br  -0.278363   0.000000
    17  H    0.171146   0.000000
    18  H    0.173837   0.000000
    19  H    0.281144   0.000000
 Sum of Mulliken charges =  -2.00000   0.00000

 Dipole moment (field-independent basis, Debye):
    X=             -2.7512    Y=             -5.1402    Z=              0.4163  Tot=              5.8450
 Quadrupole moment (field-independent basis, Debye-Ang):
   XX=           -116.6281   YY=           -156.4358   ZZ=           -104.1561
   XY=             21.0519   XZ=             -0.5515   YZ=             -1.5337

 Normal termination of Gaussian 16 at Thu Jan 25 05:46:03 2024.
