 Q-Chem 5.4, Q-Chem, Inc., Pleasanton, CA (2021)
 Q-Chem 5.4.0 for Intel X86 EM64T Linux

User input:
--------------------------------------------------------------
$molecule
0 1
C                  2.4581160000     -4.7919990000      2.0547570000
C                  2.4724640000     -3.9176210000      0.8524100000
C                  2.1099880000     -2.6257130000      0.8064320000
C                  1.6471230000     -2.0179820000      2.1005710000
C                  1.6502640000     -2.8891970000      3.3095270000
C                  2.0035300000     -4.1808550000      3.3441030000
O                  2.8007800000     -5.9535540000      1.9941880000
O                  1.2707900000     -0.8679310000      2.1773970000
C                  2.0005700000     -5.0668490000      4.5476250000
C                  2.1390810000     -1.7790770000     -0.4495320000
C                  0.7250800000     -1.3170690000     -0.8602740000
C                  3.1223800000     -0.5971210000     -0.3192750000
N                  2.9422550000     -4.6166740000     -0.3701860000
N                  1.2132570000     -2.1954590000      4.5447820000
H                  1.6330710000     -4.5552960000      5.4352070000
H                  3.0114730000     -5.4376940000      4.7365830000
H                  1.3772970000     -5.9444310000      4.3585840000
H                  2.5125770000     -2.4194500000     -1.2523250000
H                  0.7838930000     -0.8117730000     -1.8274350000
H                  0.3060180000     -0.6202930000     -0.1344290000
H                  0.0459290000     -2.1662290000     -0.9684150000
H                  3.1952540000     -0.0880020000     -1.2834490000
H                  4.1232770000     -0.9414640000     -0.0477480000
H                  2.7841060000      0.1244440000      0.4243630000
O                  4.1394420000     -4.5825870000     -0.5920650000
O                  2.0912570000     -5.1673070000     -1.0455900000
O                  0.0559720000     -2.3588400000      4.8902810000
O                  2.0543750000     -1.5211890000      5.1109550000
$end

$rem
BASIS  =  6-311++G(d,p)
GUI  =  2
JOB_TYPE  =  SP
METHOD  =  B3LYP
SCF_CONVERGENCE  = 8
SOLVENT_METHOD = sm12
$end

$smx
solvent dimethylformamide
charges CM5
$end

--------------------------------------------------------------

             Standard Nuclear Orientation (Angstroms)
    I     Atom           X                Y                Z
 ----------------------------------------------------------------
    1      C       2.4581160000    -4.7919990000     2.0547570000
    2      C       2.4724640000    -3.9176210000     0.8524100000
    3      C       2.1099880000    -2.6257130000     0.8064320000
    4      C       1.6471230000    -2.0179820000     2.1005710000
    5      C       1.6502640000    -2.8891970000     3.3095270000
    6      C       2.0035300000    -4.1808550000     3.3441030000
    7      O       2.8007800000    -5.9535540000     1.9941880000
    8      O       1.2707900000    -0.8679310000     2.1773970000
    9      C       2.0005700000    -5.0668490000     4.5476250000
   10      C       2.1390810000    -1.7790770000    -0.4495320000
   11      C       0.7250800000    -1.3170690000    -0.8602740000
   12      C       3.1223800000    -0.5971210000    -0.3192750000
   13      N       2.9422550000    -4.6166740000    -0.3701860000
   14      N       1.2132570000    -2.1954590000     4.5447820000
   15      H       1.6330710000    -4.5552960000     5.4352070000
   16      H       3.0114730000    -5.4376940000     4.7365830000
   17      H       1.3772970000    -5.9444310000     4.3585840000
   18      H       2.5125770000    -2.4194500000    -1.2523250000
   19      H       0.7838930000    -0.8117730000    -1.8274350000
   20      H       0.3060180000    -0.6202930000    -0.1344290000
   21      H       0.0459290000    -2.1662290000    -0.9684150000
   22      H       3.1952540000    -0.0880020000    -1.2834490000
   23      H       4.1232770000    -0.9414640000    -0.0477480000
   24      H       2.7841060000     0.1244440000     0.4243630000
   25      O       4.1394420000    -4.5825870000    -0.5920650000
   26      O       2.0912570000    -5.1673070000    -1.0455900000
   27      O       0.0559720000    -2.3588400000     4.8902810000
   28      O       2.0543750000    -1.5211890000     5.1109550000
 ----------------------------------------------------------------

   17    -947.9636935232      4.66e-09  Convergence criterion met
 Total energy in the final basis set =     -947.9821224857

                    Orbital Energies (a.u.)
 --------------------------------------------------------------

 Alpha MOs
 -- Occupied --
-19.1976 -19.1976 -19.1970 -19.1967 -19.1712 -19.1704 -14.5872 -14.5868
-10.3249 -10.3233 -10.2818 -10.2806 -10.2600 -10.2580 -10.2127 -10.1949
-10.1698 -10.1697  -1.2755  -1.2749  -1.1078  -1.1059  -1.1041  -1.1033
 -0.9236  -0.8871  -0.8209  -0.7970  -0.7721  -0.7236  -0.6977  -0.6794
 -0.6542  -0.6187  -0.6139  -0.5977  -0.5903  -0.5673  -0.5573  -0.5532
 -0.5519  -0.5303  -0.4949  -0.4926  -0.4904  -0.4730  -0.4593  -0.4512
 -0.4434  -0.4349  -0.4237  -0.4172  -0.3940  -0.3769  -0.3680  -0.3634
 -0.3605  -0.3558  -0.3539  -0.3532  -0.3527  -0.3480  -0.3214  -0.3204
 -0.3044  -0.3040

          Ground-State Mulliken Net Atomic Charges

     Atom                 Charge (a.u.)
  ----------------------------------------
      1 C                    -0.873878
      2 C                    -0.249553
      3 C                     1.425833
      4 C                    -0.989090
      5 C                    -0.364910
      6 C                     1.070087
      7 O                    -0.231349
      8 O                    -0.208774
      9 C                     0.150948
     10 C                    -0.037271
     11 C                    -0.544404
     12 C                    -0.552509
     13 N                    -0.369604
     14 N                    -0.368460
     15 H                     0.197981
     16 H                     0.262284
     17 H                     0.259627
     18 H                     0.200837
     19 H                     0.197589
     20 H                     0.171469
     21 H                     0.157487
     22 H                     0.197924
     23 H                     0.158652
     24 H                     0.169816
     25 O                     0.043592
     26 O                     0.045225
     27 O                     0.042401
     28 O                     0.038050
  ----------------------------------------
  Sum of atomic charges =     0.000000

                    Cartesian Multipole Moments
 -----------------------------------------------------------------
    Charge (ESU x 10^10)
                 0.0000
    Dipole Moment (Debye)
         X      -0.0461      Y       0.2824      Z      -0.2545
       Tot       0.3830
    Quadrupole Moments (Debye-Ang)
        XX    -111.1721     XY       7.5405     YY    -116.8619
        XZ       7.1822     YZ     -22.1792     ZZ    -111.9889

 Total job time:  825.26s(wall), 5378.04s(cpu)
        *  Thank you very much for using Q-Chem.  Have a nice day.  *
