 Q-Chem 5.4, Q-Chem, Inc., Pleasanton, CA (2021)
 Q-Chem 5.4.0 for Intel X86 EM64T Linux

User input:
--------------------------------------------------------------
$molecule
-2 1
C                  0.2563670000      1.4871960000     -0.7800330000
C                 -0.9325920000      0.6761780000     -0.7779550000
C                 -0.8874510000     -0.7243690000     -0.8663000000
C                  0.3520390000     -1.4529850000     -0.9304040000
C                  1.5409890000     -0.6419700000     -0.9325260000
C                  1.4958460000      0.7585810000     -0.8441830000
O                  0.2127650000      2.7914110000     -0.7535880000
O                  0.3956540000     -2.7572040000     -0.9565980000
C                  2.7679820000      1.5754790000     -0.8563380000
C                  2.8642220000     -1.3708590000     -0.9909070000
C                 -2.2558320000      1.4050670000     -0.7195630000
C                 -2.1595780000     -1.5412690000     -0.8541440000
H                  3.5227570000      1.1883370000     -0.1590930000
H                  2.5182020000      2.6064900000     -0.5934800000
H                  3.2525920000      1.5985730000     -1.8528380000
H                  2.6709210000     -2.4166960000     -1.2426200000
H                  3.4021670000     -1.3603350000     -0.0218700000
H                  3.5526120000     -0.9341690000     -1.7264700000
H                 -2.0624600000      2.4510170000     -0.4683760000
H                 -2.9439970000      0.9687240000      0.0164270000
H                 -2.7940690000      1.3940380000     -1.6884240000
H                 -2.9146090000     -1.1537220000     -1.5508780000
H                 -2.6438060000     -1.5649460000      0.1425350000
H                 -1.9099190000     -2.5721470000     -1.1176330000
$end

$rem
BASIS  =  6-311++G(d,p)
GUI  =  2
JOB_TYPE  =  SP
METHOD  =  B3LYP
SCF_CONVERGENCE  = 8
SOLVENT_METHOD = sm12
$end

$smx
solvent dimethylformamide
charges CM5
$end

--------------------------------------------------------------

             Standard Nuclear Orientation (Angstroms)
    I     Atom           X                Y                Z
 ----------------------------------------------------------------
    1      C       0.2563670000     1.4871960000    -0.7800330000
    2      C      -0.9325920000     0.6761780000    -0.7779550000
    3      C      -0.8874510000    -0.7243690000    -0.8663000000
    4      C       0.3520390000    -1.4529850000    -0.9304040000
    5      C       1.5409890000    -0.6419700000    -0.9325260000
    6      C       1.4958460000     0.7585810000    -0.8441830000
    7      O       0.2127650000     2.7914110000    -0.7535880000
    8      O       0.3956540000    -2.7572040000    -0.9565980000
    9      C       2.7679820000     1.5754790000    -0.8563380000
   10      C       2.8642220000    -1.3708590000    -0.9909070000
   11      C      -2.2558320000     1.4050670000    -0.7195630000
   12      C      -2.1595780000    -1.5412690000    -0.8541440000
   13      H       3.5227570000     1.1883370000    -0.1590930000
   14      H       2.5182020000     2.6064900000    -0.5934800000
   15      H       3.2525920000     1.5985730000    -1.8528380000
   16      H       2.6709210000    -2.4166960000    -1.2426200000
   17      H       3.4021670000    -1.3603350000    -0.0218700000
   18      H       3.5526120000    -0.9341690000    -1.7264700000
   19      H      -2.0624600000     2.4510170000    -0.4683760000
   20      H      -2.9439970000     0.9687240000     0.0164270000
   21      H      -2.7940690000     1.3940380000    -1.6884240000
   22      H      -2.9146090000    -1.1537220000    -1.5508780000
   23      H      -2.6438060000    -1.5649460000     0.1425350000
   24      H      -1.9099190000    -2.5721470000    -1.1176330000
 ----------------------------------------------------------------

   17    -538.8309739427      9.69e-09  Convergence criterion met
 Total energy in the final basis set =     -539.1279547290

                    Orbital Energies (a.u.)
 --------------------------------------------------------------

 Alpha MOs
 -- Occupied --
-19.0159 -19.0159 -10.1728 -10.1727 -10.1639 -10.1639 -10.1639 -10.1639
-10.1398 -10.1398 -10.1393 -10.1393  -0.9283  -0.9250  -0.8016  -0.7778
 -0.7181  -0.7177  -0.6907  -0.6208  -0.6174  -0.5290  -0.5192  -0.4814
 -0.4310  -0.4291  -0.4207  -0.4025  -0.3977  -0.3977  -0.3949  -0.3860
 -0.3805  -0.3680  -0.3560  -0.3510  -0.3349  -0.3158  -0.3117  -0.3036
 -0.2196  -0.2101  -0.1991  -0.1896  -0.1193

          Ground-State Mulliken Net Atomic Charges

     Atom                 Charge (a.u.)
  ----------------------------------------
      1 C                    -2.782745
      2 C                    -0.167317
      3 C                    -0.157894
      4 C                    -2.782085
      5 C                    -0.166669
      6 C                    -0.158702
      7 O                    -0.342705
      8 O                    -0.342727
      9 C                     0.636105
     10 C                     0.637271
     11 C                     0.637262
     12 C                     0.636194
     13 H                     0.224491
     14 H                     0.208135
     15 H                     0.156122
     16 H                     0.207508
     17 H                     0.156007
     18 H                     0.224735
     19 H                     0.207526
     20 H                     0.224715
     21 H                     0.156099
     22 H                     0.224528
     23 H                     0.156032
     24 H                     0.208114
  ----------------------------------------
  Sum of atomic charges =    -2.000000

                    Cartesian Multipole Moments
 -----------------------------------------------------------------
    Charge (ESU x 10^10)
                -9.6064
    Dipole Moment (Debye)
         X      -2.9224      Y      -0.1640      Z       8.2149
       Tot       8.7207
    Quadrupole Moments (Debye-Ang)
        XX    -104.1890     XY       1.3011     YY    -144.2929
        XZ       3.0521     YZ      -1.5442     ZZ     -92.1046

 Total job time:  389.17s(wall), 2930.32s(cpu)
        *  Thank you very much for using Q-Chem.  Have a nice day.  *
