 Q-Chem 5.4, Q-Chem, Inc., Pleasanton, CA (2021)
 Q-Chem 5.4.0 for Intel X86 EM64T Linux

User input:
--------------------------------------------------------------
$molecule
0 1
O                 -0.0495460000     -1.5122090000     -2.3217710000
C                 -0.0271820000     -0.8309900000     -1.3075750000
C                  1.2586800000     -0.4519330000     -0.6544620000
C                  2.4425530000     -0.8842260000     -1.2148790000
C                  3.6920390000     -0.5564280000     -0.6405070000
C                  4.9208920000     -0.9922580000     -1.2030940000
C                  6.1169810000     -0.6543810000     -0.6173920000
C                  6.1426720000      0.1350130000      0.5582990000
C                  4.9717040000      0.5731370000      1.1283000000
C                  3.7179680000      0.2424290000      0.5491970000
C                  2.4933070000      0.6750750000      1.1072290000
C                  1.2846220000      0.3441090000      0.5309220000
C                  0.0271080000      0.8311370000      1.1673610000
O                  0.0497730000      1.5122690000      2.1816340000
C                 -1.2587710000      0.4520530000      0.5143480000
C                 -2.4424910000      0.8842660000      1.0747810000
C                 -3.6921170000      0.5563770000      0.5003890000
C                 -4.9206490000      0.9921260000      1.0630080000
C                 -6.1171100000      0.6542110000      0.4773440000
C                 -6.1428390000     -0.1349060000     -0.6979430000
C                 -4.9717120000     -0.5730750000     -1.2681250000
C                 -3.7182230000     -0.2424720000     -0.6893210000
C                 -2.4932820000     -0.6750340000     -1.2473340000
C                 -1.2846580000     -0.3441080000     -0.6712100000
H                  2.3988120000     -1.4873150000     -2.1146890000
H                  4.8989770000     -1.5966520000     -2.1034320000
H                  7.0499590000     -0.9918080000     -1.0542700000
H                  7.0949380000      0.3925930000      1.0076360000
H                  4.9891260000      1.1777160000      2.0285910000
H                  2.4889830000      1.2802160000      2.0067210000
H                 -2.3987970000      1.4873730000      1.9746070000
H                 -4.8989890000      1.5965160000      1.9633230000
H                 -7.0497350000      0.9918840000      0.9147130000
H                 -7.0948440000     -0.3928540000     -1.1477130000
H                 -4.9892990000     -1.1776610000     -2.1684440000
H                 -2.4888490000     -1.2801870000     -2.1468470000
$end

$rem
BASIS  =  6-311++G(d,p)
GUI  =  2
JOB_TYPE  =  SP
METHOD  =  B3LYP
SCF_CONVERGENCE  = 8
SOLVENT_METHOD = sm12
$end

$smx
solvent dimethylformamide
charges CM5
$end

--------------------------------------------------------------

             Standard Nuclear Orientation (Angstroms)
    I     Atom           X                Y                Z
 ----------------------------------------------------------------
    1      O      -0.0495460000    -1.5122090000    -2.3217710000
    2      C      -0.0271820000    -0.8309900000    -1.3075750000
    3      C       1.2586800000    -0.4519330000    -0.6544620000
    4      C       2.4425530000    -0.8842260000    -1.2148790000
    5      C       3.6920390000    -0.5564280000    -0.6405070000
    6      C       4.9208920000    -0.9922580000    -1.2030940000
    7      C       6.1169810000    -0.6543810000    -0.6173920000
    8      C       6.1426720000     0.1350130000     0.5582990000
    9      C       4.9717040000     0.5731370000     1.1283000000
   10      C       3.7179680000     0.2424290000     0.5491970000
   11      C       2.4933070000     0.6750750000     1.1072290000
   12      C       1.2846220000     0.3441090000     0.5309220000
   13      C       0.0271080000     0.8311370000     1.1673610000
   14      O       0.0497730000     1.5122690000     2.1816340000
   15      C      -1.2587710000     0.4520530000     0.5143480000
   16      C      -2.4424910000     0.8842660000     1.0747810000
   17      C      -3.6921170000     0.5563770000     0.5003890000
   18      C      -4.9206490000     0.9921260000     1.0630080000
   19      C      -6.1171100000     0.6542110000     0.4773440000
   20      C      -6.1428390000    -0.1349060000    -0.6979430000
   21      C      -4.9717120000    -0.5730750000    -1.2681250000
   22      C      -3.7182230000    -0.2424720000    -0.6893210000
   23      C      -2.4932820000    -0.6750340000    -1.2473340000
   24      C      -1.2846580000    -0.3441080000    -0.6712100000
   25      H       2.3988120000    -1.4873150000    -2.1146890000
   26      H       4.8989770000    -1.5966520000    -2.1034320000
   27      H       7.0499590000    -0.9918080000    -1.0542700000
   28      H       7.0949380000     0.3925930000     1.0076360000
   29      H       4.9891260000     1.1777160000     2.0285910000
   30      H       2.4889830000     1.2802160000     2.0067210000
   31      H      -2.3987970000     1.4873730000     1.9746070000
   32      H      -4.8989890000     1.5965160000     1.9633230000
   33      H      -7.0497350000     0.9918840000     0.9147130000
   34      H      -7.0948440000    -0.3928540000    -1.1477130000
   35      H      -4.9892990000    -1.1776610000    -2.1684440000
   36      H      -2.4888490000    -1.2801870000    -2.1468470000
 ----------------------------------------------------------------

   13    -996.3084585388      9.09e-09  Convergence criterion met
 Total energy in the final basis set =     -996.3387878714

                    Orbital Energies (a.u.)
 --------------------------------------------------------------

 Alpha MOs
 -- Occupied --
-19.1232 -19.1232 -10.2779 -10.2779 -10.2081 -10.2081 -10.2077 -10.2077
-10.2064 -10.2063 -10.2059 -10.2059 -10.2012 -10.2012 -10.2012 -10.2012
-10.1930 -10.1930 -10.1930 -10.1930 -10.1924 -10.1924 -10.1920 -10.1920
 -1.0591  -1.0574  -0.9033  -0.8995  -0.8610  -0.8455  -0.8000  -0.7999
 -0.7917  -0.7627  -0.7526  -0.7471  -0.6885  -0.6805  -0.6444  -0.6398
 -0.6180  -0.6176  -0.5891  -0.5791  -0.5528  -0.5387  -0.5331  -0.5026
 -0.4984  -0.4836  -0.4826  -0.4657  -0.4596  -0.4544  -0.4533  -0.4473
 -0.4457  -0.4446  -0.4351  -0.4285  -0.4259  -0.4160  -0.4153  -0.4019
 -0.4009  -0.3865  -0.3740  -0.3648  -0.3541  -0.3515  -0.3505  -0.3377
 -0.3115  -0.3080  -0.2825  -0.2775  -0.2717  -0.2675  -0.2426  -0.2412

          Ground-State Mulliken Net Atomic Charges

     Atom                 Charge (a.u.)
  ----------------------------------------
      1 O                    -0.255329
      2 C                    -1.197119
      3 C                    -0.187665
      4 C                    -0.115786
      5 C                    -0.124572
      6 C                     0.250533
      7 C                     0.164195
      8 C                     0.164710
      9 C                     0.252315
     10 C                    -0.125183
     11 C                    -0.113437
     12 C                    -0.188043
     13 C                    -1.197442
     14 O                    -0.255307
     15 C                    -0.187744
     16 C                    -0.115742
     17 C                    -0.124718
     18 C                     0.251367
     19 C                     0.163740
     20 C                     0.164519
     21 C                     0.253173
     22 C                    -0.125213
     23 C                    -0.113686
     24 C                    -0.188407
     25 H                     0.165906
     26 H                     0.276429
     27 H                     0.295380
     28 H                     0.295452
     29 H                     0.276294
     30 H                     0.165886
     31 H                     0.165985
     32 H                     0.276501
     33 H                     0.295345
     34 H                     0.295413
     35 H                     0.276335
     36 H                     0.165914
  ----------------------------------------
  Sum of atomic charges =     0.000000

                    Cartesian Multipole Moments
 -----------------------------------------------------------------
    Charge (ESU x 10^10)
                 0.0000
    Dipole Moment (Debye)
         X      -0.0038      Y       0.0002      Z       0.0003
       Tot       0.0038
    Quadrupole Moments (Debye-Ang)
        XX     -76.4276     XY      -2.8204     YY    -142.8267
        XZ       0.4598     YZ       0.7744     ZZ    -142.2958

 Total job time:  1075.90s(wall), 8420.58s(cpu)
        *  Thank you very much for using Q-Chem.  Have a nice day.  *
