 Q-Chem 5.4, Q-Chem, Inc., Pleasanton, CA (2021)
 Q-Chem 5.4.0 for Intel X86 EM64T Linux

User input:
--------------------------------------------------------------
$molecule
-1 2
O                 -0.1129530000     -2.4628750000      0.6096430000
C                 -0.0472750000     -1.2134190000      0.3933210000
C                 -1.2719410000     -0.4167170000      0.3178200000
C                 -2.5213880000     -1.0894830000      0.3765690000
C                 -3.7279020000     -0.4111590000      0.2799570000
C                 -3.7504690000      0.9762410000      0.1026410000
C                 -2.5324340000      1.6679950000      0.0340670000
C                 -1.3225560000      0.9917890000      0.1562190000
S                  0.1544320000      1.9890840000      0.2103560000
C                  1.4504870000      0.8029220000     -0.0930710000
C                  2.6992610000      1.3116120000     -0.4362260000
C                  3.8057940000      0.4615120000     -0.5768320000
C                  3.6285840000     -0.9122890000     -0.3817880000
C                  2.3782670000     -1.4232570000     -0.0642700000
C                  1.2403600000     -0.5878950000      0.0918500000
H                 -2.4831040000     -2.1642240000      0.5053360000
H                 -4.6610990000     -0.9650160000      0.3370160000
H                 -4.6884240000      1.5150370000      0.0191900000
H                 -2.5272330000      2.7451360000     -0.1054370000
H                  2.8144060000      2.3812890000     -0.5854750000
H                  4.7778430000      0.8702460000     -0.8319670000
H                  4.4738840000     -1.5873480000     -0.4848440000
H                  2.2192600000     -2.4845830000      0.0821250000
$end
$rem
MAX_SCF_CYCLES=200
BASIS  =  6-311++G(d,p)
GUI  =  2
JOB_TYPE  =  SP
METHOD  =  B3LYP
SOLVENT_METHOD = PCM
$end
$pcm
theory = CPCM
$end
$solvent
dielectric 37.219
opticaldielectric 1.43
$end

--------------------------------------------------------------

             Standard Nuclear Orientation (Angstroms)
    I     Atom           X                Y                Z
 ----------------------------------------------------------------
    1      O      -0.1129530000    -2.4628750000     0.6096430000
    2      C      -0.0472750000    -1.2134190000     0.3933210000
    3      C      -1.2719410000    -0.4167170000     0.3178200000
    4      C      -2.5213880000    -1.0894830000     0.3765690000
    5      C      -3.7279020000    -0.4111590000     0.2799570000
    6      C      -3.7504690000     0.9762410000     0.1026410000
    7      C      -2.5324340000     1.6679950000     0.0340670000
    8      C      -1.3225560000     0.9917890000     0.1562190000
    9      S       0.1544320000     1.9890840000     0.2103560000
   10      C       1.4504870000     0.8029220000    -0.0930710000
   11      C       2.6992610000     1.3116120000    -0.4362260000
   12      C       3.8057940000     0.4615120000    -0.5768320000
   13      C       3.6285840000    -0.9122890000    -0.3817880000
   14      C       2.3782670000    -1.4232570000    -0.0642700000
   15      C       1.2403600000    -0.5878950000     0.0918500000
   16      H      -2.4831040000    -2.1642240000     0.5053360000
   17      H      -4.6610990000    -0.9650160000     0.3370160000
   18      H      -4.6884240000     1.5150370000     0.0191900000
   19      H      -2.5272330000     2.7451360000    -0.1054370000
   20      H       2.8144060000     2.3812890000    -0.5854750000
   21      H       4.7778430000     0.8702460000    -0.8319670000
   22      H       4.4738840000    -1.5873480000    -0.4848440000
   23      H       2.2192600000    -2.4845830000     0.0821250000
 ----------------------------------------------------------------

    9    -973.9124509749      5.39e-06  Convergence criterion met
 Total energy in the final basis set =     -973.9124509749

                    Orbital Energies (a.u.)
 --------------------------------------------------------------

 Alpha MOs
 -- Occupied --
-88.8560 -19.0541 -10.2031 -10.2031 -10.2030 -10.1713 -10.1713 -10.1691
-10.1691 -10.1648 -10.1648 -10.1642 -10.1642 -10.1594 -10.1594  -7.9424
 -5.9058  -5.9022  -5.8972  -0.9799  -0.8684  -0.8492  -0.7948  -0.7559
 -0.7456  -0.7382  -0.6939  -0.6408  -0.6080  -0.5882  -0.5763  -0.5366
 -0.5192  -0.4759  -0.4566  -0.4552  -0.4490  -0.4233  -0.4164  -0.4090
 -0.4046  -0.3950  -0.3781  -0.3673  -0.3576  -0.3489  -0.3469  -0.3288
 -0.3171  -0.3045  -0.2603  -0.2508  -0.2504  -0.2297  -0.2117  -0.1116

 Beta MOs
 -- Occupied --
-88.8558 -19.0488 -10.2018 -10.2018 -10.1987 -10.1719 -10.1719 -10.1695
-10.1694 -10.1655 -10.1655 -10.1621 -10.1621 -10.1575 -10.1575  -7.9423
 -5.9058  -5.9022  -5.8966  -0.9698  -0.8660  -0.8472  -0.7927  -0.7517
 -0.7434  -0.7360  -0.6921  -0.6341  -0.6059  -0.5865  -0.5735  -0.5333
 -0.5179  -0.4735  -0.4553  -0.4530  -0.4482  -0.4222  -0.4157  -0.4031
 -0.3986  -0.3903  -0.3765  -0.3620  -0.3550  -0.3455  -0.3293  -0.3277
 -0.3148  -0.3000  -0.2545  -0.2427  -0.2358  -0.2251  -0.2050

          Ground-State Mulliken Net Atomic Charges

     Atom                 Charge (a.u.)    Spin (a.u.)
  --------------------------------------------------------
      1 O                    -0.562555       0.205193
      2 C                    -0.080323       0.291229
      3 C                     1.304866      -0.021976
      4 C                     0.228006       0.198044
      5 C                    -0.523245      -0.069379
      6 C                    -0.312383       0.170503
      7 C                    -0.369997      -0.044260
      8 C                    -0.827374       0.018939
      9 S                    -0.848889       0.039877
     10 C                    -0.827081       0.018362
     11 C                    -0.367913      -0.044425
     12 C                    -0.313642       0.170407
     13 C                    -0.525617      -0.069396
     14 C                     0.225511       0.197950
     15 C                     1.311297      -0.022705
     16 H                     0.176720      -0.011780
     17 H                     0.185786       0.003801
     18 H                     0.186939      -0.011544
     19 H                     0.195509       0.000348
     20 H                     0.195141       0.000356
     21 H                     0.186996      -0.011568
     22 H                     0.185897       0.003806
     23 H                     0.176351      -0.011780
  --------------------------------------------------------
  Sum of atomic charges =    -1.000000

                    Cartesian Multipole Moments
 -----------------------------------------------------------------
    Charge (ESU x 10^10)
                -4.8032
    Dipole Moment (Debye)
         X       0.2106      Y       5.9410      Z      -2.1546
       Tot       6.3231
    Quadrupole Moments (Debye-Ang)
        XX     -99.3846     XY      -0.8067     YY    -115.2563
        XZ      -0.3828     YZ       3.1188     ZZ    -105.9591

 Total job time:  47.93s(wall), 295.70s(cpu)
        *  Thank you very much for using Q-Chem.  Have a nice day.  *
