 Q-Chem 5.4, Q-Chem, Inc., Pleasanton, CA (2021)
 Q-Chem 5.4.0 for Intel X86 EM64T Linux

User input:
--------------------------------------------------------------
$molecule
0 1
C                 -1.8598630000      0.3640130000     -0.1926560000
C                 -2.8275470000      1.0394090000     -0.8482920000
C                 -2.5932400000      2.1217430000     -1.8629370000
C                 -4.2729520000      0.7516500000     -0.5737210000
O                 -5.1395470000      1.4172310000     -1.1258790000
C                 -4.6508410000     -0.3194580000      0.3781070000
C                 -3.6863580000     -0.9923880000      1.0606230000
O                 -3.8198800000     -1.9381110000      1.9946370000
C                 -5.0672680000     -2.5954140000      2.2620760000
C                 -2.2329310000     -0.6800510000      0.8123630000
O                 -1.3769130000     -1.2923120000      1.4217540000
O                 -5.9748080000     -0.4913910000      0.6619600000
C                 -6.8427600000     -0.8897460000     -0.4143130000
H                 -3.1098570000      3.0368540000     -1.5628180000
H                 -3.0199640000      1.8386230000     -2.8297060000
H                 -1.5362410000      2.3418300000     -1.9948100000
H                 -5.4672280000     -3.0511320000      1.3534020000
H                 -4.8168920000     -3.3724000000      2.9825190000
H                 -5.7977090000     -1.9059920000      2.6814030000
H                 -6.8834730000     -0.1248290000     -1.1878790000
H                 -7.8262800000     -1.0186690000      0.0356750000
H                 -6.5068670000     -1.8431320000     -0.8376300000
C                 -0.3789700000      0.5920820000     -0.3606640000
C                  0.1844290000      1.6314790000      0.6311090000
C                  1.6965530000      1.8297820000      0.4834900000
C                  2.2717890000      2.8622030000      1.4596650000
C                  3.7843520000      3.0654660000      1.3154780000
C                  4.3608640000      4.0957050000      2.2932120000
C                  5.8735520000      4.2990960000      2.1509090000
C                  6.4501930000      5.3287870000      3.1288760000
C                  7.9629740000      5.5328880000      2.9882450000
C                  8.5294530000      6.5631520000      3.9696610000
H                 -0.1624290000      0.9087130000     -1.3835120000
H                  0.1364050000     -0.3571170000     -0.1986940000
H                 -0.0437600000      1.3083380000      1.6521580000
H                 -0.3289950000      2.5891940000      0.4839450000
H                  1.9248470000      2.1376930000     -0.5454550000
H                  2.2017910000      0.8675060000      0.6334700000
H                  2.0446870000      2.5519970000      2.4875500000
H                  1.7621440000      3.8233130000      1.3126370000
H                  4.0114910000      3.3760250000      0.2872820000
H                  4.2934850000      2.1040470000      1.4614190000
H                  4.1330650000      3.7850240000      3.3210810000
H                  3.8515090000      5.0571910000      2.1474120000
H                  6.1015790000      4.6097970000      1.1229380000
H                  6.3827590000      3.3375610000      2.2967730000
H                  6.2226310000      5.0187470000      4.1572390000
H                  5.9418070000      6.2910430000      2.9834920000
H                  8.1908460000      5.8434670000      1.9611970000
H                  8.4713360000      4.5719420000      3.1342060000
H                  8.0657660000      7.5441590000      3.8248200000
H                  9.6089660000      6.6848140000      3.8436250000
H                  8.3481520000      6.2629700000      5.0066500000
$end
$rem
MAX_SCF_CYCLES=200
BASIS  =  6-311++G(d,p)
GUI  =  2
JOB_TYPE  =  SP
METHOD  =  B3LYP
THRESH = 14
SCF_CONVERGENCE = 8
SCF_ALGORITHM = RCA_DIIS
scf_guess = GWH
SOLVENT_METHOD = PCM
$end
$pcm
theory = CPCM
$end
$solvent
dielectric 37.219
opticaldielectric 1.43
$end

--------------------------------------------------------------

             Standard Nuclear Orientation (Angstroms)
    I     Atom           X                Y                Z
 ----------------------------------------------------------------
    1      C      -1.8598630000     0.3640130000    -0.1926560000
    2      C      -2.8275470000     1.0394090000    -0.8482920000
    3      C      -2.5932400000     2.1217430000    -1.8629370000
    4      C      -4.2729520000     0.7516500000    -0.5737210000
    5      O      -5.1395470000     1.4172310000    -1.1258790000
    6      C      -4.6508410000    -0.3194580000     0.3781070000
    7      C      -3.6863580000    -0.9923880000     1.0606230000
    8      O      -3.8198800000    -1.9381110000     1.9946370000
    9      C      -5.0672680000    -2.5954140000     2.2620760000
   10      C      -2.2329310000    -0.6800510000     0.8123630000
   11      O      -1.3769130000    -1.2923120000     1.4217540000
   12      O      -5.9748080000    -0.4913910000     0.6619600000
   13      C      -6.8427600000    -0.8897460000    -0.4143130000
   14      H      -3.1098570000     3.0368540000    -1.5628180000
   15      H      -3.0199640000     1.8386230000    -2.8297060000
   16      H      -1.5362410000     2.3418300000    -1.9948100000
   17      H      -5.4672280000    -3.0511320000     1.3534020000
   18      H      -4.8168920000    -3.3724000000     2.9825190000
   19      H      -5.7977090000    -1.9059920000     2.6814030000
   20      H      -6.8834730000    -0.1248290000    -1.1878790000
   21      H      -7.8262800000    -1.0186690000     0.0356750000
   22      H      -6.5068670000    -1.8431320000    -0.8376300000
   23      C      -0.3789700000     0.5920820000    -0.3606640000
   24      C       0.1844290000     1.6314790000     0.6311090000
   25      C       1.6965530000     1.8297820000     0.4834900000
   26      C       2.2717890000     2.8622030000     1.4596650000
   27      C       3.7843520000     3.0654660000     1.3154780000
   28      C       4.3608640000     4.0957050000     2.2932120000
   29      C       5.8735520000     4.2990960000     2.1509090000
   30      C       6.4501930000     5.3287870000     3.1288760000
   31      C       7.9629740000     5.5328880000     2.9882450000
   32      C       8.5294530000     6.5631520000     3.9696610000
   33      H      -0.1624290000     0.9087130000    -1.3835120000
   34      H       0.1364050000    -0.3571170000    -0.1986940000
   35      H      -0.0437600000     1.3083380000     1.6521580000
   36      H      -0.3289950000     2.5891940000     0.4839450000
   37      H       1.9248470000     2.1376930000    -0.5454550000
   38      H       2.2017910000     0.8675060000     0.6334700000
   39      H       2.0446870000     2.5519970000     2.4875500000
   40      H       1.7621440000     3.8233130000     1.3126370000
   41      H       4.0114910000     3.3760250000     0.2872820000
   42      H       4.2934850000     2.1040470000     1.4614190000
   43      H       4.1330650000     3.7850240000     3.3210810000
   44      H       3.8515090000     5.0571910000     2.1474120000
   45      H       6.1015790000     4.6097970000     1.1229380000
   46      H       6.3827590000     3.3375610000     2.2967730000
   47      H       6.2226310000     5.0187470000     4.1572390000
   48      H       5.9418070000     6.2910430000     2.9834920000
   49      H       8.1908460000     5.8434670000     1.9611970000
   50      H       8.4713360000     4.5719420000     3.1342060000
   51      H       8.0657660000     7.5441590000     3.8248200000
   52      H       9.6089660000     6.6848140000     3.8436250000
   53      H       8.3481520000     6.2629700000     5.0066500000
 ----------------------------------------------------------------

   95   -1043.2621038039      5.56E-09 Convergence criterion met
 Total energy in the final basis set = -1043.26210380

                    Orbital Energies (a.u.)
 --------------------------------------------------------------

 Alpha MOs
 -- Occupied --
-19.1786 -19.1582 -19.1395 -19.1325 -10.2863 -10.2805 -10.2657 -10.2499
-10.2231 -10.2163 -10.2107 -10.2066 -10.1734 -10.1708 -10.1657 -10.1593
-10.1583 -10.1572 -10.1563 -10.1560 -10.1558 -10.1556 -10.1519  -1.1034
 -1.0800  -1.0671  -1.0539  -0.8617  -0.8150  -0.8063  -0.7925  -0.7713
 -0.7463  -0.7415  -0.7237  -0.7033  -0.6785  -0.6646  -0.6467  -0.6111
 -0.5967  -0.5847  -0.5778  -0.5711  -0.5690  -0.5542  -0.5317  -0.5132
 -0.4949  -0.4841  -0.4773  -0.4666  -0.4659  -0.4631  -0.4538  -0.4497
 -0.4434  -0.4408  -0.4306  -0.4261  -0.4233  -0.4190  -0.4163  -0.4056
 -0.3998  -0.3968  -0.3934  -0.3859  -0.3814  -0.3700  -0.3637  -0.3582
 -0.3568  -0.3545  -0.3436  -0.3407  -0.3361  -0.3267  -0.3238  -0.3201
 -0.3177  -0.3163  -0.3157  -0.3013  -0.2855  -0.2822  -0.2715  -0.2422

          Ground-State Mulliken Net Atomic Charges

     Atom                 Charge (a.u.)
  ----------------------------------------
      1 C                     1.253929
      2 C                     0.853390
      3 C                    -0.605652
      4 C                    -0.450428
      5 O                    -0.316426
      6 C                     0.173672
      7 C                    -0.136441
      8 O                    -0.211895
      9 C                    -0.310160
     10 C                    -0.888460
     11 O                    -0.273037
     12 O                    -0.224927
     13 C                    -0.327688
     14 H                     0.195911
     15 H                     0.206982
     16 H                     0.151273
     17 H                     0.196803
     18 H                     0.202570
     19 H                     0.201965
     20 H                     0.172694
     21 H                     0.176169
     22 H                     0.159508
     23 C                    -0.455525
     24 C                    -0.905888
     25 C                    -0.297377
     26 C                     0.007189
     27 C                     0.064821
     28 C                    -0.013068
     29 C                    -0.244305
     30 C                    -0.462990
     31 C                    -0.293338
     32 C                    -0.711653
     33 H                     0.215767
     34 H                     0.222354
     35 H                     0.213003
     36 H                     0.155026
     37 H                     0.137235
     38 H                     0.129071
     39 H                     0.129691
     40 H                     0.136778
     41 H                     0.135165
     42 H                     0.136910
     43 H                     0.134762
     44 H                     0.135051
     45 H                     0.131395
     46 H                     0.131528
     47 H                     0.128716
     48 H                     0.128316
     49 H                     0.135248
     50 H                     0.135304
     51 H                     0.144689
     52 H                     0.151597
     53 H                     0.144780
  ----------------------------------------
  Sum of atomic charges =     0.000000

                    Cartesian Multipole Moments
 -----------------------------------------------------------------
    Charge (ESU x 10^10)
                -0.0000
    Dipole Moment (Debye)
         X      -1.0448      Y      -0.8381      Z      -1.9823
       Tot       2.3923
    Quadrupole Moments (Debye-Ang)
        XX    -133.0526     XY      21.6877     YY    -141.0359
        XZ      -3.1042     YZ      -0.2175     ZZ    -145.2936

 Total job time:  3057.96s(wall), 17328.07s(cpu)
        *  Thank you very much for using Q-Chem.  Have a nice day.  *
