 Gaussian 16, Revision A.03,
 Gaussian 16:  ES64L-G16RevA.03 25-Dec-2016

 ----------------------------------------------------------------------
 #P UB3LYP/6-311++G(d,p) nosym opt freq SCRF=(PCM,Solvent=n,n-DiMethylF
 ormamide)
 ----------------------------------------------------------------------

 -------
 Reduced
 -------
 Symbolic Z-matrix:
 Charge = -2 Multiplicity = 1

 SCF Done:  E(UB3LYP) =  -1432.24194477     A.U. after   17 cycles
 SCF Done:  E(UB3LYP) =  -1432.23856911     A.U. after   17 cycles
 SCF Done:  E(UB3LYP) =  -1432.24145302     A.U. after   16 cycles
 SCF Done:  E(UB3LYP) =  -1432.24331292     A.U. after   13 cycles
 SCF Done:  E(UB3LYP) =  -1432.24378287     A.U. after   15 cycles
 SCF Done:  E(UB3LYP) =  -1432.24188015     A.U. after   16 cycles
 SCF Done:  E(UB3LYP) =  -1432.24426004     A.U. after   16 cycles
 SCF Done:  E(UB3LYP) =  -1432.24456483     A.U. after   16 cycles
 SCF Done:  E(UB3LYP) =  -1432.24463303     A.U. after   15 cycles
 SCF Done:  E(UB3LYP) =  -1432.24469806     A.U. after   14 cycles
 SCF Done:  E(UB3LYP) =  -1432.24479519     A.U. after   14 cycles
 SCF Done:  E(UB3LYP) =  -1432.24480013     A.U. after   15 cycles
 SCF Done:  E(UB3LYP) =  -1432.24474961     A.U. after   12 cycles
 SCF Done:  E(UB3LYP) =  -1432.24475322     A.U. after   14 cycles
 SCF Done:  E(UB3LYP) =  -1432.24475691     A.U. after   12 cycles
 SCF Done:  E(UB3LYP) =  -1432.24475783     A.U. after   12 cycles
 SCF Done:  E(UB3LYP) =  -1432.24475833     A.U. after   12 cycles
 SCF Done:  E(UB3LYP) =  -1432.24475845     A.U. after   12 cycles
 SCF Done:  E(UB3LYP) =  -1432.24475851     A.U. after   12 cycles
 Optimization completed.
    -- Stationary point found.
 Normal termination of Gaussian 16 at Sat Feb 10 17:30:33 2024.

 ----------------------------------------------------------------------
 #P Geom=AllCheck Guess=TCheck SCRF=Check GenChk UB3LYP/6-311++G(d,p) F
 req
 ----------------------------------------------------------------------

 Structure from the checkpoint file:  "068-an.chk"
 -------
 Reduced
 -------
 Charge = -2 Multiplicity = 1

                          Input orientation:
 ---------------------------------------------------------------------
 Center     Atomic      Atomic             Coordinates (Angstroms)
 Number     Number       Type             X           Y           Z
 ---------------------------------------------------------------------
      1          6           0       -0.301616    1.847164   -1.218363
      2          6           0       -1.330331    1.674224   -0.207621
      3          6           0       -1.161700    0.896495    0.890994
      4          6           0        0.021330    0.086875    1.144185
      5          6           0        1.065938    0.171210    0.150358
      6          6           0        0.901865    1.152033   -0.932796
      7          8           0       -0.526658    2.598987   -2.234736
      8          8           0       -0.007024   -0.687716    2.164184
      9         16           0        2.272716    1.780125   -1.906918
     10          6           0        3.852165    1.412063   -1.078868
     11          6           0        4.109081    1.965783    0.173689
     12          6           0        4.850878    0.764920   -1.798017
     13          6           0        6.131549    0.670970   -1.253425
     14          6           0        5.388011    1.855123    0.717798
     15          6           0        6.400557    1.213029    0.003460
     16          8           0        2.264153    3.273264   -1.862266
     17          8           0        2.355716    1.215897   -3.282402
     18          1           0       -2.254670    2.226006   -0.362110
     19          1           0       -1.954469    0.806674    1.629184
     20          1           0        3.327974    2.485736    0.713821
     21          1           0        4.623828    0.347707   -2.770011
     22          1           0        6.916587    0.172817   -1.811099
     23          1           0        5.594134    2.279415    1.693863
     24          1           0        7.396637    1.137796    0.424914
     25          6           0        2.064313   -0.892156   -0.045427
     26          8           0        2.452843   -1.125107   -1.204446
     27          6           0        2.687805   -1.776725    1.080271
     28          6           0        2.952957   -0.991701    2.378759
     29          6           0        1.755342   -2.983157    1.337601
     30          6           0        4.040365   -2.328794    0.581382
     31          1           0        2.030573   -0.569700    2.773262
     32          1           0        3.677981   -0.191928    2.203934
     33          1           0        3.378334   -1.665168    3.132044
     34          1           0        0.782801   -2.649221    1.697080
     35          1           0        2.204179   -3.639809    2.091773
     36          1           0        1.626998   -3.567099    0.420345
     37          1           0        4.738611   -1.523897    0.340709
     38          1           0        3.921216   -2.947187   -0.309164
     39          1           0        4.486242   -2.942937    1.370847
 ---------------------------------------------------------------------

 SCF Done:  E(UB3LYP) =  -1432.24475851     A.U. after    2 cycles

 Alpha  occ. eigenvalues --  -89.02724 -19.09144 -19.08525 -19.07142 -19.03609
 Alpha  occ. eigenvalues --  -19.03450 -10.22569 -10.20216 -10.20161 -10.19998
 Alpha  occ. eigenvalues --  -10.18523 -10.18266 -10.18156 -10.18083 -10.18029
 Alpha  occ. eigenvalues --  -10.16884 -10.16234 -10.15213 -10.15018 -10.14912
 Alpha  occ. eigenvalues --  -10.13857 -10.13765 -10.13262  -8.09052  -6.05321
 Alpha  occ. eigenvalues --   -6.05256  -6.05132  -1.07575  -1.00263  -0.96820
 Alpha  occ. eigenvalues --   -0.95831  -0.95278  -0.86773  -0.80307  -0.79277
 Alpha  occ. eigenvalues --   -0.76948  -0.75618  -0.73888  -0.69342  -0.66772
 Alpha  occ. eigenvalues --   -0.66340  -0.65119  -0.61783  -0.61517  -0.59358
 Alpha  occ. eigenvalues --   -0.56749  -0.54896  -0.52156  -0.48638  -0.48197
 Alpha  occ. eigenvalues --   -0.46780  -0.46127  -0.45604  -0.44981  -0.44192
 Alpha  occ. eigenvalues --   -0.43359  -0.43042  -0.42768  -0.42536  -0.41808
 Alpha  occ. eigenvalues --   -0.40202  -0.39407  -0.38113  -0.37940  -0.37211
 Alpha  occ. eigenvalues --   -0.36960  -0.36509  -0.35853  -0.35433  -0.35207
 Alpha  occ. eigenvalues --   -0.34968  -0.34507  -0.33783  -0.32739  -0.31458
 Alpha  occ. eigenvalues --   -0.31012  -0.30267  -0.29888  -0.28646  -0.28053
 Alpha  occ. eigenvalues --   -0.26295  -0.25770  -0.24289  -0.23421  -0.22006
 Alpha  occ. eigenvalues --   -0.20895  -0.20505  -0.14451
 Alpha virt. eigenvalues --   -0.04030  -0.03100  -0.01675  -0.00214   0.00864
 Alpha virt. eigenvalues --    0.01104   0.01494   0.02047   0.02395   0.02864
 Alpha virt. eigenvalues --    0.03235   0.03599   0.03814   0.04279   0.04572

  Beta  occ. eigenvalues --  -89.02724 -19.09144 -19.08525 -19.07142 -19.03609
  Beta  occ. eigenvalues --  -19.03450 -10.22569 -10.20216 -10.20161 -10.19998
  Beta  occ. eigenvalues --  -10.18523 -10.18266 -10.18156 -10.18083 -10.18029
  Beta  occ. eigenvalues --  -10.16884 -10.16234 -10.15213 -10.15018 -10.14912
  Beta  occ. eigenvalues --  -10.13857 -10.13765 -10.13262  -8.09052  -6.05321
  Beta  occ. eigenvalues --   -6.05256  -6.05132  -1.07575  -1.00263  -0.96820
  Beta  occ. eigenvalues --   -0.95831  -0.95278  -0.86773  -0.80307  -0.79277
  Beta  occ. eigenvalues --   -0.76948  -0.75618  -0.73888  -0.69342  -0.66772
  Beta  occ. eigenvalues --   -0.66340  -0.65119  -0.61783  -0.61517  -0.59358
  Beta  occ. eigenvalues --   -0.56749  -0.54896  -0.52156  -0.48638  -0.48197
  Beta  occ. eigenvalues --   -0.46780  -0.46127  -0.45604  -0.44981  -0.44192
  Beta  occ. eigenvalues --   -0.43359  -0.43042  -0.42768  -0.42536  -0.41808
  Beta  occ. eigenvalues --   -0.40202  -0.39407  -0.38113  -0.37940  -0.37211
  Beta  occ. eigenvalues --   -0.36960  -0.36509  -0.35853  -0.35433  -0.35207
  Beta  occ. eigenvalues --   -0.34968  -0.34507  -0.33783  -0.32739  -0.31458
  Beta  occ. eigenvalues --   -0.31012  -0.30267  -0.29888  -0.28646  -0.28053
  Beta  occ. eigenvalues --   -0.26295  -0.25770  -0.24289  -0.23421  -0.22006
  Beta  occ. eigenvalues --   -0.20895  -0.20505  -0.14451
  Beta virt. eigenvalues --   -0.04030  -0.03100  -0.01675  -0.00214   0.00864
  Beta virt. eigenvalues --    0.01104   0.01494   0.02047   0.02395   0.02864
  Beta virt. eigenvalues --    0.03235   0.03599   0.03814   0.04279   0.04572

 Mulliken charges and spin densities:
               1          2
     1  C   -0.495161  -0.000000
     2  C   -0.096357   0.000000
     3  C   -0.300557   0.000000
     4  C   -0.859581  -0.000000
     5  C    0.861394   0.000000
     6  C   -0.225370   0.000000
     7  O   -0.553861  -0.000000
     8  O   -0.486662   0.000000
     9  S    1.037708  -0.000000
    10  C   -0.416707  -0.000000
    11  C   -0.037945   0.000000
    12  C    0.095934  -0.000000
    13  C   -0.469597   0.000000
    14  C   -0.523021  -0.000000
    15  C   -0.344769   0.000000
    16  O   -0.215072  -0.000000
    17  O   -0.284180  -0.000000
    18  H    0.181190   0.000000
    19  H    0.174704   0.000000
    20  H    0.221816   0.000000
    21  H    0.236495  -0.000000
    22  H    0.208739   0.000000
    23  H    0.212828   0.000000
    24  H    0.187778  -0.000000
    25  C   -0.037153   0.000000
    26  O   -0.273005   0.000000
    27  C    0.761567  -0.000000
    28  C   -0.627583  -0.000000
    29  C   -0.656113   0.000000
    30  C   -0.689026   0.000000
    31  H    0.186017   0.000000
    32  H    0.146726   0.000000
    33  H    0.147076   0.000000
    34  H    0.189432   0.000000
    35  H    0.145026   0.000000
    36  H    0.143982  -0.000000
    37  H    0.152407   0.000000
    38  H    0.157601  -0.000000
    39  H    0.143298  -0.000000
 Sum of Mulliken charges =  -2.00000   0.00000

 Dipole moment (field-independent basis, Debye):
    X=             -6.2200    Y=            -10.6407    Z=             11.9483  Tot=             17.1661
 Quadrupole moment (field-independent basis, Debye-Ang):
   XX=           -156.7961   YY=           -201.4733   ZZ=           -209.6304
   XY=             -5.8814   XZ=             20.9704   YZ=             41.0781

  Exact polarizability: 450.988 -60.407 316.415 -21.270 -27.483 363.073
 Approx polarizability: 481.790 -71.914 354.779 -36.596 -13.141 435.413

                      1                      2                      3
                      A                      A                      A
 Frequencies --     24.5723                37.0421                60.4397
 Red. masses --      4.6448                 7.4869                 4.5394
 Frc consts  --      0.0017                 0.0061                 0.0098
 IR Inten    --      3.5371                 2.0137                 2.3340

                      4                      5                      6
                      A                      A                      A
 Frequencies --     65.2763                82.7544                93.2803
 Red. masses --      4.2418                 5.2536                 5.4269
 Frc consts  --      0.0106                 0.0212                 0.0278
 IR Inten    --      0.9820                 5.4436                13.5893

                      7                      8                      9
                      A                      A                      A
 Frequencies --    120.1786               140.3344               159.2757
 Red. masses --      5.0313                 6.0852                 7.1471
 Frc consts  --      0.0428                 0.0706                 0.1068
 IR Inten    --      4.4616                 1.7394                13.3401

                     10                     11                     12
                      A                      A                      A
 Frequencies --    176.4453               203.0443               206.0566
 Red. masses --      4.0390                 3.4753                 4.2495
 Frc consts  --      0.0741                 0.0844                 0.1063
 IR Inten    --      3.0303                 4.7287                 6.2057

                     13                     14                     15
                      A                      A                      A
 Frequencies --    211.6717               229.4128               244.4833
 Red. masses --      1.3069                 3.9675                 2.5263
 Frc consts  --      0.0345                 0.1230                 0.0890
 IR Inten    --      2.2082                 5.2880                28.9204

                     16                     17                     18
                      A                      A                      A
 Frequencies --    262.0301               267.9413               282.8509
 Red. masses --      1.3049                 6.5313                 1.2523
 Frc consts  --      0.0528                 0.2763                 0.0590
 IR Inten    --      2.7237                 6.0441                 3.5809

                     19                     20                     21
                      A                      A                      A
 Frequencies --    297.3765               311.4627               323.9825
 Red. masses --      5.1617                 5.3125                 7.2637
 Frc consts  --      0.2689                 0.3036                 0.4492
 IR Inten    --      9.5211                 3.7393                 2.5305

                     22                     23                     24
                      A                      A                      A
 Frequencies --    325.3532               355.1637               372.2782
 Red. masses --      5.4577                 3.2381                 4.2996
 Frc consts  --      0.3404                 0.2407                 0.3511
 IR Inten    --     11.4699                 1.4847                 9.9244

                     25                     26                     27
                      A                      A                      A
 Frequencies --    393.3741               406.2908               412.2248
 Red. masses --      2.9455                 4.1797                 2.9149
 Frc consts  --      0.2686                 0.4065                 0.2918
 IR Inten    --      2.8947                 3.4185                 1.8149

                     28                     29                     30
                      A                      A                      A
 Frequencies --    436.2261               468.8437               476.6552
 Red. masses --      7.1745                 3.9549                 6.5383
 Frc consts  --      0.8044                 0.5122                 0.8752
 IR Inten    --     93.7666                16.3994                 4.9833

                     31                     32                     33
                      A                      A                      A
 Frequencies --    493.6293               495.4299               543.8778
 Red. masses --      8.4577                 7.1559                 5.9049
 Frc consts  --      1.2142                 1.0349                 1.0291
 IR Inten    --     38.1778                57.8479               113.3185

                     34                     35                     36
                      A                      A                      A
 Frequencies --    563.6855               604.3945               615.8461
 Red. masses --      4.2447                 6.5555                 2.6815
 Frc consts  --      0.7946                 1.4109                 0.5992
 IR Inten    --     44.1200               218.0157                 0.7984

                     37                     38                     39
                      A                      A                      A
 Frequencies --    626.5880               645.8948               696.5491
 Red. masses --      6.4451                 5.3223                 4.8600
 Frc consts  --      1.4909                 1.3082                 1.3893
 IR Inten    --      0.9459                37.5274                22.0448

                     40                     41                     42
                      A                      A                      A
 Frequencies --    705.9077               721.0948               737.4946
 Red. masses --      2.2730                 6.8544                 6.3793
 Frc consts  --      0.6673                 2.0999                 2.0443
 IR Inten    --     75.5671               108.4968                31.7632

                     43                     44                     45
                      A                      A                      A
 Frequencies --    764.9381               783.1490               803.0234
 Red. masses --      1.7546                 7.1254                 4.3029
 Frc consts  --      0.6049                 2.5748                 1.6348
 IR Inten    --     38.4246                61.9767                37.8247

                     46                     47                     48
                      A                      A                      A
 Frequencies --    843.2123               855.8348               856.2714
 Red. masses --      2.4704                 1.2844                 2.9697
 Frc consts  --      1.0349                 0.5543                 1.2829
 IR Inten    --    121.4581                 9.8259               138.2523

                     49                     50                     51
                      A                      A                      A
 Frequencies --    882.0042               930.3077               939.7839
 Red. masses --      6.6625                 1.7604                 1.6848
 Frc consts  --      3.0537                 0.8976                 0.8767
 IR Inten    --     91.8489                 9.6654                 1.7558

                     52                     53                     54
                      A                      A                      A
 Frequencies --    940.9656               961.9989               982.8619
 Red. masses --      1.3719                 1.2004                 1.3065
 Frc consts  --      0.7157                 0.6545                 0.7436
 IR Inten    --      5.0524                 1.6346                 7.1576

                     55                     56                     57
                      A                      A                      A
 Frequencies --    994.3482               996.2711              1012.7106
 Red. masses --      2.5342                 2.4030                 1.3003
 Frc consts  --      1.4763                 1.4052                 0.7857
 IR Inten    --    162.5907               142.2083                 0.6966

                     58                     59                     60
                      A                      A                      A
 Frequencies --   1016.0980              1031.0055              1040.3428
 Red. masses --      6.1864                 1.6812                 2.5096
 Frc consts  --      3.7632                 1.0529                 1.6003
 IR Inten    --     50.8107                75.6414                37.4132

                     61                     62                     63
                      A                      A                      A
 Frequencies --   1044.1363              1062.1074              1089.1710
 Red. masses --      1.6591                 2.6658                 2.0353
 Frc consts  --      1.0657                 1.7718                 1.4226
 IR Inten    --     28.7421                88.0190                68.1988

                     64                     65                     66
                      A                      A                      A
 Frequencies --   1091.1157              1096.7055              1133.4879
 Red. masses --      2.1180                 2.3445                14.1926
 Frc consts  --      1.4856                 1.6614                10.7435
 IR Inten    --      2.7889                49.5601               422.7894

                     67                     68                     69
                      A                      A                      A
 Frequencies --   1156.3201              1175.4991              1189.7336
 Red. masses --      1.5924                 1.1130                 1.1474
 Frc consts  --      1.2545                 0.9061                 0.9569
 IR Inten    --    507.1130                 0.6464                 3.6381

                     70                     71                     72
                      A                      A                      A
 Frequencies --   1212.8461              1223.5966              1242.4295
 Red. masses --      3.0924                 4.6872                 3.1494
 Frc consts  --      2.6801                 4.1346                 2.8644
 IR Inten    --     12.3739                72.3395                36.8494

                     73                     74                     75
                      A                      A                      A
 Frequencies --   1247.8880              1288.9964              1325.1294
 Red. masses --      2.9539                 3.7828                 2.9831
 Frc consts  --      2.7102                 3.7031                 3.0863
 IR Inten    --     92.6147               199.4567                 0.9956

                     76                     77                     78
                      A                      A                      A
 Frequencies --   1333.5428              1338.7143              1367.3816
 Red. masses --      2.6606                 1.8200                 1.2235
 Frc consts  --      2.7877                 1.9217                 1.3478
 IR Inten    --    323.8529                 4.5640                30.1331

                     79                     80                     81
                      A                      A                      A
 Frequencies --   1378.3655              1403.0875              1422.1152
 Red. masses --      1.2765                 1.2741                 5.0568
 Frc consts  --      1.4289                 1.4778                 6.0255
 IR Inten    --    104.0560               108.2139               462.9323

                     82                     83                     84
                      A                      A                      A
 Frequencies --   1457.4972              1466.8557              1469.1948
 Red. masses --      8.3389                 1.0978                 2.1975
 Frc consts  --     10.4370                 1.3917                 2.7947
 IR Inten    --    391.2636                66.7991               817.6965

                     85                     86                     87
                      A                      A                      A
 Frequencies --   1471.1975              1478.7876              1484.2322
 Red. masses --      2.1425                 1.0499                 1.1025
 Frc consts  --      2.7322                 1.3528                 1.4310
 IR Inten    --     57.9237                 1.5424                53.5940

                     88                     89                     90
                      A                      A                      A
 Frequencies --   1494.8060              1504.9872              1506.2386
 Red. masses --      1.2594                 2.0531                 1.0530
 Frc consts  --      1.6580                 2.7398                 1.4075
 IR Inten    --    223.0834                11.6337                 5.0117

                     91                     92                     93
                      A                      A                      A
 Frequencies --   1518.2317              1565.0779              1617.5425
 Red. masses --      1.0603                10.8776                 5.4729
 Frc consts  --      1.4400                15.6984                 8.4368
 IR Inten    --     39.5353               681.5719                 2.6504

                     94                     95                     96
                      A                      A                      A
 Frequencies --   1621.1931              1631.7800              3002.4814
 Red. masses --      5.9115                 6.9542                 1.0384
 Frc consts  --      9.1542                10.9099                 5.5152
 IR Inten    --      5.1903               126.3295                86.2540

                     97                     98                     99
                      A                      A                      A
 Frequencies --   3007.6861              3022.7458              3059.1505
 Red. masses --      1.0420                 1.0397                 1.1001
 Frc consts  --      5.5538                 5.5970                 6.0659
 IR Inten    --     85.7681               135.1450                60.8075

                    100                    101                    102
                      A                      A                      A
 Frequencies --   3067.5200              3085.3353              3108.6694
 Red. masses --      1.0950                 1.0962                 1.1015
 Frc consts  --      6.0706                 6.1479                 6.2714
 IR Inten    --     44.8480                67.4567                53.7004

                    103                    104                    105
                      A                      A                      A
 Frequencies --   3116.4455              3126.3922              3126.8331
 Red. masses --      1.0993                 1.0977                 1.0863
 Frc consts  --      6.2903                 6.3216                 6.2574
 IR Inten    --      6.4220                14.3563                25.4607

                    106                    107                    108
                      A                      A                      A
 Frequencies --   3149.0327              3166.1516              3175.7048
 Red. masses --      1.0956                 1.0861                 1.0899
 Frc consts  --      6.4011                 6.4146                 6.4759
 IR Inten    --     93.5041                 0.2742                21.2148

                    109                    110                    111
                      A                      A                      A
 Frequencies --   3186.8835              3199.2173              3210.8942
 Red. masses --      1.0947                 1.0942                 1.0923
 Frc consts  --      6.5507                 6.5983                 6.6351
 IR Inten    --     32.1918                 7.2244                 7.0288

 - Thermochemistry -
 -------------------
 Temperature   298.150 Kelvin.  Pressure   1.00000 Atm.
 Atom     1 has atomic number  6 and mass  12.00000

 Molecular mass:   332.07185 amu.
 Principal axes and moments of inertia in atomic units:
                           1         2         3
     Eigenvalues --  5808.921076572.17571**********
           X            0.99517   0.03634   0.09116
           Y           -0.08790   0.74315   0.66333
           Z           -0.04364  -0.66814   0.74275
 This molecule is an asymmetric top.
 Rotational symmetry number  1.
 Warning -- assumption of classical behavior for rotation
           may cause significant error
 Rotational temperatures (Kelvin)      0.01491     0.01318     0.00858
 Rotational constants (GHZ):           0.31068     0.27460     0.17881
 Zero-point vibrational energy     768319.4 (Joules/Mol)
                                  183.63275 (Kcal/Mol)
 Warning -- explicit consideration of  36 degrees of freedom as
           vibrations may cause significant error
 Vibrational temperatures:     35.35    53.30    86.96    93.92   119.07
          (Kelvin)            134.21   172.91   201.91   229.16   253.87
                              292.14   296.47   304.55   330.07   351.76
                              377.00   385.51   406.96   427.86   448.13
                              466.14   468.11   511.00   535.63   565.98
                              584.56   593.10   627.63   674.56   685.80
                              710.22   712.81   782.52   811.02   869.59
                              886.07   901.52   929.30  1002.18  1015.64
                             1037.49  1061.09  1100.58  1126.78  1155.37
                             1213.19  1231.36  1231.98  1269.01  1338.51
                             1352.14  1353.84  1384.10  1414.12  1430.65
                             1433.41  1457.06  1461.94  1483.39  1496.82
                             1502.28  1528.14  1567.07  1569.87  1577.91
                             1630.84  1663.69  1691.28  1711.76  1745.02
                             1760.48  1787.58  1795.43  1854.58  1906.57
                             1918.67  1926.11  1967.36  1983.16  2018.73
                             2046.11  2097.01  2110.48  2113.84  2116.73
                             2127.65  2135.48  2150.69  2165.34  2167.14
                             2184.40  2251.80  2327.28  2332.54  2347.77
                             4319.90  4327.39  4349.06  4401.44  4413.48
                             4439.11  4472.68  4483.87  4498.18  4498.82
                             4530.76  4555.39  4569.13  4585.21  4602.96
                             4619.76

 Zero-point correction=                           0.292637 (Hartree/Particle)
 Thermal correction to Energy=                    0.314150
 Thermal correction to Enthalpy=                  0.315095
 Thermal correction to Gibbs Free Energy=         0.242768
 Sum of electronic and zero-point Energies=          -1431.952121
 Sum of electronic and thermal Energies=             -1431.930608
 Sum of electronic and thermal Enthalpies=           -1431.929664
 Sum of electronic and thermal Free Energies=        -1432.001991

                     E (Thermal)             CV                S
                      KCal/Mol        Cal/Mol-Kelvin    Cal/Mol-Kelvin
 Total                  197.132             83.388            152.224
 Electronic               0.000              0.000              0.000
 Translational            0.889              2.981             43.296
 Rotational               0.889              2.981             34.310
 Vibrational            195.355             77.427             74.619
 Vibration     1          0.593              1.985              6.225
 Vibration     2          0.594              1.982              5.411
 Vibration     3          0.597              1.973              4.443
 Vibration     4          0.597              1.971              4.291
 Vibration     5          0.600              1.961              3.824
 Vibration     6          0.602              1.954              3.590
 Vibration     7          0.609              1.932              3.097
 Vibration     8          0.615              1.913              2.799
 Vibration     9          0.621              1.892              2.558
 Vibration    10          0.628              1.871              2.366
 Vibration    11          0.639              1.836              2.105
 Vibration    12          0.641              1.831              2.078
 Vibration    13          0.643              1.823              2.029
 Vibration    14          0.652              1.796              1.884
 Vibration    15          0.660              1.772              1.770
 Vibration    16          0.669              1.742              1.648
 Vibration    17          0.673              1.732              1.609
 Vibration    18          0.682              1.705              1.516
 Vibration    19          0.691              1.679              1.432
 Vibration    20          0.700              1.652              1.355
 Vibration    21          0.709              1.627              1.290
 Vibration    22          0.709              1.625              1.283
 Vibration    23          0.731              1.565              1.143
 Vibration    24          0.744              1.529              1.070
 Vibration    25          0.761              1.484              0.987
 Vibration    26          0.771              1.457              0.940
 Vibration    27          0.776              1.444              0.919
 Vibration    28          0.797              1.391              0.839
 Vibration    29          0.826              1.319              0.741
 Vibration    30          0.833              1.302              0.719
 Vibration    31          0.849              1.264              0.674
 Vibration    32          0.851              1.260              0.670
 Vibration    33          0.899              1.153              0.557
 Vibration    34          0.919              1.110              0.517
 Vibration    35          0.963              1.022              0.442
 Vibration    36          0.975              0.998              0.423

 Optimization completed.
    -- Stationary point found.
 Normal termination of Gaussian 16 at Sat Feb 10 22:04:54 2024.
