 Gaussian 16, Revision A.03,
 Gaussian 16:  ES64L-G16RevA.03 25-Dec-2016

 ----------------------------------------------------------------
 #P UB3LYP/6-311++G(d,p) SCRF=(PCM,Solvent=n,n-DiMethylFormamide)
 ----------------------------------------------------------------

 ------------------
 Radical PCM in DMF
 ------------------
 Symbolic Z-matrix:
 Charge = -1 Multiplicity = 2

                         Standard orientation:
 ---------------------------------------------------------------------
 Center     Atomic      Atomic             Coordinates (Angstroms)
 Number     Number       Type             X           Y           Z
 ---------------------------------------------------------------------
      1          6           0       -4.974585   -0.600982    0.744924
      2          6           0       -5.381664   -1.879993    0.409430
      3          6           0       -4.543160   -2.705666   -0.362514
      4          6           0       -3.724015   -0.106425    0.324585
      5          6           0       -2.882613   -0.936811   -0.451159
      6          6           0       -3.311580   -2.235436   -0.783780
      7          6           0       -3.317500    1.257844    0.700389
      8          6           0       -2.013887    1.707320    0.250446
      9          6           0       -1.200710    0.879366   -0.528627
     10          6           0       -1.564816   -0.467463   -0.927843
     11          8           0       -4.077076    1.990382    1.390214
     12          8           0       -0.826184   -1.206316   -1.614555
     13          1           0       -5.599488    0.056848    1.337586
     14          1           0       -6.348421   -2.247545    0.740770
     15          1           0       -4.862454   -3.709512   -0.626148
     16          1           0       -2.643319   -2.846419   -1.379399
     17          6           0       -1.611092    3.100775    0.657813
     18         16           0        0.323058    1.530992   -1.214080
     19          6           0        1.634730    0.621291   -0.426946
     20          6           0        2.920724    0.786286   -0.908274
     21          6           0        4.023600    0.139638   -0.301591
     22          6           0        3.800846   -0.710524    0.829186
     23          6           0        2.468805   -0.868165    1.295263
     24          6           0        1.417910   -0.226027    0.692447
     25          6           0        5.354987    0.298716   -0.776020
     26          6           0        6.407829   -0.343910   -0.167370
     27          6           0        6.184894   -1.183126    0.950424
     28          6           0        4.907300   -1.358801    1.432711
     29          1           0       -1.759457    3.815371   -0.161784
     30          1           0       -0.555469    3.148940    0.932760
     31          1           0       -2.236955    3.423348    1.490114
     32          1           0        3.097932    1.419876   -1.772157
     33          1           0        2.285490   -1.516006    2.147334
     34          1           0        0.408222   -0.361960    1.058144
     35          1           0        5.527989    0.940489   -1.634522
     36          1           0        7.416371   -0.209927   -0.544986
     37          1           0        7.021856   -1.686377    1.422679
     38          1           0        4.728820   -2.002967    2.288659
 ---------------------------------------------------------------------

 SCF Done:  E(UB3LYP) =  -1357.73687238     A.U. after   22 cycles

 The electronic state is 2-A.
 Alpha  occ. eigenvalues --  -88.85002 -19.07921 -19.07896 -10.22987 -10.22339
 Alpha  occ. eigenvalues --  -10.21173 -10.19288 -10.19075 -10.18724 -10.18277
 Alpha  occ. eigenvalues --  -10.18127 -10.17982 -10.17974 -10.17938 -10.17860
 Alpha  occ. eigenvalues --  -10.17824 -10.17761 -10.17614 -10.17559 -10.17551
 Alpha  occ. eigenvalues --  -10.17488 -10.17221 -10.17159 -10.15492  -7.93619
 Alpha  occ. eigenvalues --   -5.90012  -5.89604  -5.89037  -1.00880  -1.00346
 Alpha  occ. eigenvalues --   -0.88451  -0.86140  -0.84215  -0.82139  -0.78496
 Alpha  occ. eigenvalues --   -0.77123  -0.75551  -0.75210  -0.73448  -0.71966
 Alpha  occ. eigenvalues --   -0.68289  -0.65918  -0.62963  -0.62029  -0.60270
 Alpha  occ. eigenvalues --   -0.59997  -0.58761  -0.55699  -0.52137  -0.51694
 Alpha  occ. eigenvalues --   -0.51327  -0.49624  -0.48366  -0.46750  -0.45403
 Alpha  occ. eigenvalues --   -0.45175  -0.44322  -0.43493  -0.42702  -0.42351
 Alpha  occ. eigenvalues --   -0.42201  -0.41896  -0.41676  -0.40344  -0.40041
 Alpha  occ. eigenvalues --   -0.39883  -0.38589  -0.38376  -0.37697  -0.37243
 Alpha  occ. eigenvalues --   -0.36097  -0.35168  -0.34780  -0.34658  -0.34053
 Alpha  occ. eigenvalues --   -0.33854  -0.32592  -0.29958  -0.27944  -0.27191
 Alpha  occ. eigenvalues --   -0.25830  -0.25179  -0.24979  -0.23938  -0.23618
 Alpha  occ. eigenvalues --   -0.20774  -0.15640
 Alpha virt. eigenvalues --   -0.05169  -0.03711  -0.02587  -0.02159  -0.00512
 Alpha virt. eigenvalues --    0.00056   0.00336   0.00674   0.01077   0.01520
 Alpha virt. eigenvalues --    0.02085   0.02639   0.02822   0.03360   0.03829

  Beta  occ. eigenvalues --  -88.85003 -19.07390 -19.07228 -10.22860 -10.22177
  Beta  occ. eigenvalues --  -10.21158 -10.19159 -10.19075 -10.18723 -10.18128
  Beta  occ. eigenvalues --  -10.18036 -10.17979 -10.17975 -10.17938 -10.17860
  Beta  occ. eigenvalues --  -10.17823 -10.17760 -10.17572 -10.17533 -10.17524
  Beta  occ. eigenvalues --  -10.17455 -10.17224 -10.17144 -10.15509  -7.93619
  Beta  occ. eigenvalues --   -5.90016  -5.89608  -5.89031  -0.99952  -0.99174
  Beta  occ. eigenvalues --   -0.88442  -0.85938  -0.84134  -0.81784  -0.78439
  Beta  occ. eigenvalues --   -0.77020  -0.75372  -0.75059  -0.73400  -0.71738
  Beta  occ. eigenvalues --   -0.68130  -0.65272  -0.62955  -0.61933  -0.60266
  Beta  occ. eigenvalues --   -0.59870  -0.58505  -0.55441  -0.52113  -0.51530
  Beta  occ. eigenvalues --   -0.51242  -0.49475  -0.48228  -0.46519  -0.45346
  Beta  occ. eigenvalues --   -0.45154  -0.44213  -0.42994  -0.42661  -0.42295
  Beta  occ. eigenvalues --   -0.41775  -0.41579  -0.41115  -0.40284  -0.39893
  Beta  occ. eigenvalues --   -0.39258  -0.38396  -0.38293  -0.37112  -0.36183
  Beta  occ. eigenvalues --   -0.35448  -0.34759  -0.34632  -0.34064  -0.33941
  Beta  occ. eigenvalues --   -0.33761  -0.32313  -0.29944  -0.27670  -0.25279
  Beta  occ. eigenvalues --   -0.25005  -0.24583  -0.24371  -0.23664  -0.23275
  Beta  occ. eigenvalues --   -0.20633
  Beta virt. eigenvalues --   -0.09056  -0.05156  -0.02976  -0.02360  -0.01280
  Beta virt. eigenvalues --   -0.00497   0.00073   0.00341   0.00685   0.01083
  Beta virt. eigenvalues --    0.01538   0.02131   0.02665   0.02837   0.03457

 Mulliken charges and spin densities:
               1          2
     1  C   -0.030134   0.030106
     2  C   -0.522963   0.010272
     3  C   -0.544573   0.027089
     4  C    0.154757  -0.000736
     5  C    0.200085   0.007854
     6  C    0.060461   0.020190
     7  C   -0.784599   0.095707
     8  C    0.655586   0.172578
     9  C    1.310323   0.088949
    10  C   -0.816235   0.086780
    11  O   -0.462443   0.247360
    12  O   -0.387669   0.198282
    13  H    0.181083  -0.003133
    14  H    0.184375  -0.001170
    15  H    0.184333  -0.002184
    16  H    0.182251  -0.001757
    17  C   -0.426786  -0.008585
    18  S   -0.580992   0.005415
    19  C    0.250321   0.022894
    20  C   -0.126970   0.002093
    21  C   -0.176630   0.003239
    22  C    0.194148   0.000437
    23  C   -0.082002  -0.002148
    24  C   -0.349988  -0.018845
    25  C   -0.165946  -0.000383
    26  C   -0.308607  -0.000543
    27  C   -0.251026   0.000424
    28  C   -0.307378  -0.000562
    29  H    0.188281   0.011846
    30  H    0.134339   0.004833
    31  H    0.178920  -0.000681
    32  H    0.170698   0.000609
    33  H    0.200309  -0.000020
    34  H    0.213845   0.003810
    35  H    0.157800  -0.000024
    36  H    0.187082   0.000036
    37  H    0.191841  -0.000034
    38  H    0.144105   0.000001
 Sum of Mulliken charges =  -1.00000   1.00000

 Dipole moment (field-independent basis, Debye):
    X=              9.2930    Y=             -2.7962    Z=              1.8663  Tot=              9.8824
 Quadrupole moment (field-independent basis, Debye-Ang):
   XX=           -180.1135   YY=           -161.2332   ZZ=           -161.2434
   XY=             16.6561   XZ=              8.5253   YZ=            -14.4948

 Normal termination of Gaussian 16 at Thu Jan 25 05:58:37 2024.
