 Q-Chem 5.4, Q-Chem, Inc., Pleasanton, CA (2021)
 Q-Chem 5.4.0 for Intel X86 EM64T Linux

User input:
--------------------------------------------------------------
$molecule
0 1
C                  4.8263720000     -3.0159550000      0.2902800000
C                  5.7306640000     -2.2040530000     -0.3836380000
C                  5.2952060000     -1.0278070000     -1.0009820000
C                  3.4758190000     -2.6580240000      0.3526560000
C                  3.0376240000     -1.4741980000     -0.2687100000
C                  3.9553140000     -0.6636770000     -0.9442640000
C                  2.5241520000     -3.5335050000      1.0749730000
C                  1.1127350000     -3.1425550000      1.1221910000
C                  0.6680590000     -1.9435050000      0.4936390000
C                  1.6120490000     -1.0738990000     -0.2175570000
C                  0.2003870000     -3.9701320000      1.8023540000
C                 -1.1629490000     -3.5799420000      1.8360420000
C                 -0.6882790000     -1.5828650000      0.5554340000
C                 -1.5958100000     -2.4212950000      1.2380200000
O                  2.9221870000     -4.5736080000      1.6241590000
O                  1.2315200000     -0.0286050000     -0.7638700000
O                  0.5678570000     -5.0899870000      2.4210810000
H                  5.1438910000     -3.9307180000      0.7744350000
H                  6.7765200000     -2.4846950000     -0.4304080000
H                  6.0038200000     -0.3975010000     -1.5257000000
H                  1.5456620000     -5.1917350000      2.2716390000
O                 -1.1822390000     -0.4740050000     -0.0025480000
H                 -2.6400320000     -2.1391880000      1.2854400000
H                 -0.4277760000     -0.0055950000     -0.4365490000
H                  3.5978740000      0.2429740000     -1.4158250000
S                 -2.4066770000     -4.6287490000      2.6187060000
O                 -3.6452750000     -3.8728450000      2.6356710000
O                 -2.3587950000     -5.9651570000      2.0475400000
O                 -1.8395460000     -4.6681120000      4.1434930000
C                 -1.5215420000     -5.9524530000      4.7432170000
H                 -0.8495670000     -6.5158000000      4.0990640000
H                 -2.4361780000     -6.5131420000      4.9360600000
H                 -1.0313760000     -5.6940540000      5.6796090000
$end

$rem
BASIS  =  6-311++G(d,p)
GUI  =  2
JOB_TYPE  =  SP
METHOD  =  B3LYP
SCF_CONVERGENCE  = 8
SOLVENT_METHOD = sm12
$end

$smx
solvent dimethylformamide
charges CM5
$end

--------------------------------------------------------------

             Standard Nuclear Orientation (Angstroms)
    I     Atom           X                Y                Z
 ----------------------------------------------------------------
    1      C       4.8263720000    -3.0159550000     0.2902800000
    2      C       5.7306640000    -2.2040530000    -0.3836380000
    3      C       5.2952060000    -1.0278070000    -1.0009820000
    4      C       3.4758190000    -2.6580240000     0.3526560000
    5      C       3.0376240000    -1.4741980000    -0.2687100000
    6      C       3.9553140000    -0.6636770000    -0.9442640000
    7      C       2.5241520000    -3.5335050000     1.0749730000
    8      C       1.1127350000    -3.1425550000     1.1221910000
    9      C       0.6680590000    -1.9435050000     0.4936390000
   10      C       1.6120490000    -1.0738990000    -0.2175570000
   11      C       0.2003870000    -3.9701320000     1.8023540000
   12      C      -1.1629490000    -3.5799420000     1.8360420000
   13      C      -0.6882790000    -1.5828650000     0.5554340000
   14      C      -1.5958100000    -2.4212950000     1.2380200000
   15      O       2.9221870000    -4.5736080000     1.6241590000
   16      O       1.2315200000    -0.0286050000    -0.7638700000
   17      O       0.5678570000    -5.0899870000     2.4210810000
   18      H       5.1438910000    -3.9307180000     0.7744350000
   19      H       6.7765200000    -2.4846950000    -0.4304080000
   20      H       6.0038200000    -0.3975010000    -1.5257000000
   21      H       1.5456620000    -5.1917350000     2.2716390000
   22      O      -1.1822390000    -0.4740050000    -0.0025480000
   23      H      -2.6400320000    -2.1391880000     1.2854400000
   24      H      -0.4277760000    -0.0055950000    -0.4365490000
   25      H       3.5978740000     0.2429740000    -1.4158250000
   26      S      -2.4066770000    -4.6287490000     2.6187060000
   27      O      -3.6452750000    -3.8728450000     2.6356710000
   28      O      -2.3587950000    -5.9651570000     2.0475400000
   29      O      -1.8395460000    -4.6681120000     4.1434930000
   30      C      -1.5215420000    -5.9524530000     4.7432170000
   31      H      -0.8495670000    -6.5158000000     4.0990640000
   32      H      -2.4361780000    -6.5131420000     4.9360600000
   33      H      -1.0313760000    -5.6940540000     5.6796090000
 ----------------------------------------------------------------

   16   -1502.6611225566      3.64e-09  Convergence criterion met
 Total energy in the final basis set =    -1502.6953317978

                    Orbital Energies (a.u.)
 --------------------------------------------------------------

 Alpha MOs
 -- Occupied --
-89.1000 -19.1847 -19.1764 -19.1722 -19.1477 -19.1471 -19.1450 -19.1440
-10.2977 -10.2970 -10.2910 -10.2815 -10.2490 -10.2313 -10.2268 -10.2264
-10.2263 -10.2161 -10.2156 -10.2017 -10.2016 -10.2008 -10.2003  -8.1604
 -6.1240  -6.1223  -6.1213  -1.1687  -1.1085  -1.1022  -1.0714  -1.0697
 -1.0571  -1.0412  -0.9097  -0.8914  -0.8401  -0.7937  -0.7880  -0.7808
 -0.7529  -0.7165  -0.6929  -0.6726  -0.6501  -0.6365  -0.6095  -0.5805
 -0.5782  -0.5720  -0.5567  -0.5433  -0.5253  -0.5097  -0.5058  -0.4991
 -0.4857  -0.4841  -0.4743  -0.4652  -0.4621  -0.4571  -0.4558  -0.4521
 -0.4473  -0.4466  -0.4392  -0.4162  -0.4145  -0.4062  -0.3970  -0.3872
 -0.3831  -0.3723  -0.3684  -0.3601  -0.3505  -0.3435  -0.3379  -0.3247
 -0.3073  -0.3070  -0.2906  -0.2857  -0.2828  -0.2484

          Ground-State Mulliken Net Atomic Charges

     Atom                 Charge (a.u.)
  ----------------------------------------
      1 C                     0.365001
      2 C                     0.373875
      3 C                     0.276589
      4 C                     0.277622
      5 C                    -0.366960
      6 C                     0.346598
      7 C                    -0.870795
      8 C                     0.783161
      9 C                     0.890479
     10 C                    -0.735217
     11 C                    -0.384363
     12 C                    -0.816385
     13 C                    -0.754834
     14 C                    -0.656742
     15 O                    -0.294270
     16 O                    -0.317349
     17 O                    -0.306864
     18 H                     0.220071
     19 H                     0.328450
     20 H                     0.324799
     21 H                     0.418146
     22 O                    -0.314981
     23 H                     0.257524
     24 H                     0.337749
     25 H                     0.228909
     26 S                     0.534215
     27 O                    -0.151242
     28 O                    -0.233808
     29 O                    -0.183733
     30 C                    -0.221314
     31 H                     0.195878
     32 H                     0.210494
     33 H                     0.239299
  ----------------------------------------
  Sum of atomic charges =     0.000000

                    Cartesian Multipole Moments
 -----------------------------------------------------------------
    Charge (ESU x 10^10)
                 0.0000
    Dipole Moment (Debye)
         X       8.7582      Y       1.3317      Z      -0.5983
       Tot       8.8790
    Quadrupole Moments (Debye-Ang)
        XX    -121.8351     XY     -20.7437     YY    -151.5343
        XZ       0.3027     YZ      -5.6188     ZZ    -130.2734

 Total job time:  1095.41s(wall), 8536.96s(cpu)
        *  Thank you very much for using Q-Chem.  Have a nice day.  *
