 Gaussian 16, Revision A.03,
 Gaussian 16:  ES64L-G16RevA.03 25-Dec-2016

 ----------------------------------------------------------------
 #P UB3LYP/6-311++G(d,p) SCRF=(PCM,Solvent=n,n-DiMethylFormamide)
 ----------------------------------------------------------------

 -------
 Reduced
 -------
 Symbolic Z-matrix:
 Charge = -2 Multiplicity = 1

                         Standard orientation:
 ---------------------------------------------------------------------
 Center     Atomic      Atomic             Coordinates (Angstroms)
 Number     Number       Type             X           Y           Z
 ---------------------------------------------------------------------
      1          6           0       -3.079411   -1.272755   -0.640462
      2          6           0       -1.712129   -1.495176   -0.534776
      3          6           0       -0.855173   -0.511824    0.017604
      4          6           0       -1.430348    0.694806    0.453336
      5          6           0        0.578666   -0.793104    0.154581
      6          6           0        1.704776    0.108880   -0.030876
      7          6           0        1.145174   -2.014960    0.463208
      8          6           0        2.903729   -0.643533    0.152794
      9          6           0        1.816698    1.464817   -0.377002
     10          6           0        3.078478    2.035956   -0.507842
     11          6           0        4.246864    1.277259   -0.293156
     12          6           0        4.174478   -0.070952    0.035517
     13          7           0        2.536558   -1.934915    0.435077
     14          1           0       -0.808751    1.454234    0.921293
     15          1           0        0.660872   -2.951124    0.693193
     16          1           0        0.919791    2.050147   -0.541424
     17          1           0        3.167959    3.084250   -0.778824
     18          1           0        5.220888    1.747833   -0.393665
     19          1           0        5.074219   -0.663496    0.182471
     20          1           0        3.171650   -2.681497    0.674755
     21          6           0       -3.729800   -0.063707   -0.210426
     22          6           0       -2.828986    1.002314    0.382397
     23          8           0       -4.976690    0.105212   -0.321705
     24          8           0       -3.302527    2.100430    0.797705
     25          1           0       -3.724209   -2.028157   -1.088376
     26          1           0       -1.282688   -2.421046   -0.912336
 ---------------------------------------------------------------------

 SCF Done:  E(UB3LYP) =  -744.547063776     A.U. after   20 cycles

 The electronic state is 1-A.
 Alpha  occ. eigenvalues --  -19.01538 -19.01298 -14.34549 -10.19935 -10.18589
 Alpha  occ. eigenvalues --  -10.17035 -10.16667 -10.16511 -10.16329 -10.16169
 Alpha  occ. eigenvalues --  -10.16161 -10.16087 -10.15642 -10.13006 -10.11888
 Alpha  occ. eigenvalues --  -10.10896 -10.10738  -0.96964  -0.94858  -0.92206
 Alpha  occ. eigenvalues --   -0.83702  -0.79879  -0.76094  -0.73072  -0.71414
 Alpha  occ. eigenvalues --   -0.67885  -0.64470  -0.61689  -0.58705  -0.56994
 Alpha  occ. eigenvalues --   -0.54095  -0.53101  -0.50504  -0.47716  -0.46639
 Alpha  occ. eigenvalues --   -0.43655  -0.42837  -0.42335  -0.42094  -0.41000
 Alpha  occ. eigenvalues --   -0.39776  -0.38598  -0.36380  -0.35824  -0.35588
 Alpha  occ. eigenvalues --   -0.35053  -0.34095  -0.33486  -0.32354  -0.30864
 Alpha  occ. eigenvalues --   -0.29169  -0.28439  -0.26126  -0.22270  -0.20757
 Alpha  occ. eigenvalues --   -0.20553  -0.17380  -0.17268  -0.11146
 Alpha virt. eigenvalues --   -0.01860  -0.00084   0.00900   0.01137   0.01513
 Alpha virt. eigenvalues --    0.02211   0.02732   0.02977   0.03459   0.03724
 Alpha virt. eigenvalues --    0.04325   0.04912   0.05254   0.05982   0.06593

  Beta  occ. eigenvalues --  -19.01538 -19.01298 -14.34549 -10.19935 -10.18589
  Beta  occ. eigenvalues --  -10.17035 -10.16667 -10.16511 -10.16329 -10.16169
  Beta  occ. eigenvalues --  -10.16161 -10.16087 -10.15642 -10.13006 -10.11888
  Beta  occ. eigenvalues --  -10.10896 -10.10738  -0.96964  -0.94858  -0.92206
  Beta  occ. eigenvalues --   -0.83702  -0.79879  -0.76094  -0.73072  -0.71414
  Beta  occ. eigenvalues --   -0.67885  -0.64470  -0.61689  -0.58705  -0.56994
  Beta  occ. eigenvalues --   -0.54095  -0.53101  -0.50504  -0.47716  -0.46639
  Beta  occ. eigenvalues --   -0.43655  -0.42837  -0.42335  -0.42094  -0.41000
  Beta  occ. eigenvalues --   -0.39776  -0.38598  -0.36380  -0.35824  -0.35588
  Beta  occ. eigenvalues --   -0.35053  -0.34095  -0.33486  -0.32354  -0.30864
  Beta  occ. eigenvalues --   -0.29169  -0.28439  -0.26126  -0.22270  -0.20757
  Beta  occ. eigenvalues --   -0.20553  -0.17380  -0.17268  -0.11146
  Beta virt. eigenvalues --   -0.01860  -0.00084   0.00900   0.01137   0.01513
  Beta virt. eigenvalues --    0.02211   0.02732   0.02977   0.03459   0.03724
  Beta virt. eigenvalues --    0.04325   0.04912   0.05254   0.05982   0.06593

 Mulliken charges and spin densities:
               1          2
     1  C    0.157264   0.000000
     2  C   -0.949411  -0.000000
     3  C    0.992236   0.000000
     4  C   -0.756344  -0.000000
     5  C    0.128757  -0.000000
     6  C    1.352817   0.000000
     7  C   -0.244024  -0.000000
     8  C    0.206061   0.000000
     9  C   -1.012991  -0.000000
    10  C   -0.611803   0.000000
    11  C   -0.228315  -0.000000
    12  C   -0.540597  -0.000000
    13  N   -0.116416   0.000000
    14  H    0.115095   0.000000
    15  H    0.190298  -0.000000
    16  H    0.141332  -0.000000
    17  H    0.179581   0.000000
    18  H    0.176331  -0.000000
    19  H    0.174693   0.000000
    20  H    0.329856  -0.000000
    21  C   -0.476421  -0.000000
    22  C   -0.042365   0.000000
    23  O   -0.687514   0.000000
    24  O   -0.708383   0.000000
    25  H    0.122535   0.000000
    26  H    0.107725  -0.000000
 Sum of Mulliken charges =  -2.00000  -0.00000

 Dipole moment (field-independent basis, Debye):
    X=             32.3830    Y=             -8.8309    Z=             -0.6236  Tot=             33.5713
 Quadrupole moment (field-independent basis, Debye-Ang):
   XX=           -237.3293   YY=           -116.2753   ZZ=           -115.1838
   XY=             15.4038   XZ=              5.3778   YZ=            -10.3208

 Normal termination of Gaussian 16 at Sat Jan 13 19:20:17 2024.
