 Q-Chem 5.4, Q-Chem, Inc., Pleasanton, CA (2021)
 Q-Chem 5.4.0 for Intel X86 EM64T Linux

User input:
--------------------------------------------------------------
$molecule
-1 2
C                  2.4861380000     -4.8028150000      2.0561040000
C                  2.4926000000     -3.9294680000      0.8980880000
C                  2.1096820000     -2.6158220000      0.8522560000
C                  1.6438850000     -1.9950020000      2.0934490000
C                  1.6518530000     -2.8647990000      3.2567680000
C                  2.0237890000     -4.1810860000      3.2903600000
O                  2.8550730000     -5.9992290000      1.9985680000
O                  1.2386570000     -0.8107540000      2.1523430000
C                  1.9908560000     -5.0379880000      4.5248320000
C                  2.1457730000     -1.7929470000     -0.4270320000
C                  0.7355280000     -1.3454270000     -0.8602810000
C                  3.1090370000     -0.5951570000     -0.3110870000
N                  2.9712160000     -4.5885750000     -0.3443930000
N                  1.1938270000     -2.2312040000      4.5126710000
H                  2.1113970000     -4.4525190000      5.4381590000
H                  2.7795740000     -5.7886300000      4.4618360000
H                  1.0383000000     -5.5742690000      4.5958710000
H                  2.5332030000     -2.4348430000     -1.2229670000
H                  0.7905510000     -0.8156720000     -1.8178520000
H                  0.2979740000     -0.6807960000     -0.1147000000
H                  0.0769960000     -2.2087590000     -0.9895490000
H                  3.1606450000     -0.0645920000     -1.2683600000
H                  4.1179320000     -0.9317190000     -0.0569480000
H                  2.7685710000      0.0988430000      0.4580710000
O                  4.1673730000     -4.5281740000     -0.5948900000
O                  2.1406860000     -5.1477430000     -1.0473790000
O                  0.0942510000     -2.5566090000      4.9499610000
O                  1.9442520000     -1.4314550000      5.0531410000
$end

$rem
BASIS  =  6-311++G(d,p)
GUI  =  2
JOB_TYPE  =  SP
METHOD  =  B3LYP
SCF_CONVERGENCE  = 8
SOLVENT_METHOD = sm12
$end

$smx
solvent dimethylformamide
charges CM5
$end

--------------------------------------------------------------

             Standard Nuclear Orientation (Angstroms)
    I     Atom           X                Y                Z
 ----------------------------------------------------------------
    1      C       2.4861380000    -4.8028150000     2.0561040000
    2      C       2.4926000000    -3.9294680000     0.8980880000
    3      C       2.1096820000    -2.6158220000     0.8522560000
    4      C       1.6438850000    -1.9950020000     2.0934490000
    5      C       1.6518530000    -2.8647990000     3.2567680000
    6      C       2.0237890000    -4.1810860000     3.2903600000
    7      O       2.8550730000    -5.9992290000     1.9985680000
    8      O       1.2386570000    -0.8107540000     2.1523430000
    9      C       1.9908560000    -5.0379880000     4.5248320000
   10      C       2.1457730000    -1.7929470000    -0.4270320000
   11      C       0.7355280000    -1.3454270000    -0.8602810000
   12      C       3.1090370000    -0.5951570000    -0.3110870000
   13      N       2.9712160000    -4.5885750000    -0.3443930000
   14      N       1.1938270000    -2.2312040000     4.5126710000
   15      H       2.1113970000    -4.4525190000     5.4381590000
   16      H       2.7795740000    -5.7886300000     4.4618360000
   17      H       1.0383000000    -5.5742690000     4.5958710000
   18      H       2.5332030000    -2.4348430000    -1.2229670000
   19      H       0.7905510000    -0.8156720000    -1.8178520000
   20      H       0.2979740000    -0.6807960000    -0.1147000000
   21      H       0.0769960000    -2.2087590000    -0.9895490000
   22      H       3.1606450000    -0.0645920000    -1.2683600000
   23      H       4.1179320000    -0.9317190000    -0.0569480000
   24      H       2.7685710000     0.0988430000     0.4580710000
   25      O       4.1673730000    -4.5281740000    -0.5948900000
   26      O       2.1406860000    -5.1477430000    -1.0473790000
   27      O       0.0942510000    -2.5566090000     4.9499610000
   28      O       1.9442520000    -1.4314550000     5.0531410000
 ----------------------------------------------------------------

   20    -948.0836595344      9.89e-09  Convergence criterion met
 Total energy in the final basis set =     -948.1544005568

                    Orbital Energies (a.u.)
 --------------------------------------------------------------

 Alpha MOs
 -- Occupied --
-19.1739 -19.1738 -19.1716 -19.1706 -19.0974 -19.0960 -14.5603 -14.5580
-10.2511 -10.2491 -10.2322 -10.2302 -10.2077 -10.2057 -10.1950 -10.1777
-10.1633 -10.1631  -1.2476  -1.2447  -1.0737  -1.0705  -1.0270  -1.0242
 -0.8797  -0.8465  -0.7998  -0.7656  -0.7407  -0.6940  -0.6905  -0.6449
 -0.6214  -0.5912  -0.5781  -0.5679  -0.5603  -0.5331  -0.5318  -0.5297
 -0.5211  -0.4915  -0.4541  -0.4518  -0.4494  -0.4314  -0.4275  -0.4256
 -0.4079  -0.4030  -0.3979  -0.3926  -0.3821  -0.3587  -0.3529  -0.3467
 -0.3328  -0.3301  -0.3277  -0.3264  -0.3243  -0.3229  -0.2928  -0.2688
 -0.2659  -0.2568  -0.1829

 Beta MOs
 -- Occupied --
-19.1738 -19.1738 -19.1715 -19.1705 -19.0900 -19.0888 -14.5604 -14.5581
-10.2501 -10.2481 -10.2314 -10.2293 -10.2061 -10.2041 -10.1951 -10.1778
-10.1632 -10.1630  -1.2476  -1.2445  -1.0736  -1.0703  -1.0148  -1.0116
 -0.8745  -0.8447  -0.7983  -0.7621  -0.7376  -0.6902  -0.6899  -0.6410
 -0.6194  -0.5901  -0.5765  -0.5671  -0.5595  -0.5317  -0.5314  -0.5288
 -0.5188  -0.4903  -0.4523  -0.4478  -0.4417  -0.4283  -0.4217  -0.4203
 -0.4011  -0.4002  -0.3927  -0.3853  -0.3665  -0.3572  -0.3515  -0.3463
 -0.3322  -0.3293  -0.3258  -0.3235  -0.3229  -0.3166  -0.2652  -0.2623
 -0.2591  -0.2504

          Ground-State Mulliken Net Atomic Charges

     Atom                 Charge (a.u.)    Spin (a.u.)
  --------------------------------------------------------
      1 C                    -1.252278       0.056711
      2 C                    -0.225479       0.063177
      3 C                     0.809289       0.110532
      4 C                    -1.663710       0.075633
      5 C                    -1.822148       0.030828
      6 C                     1.995915       0.120256
      7 O                    -0.343490       0.276852
      8 O                    -0.279974       0.267282
      9 C                     0.389761      -0.001361
     10 C                     0.539784      -0.022276
     11 C                    -0.330268       0.010106
     12 C                    -0.355724       0.011512
     13 N                    -0.217995      -0.012953
     14 N                    -0.279231      -0.007206
     15 H                     0.214809       0.001711
     16 H                     0.204164       0.001271
     17 H                     0.233149       0.006943
     18 H                     0.140295      -0.000788
     19 H                     0.241271       0.000386
     20 H                     0.150080      -0.001198
     21 H                     0.116298       0.000500
     22 H                     0.240291       0.000482
     23 H                     0.119947       0.000340
     24 H                     0.146623      -0.001196
     25 O                     0.048656       0.002725
     26 O                     0.047867       0.002730
     27 O                     0.068590       0.003259
     28 O                     0.063504       0.003741
  --------------------------------------------------------
  Sum of atomic charges =    -1.000000

                    Cartesian Multipole Moments
 -----------------------------------------------------------------
    Charge (ESU x 10^10)
                -4.8032
    Dipole Moment (Debye)
         X      -9.9601      Y      16.3799      Z      -9.9021
       Tot      21.5767
    Quadrupole Moments (Debye-Ang)
        XX    -140.6522     XY      45.2595     YY    -196.1350
        XZ      -9.6540     YZ      13.9334     ZZ    -154.2522

 Total job time:  860.82s(wall), 6616.13s(cpu)
        *  Thank you very much for using Q-Chem.  Have a nice day.  *
