 Gaussian 16, Revision A.03,
 Gaussian 16:  ES64L-G16RevA.03 25-Dec-2016

 --------------------------------------
 #P UB3LYP/6-311++G(d,p) nosym opt freq
 --------------------------------------

 -------
 Radical
 -------
 Symbolic Z-matrix:
 Charge = -1 Multiplicity = 2

 SCF Done:  E(UB3LYP) =  -610.749297564     A.U. after   21 cycles
 Optimization completed.
    -- Stationary point found.
 Normal termination of Gaussian 16 at Wed Jan 10 04:51:19 2024.

 ----------------------------------------------------------------------
 #P Geom=AllCheck Guess=TCheck SCRF=Check GenChk UB3LYP/6-311++G(d,p) F
 req
 ----------------------------------------------------------------------

 Structure from the checkpoint file:  "085-rad.chk"
 -------
 Radical
 -------
 Charge = -1 Multiplicity = 2

                          Input orientation:
 ---------------------------------------------------------------------
 Center     Atomic      Atomic             Coordinates (Angstroms)
 Number     Number       Type             X           Y           Z
 ---------------------------------------------------------------------
      1          6           0       -3.511992    0.685321   -0.198190
      2          8           0       -2.765942   -0.509432   -0.191894
      3          6           0       -1.415726   -0.419051    0.043826
      4          6           0       -0.750032    0.760392    0.267558
      5          6           0        0.671378    0.833287    0.528802
      6          8           0        1.252149    1.931027    0.776029
      7          6           0        1.366183   -0.446308    0.496264
      8          6           0        0.698741   -1.624132    0.273413
      9          6           0       -0.721304   -1.710578    0.039463
     10          8           0       -1.319122   -2.800664   -0.163068
     11          8           0        2.720908   -0.513568    0.781219
     12          6           0        3.568619    0.279564   -0.046510
     13          1           0       -4.545211    0.396904   -0.400529
     14          1           0       -3.169697    1.377391   -0.979360
     15          1           0       -3.463393    1.203155    0.769037
     16          1           0       -1.262744    1.714552    0.282708
     17          1           0        1.251583   -2.557601    0.276197
     18          1           0        3.506921   -0.055715   -1.091790
     19          1           0        3.301988    1.335644    0.020942
     20          1           0        4.586693    0.119811    0.317678
 ---------------------------------------------------------------------

 SCF Done:  E(UB3LYP) =  -610.749297564     A.U. after    2 cycles

 Alpha  occ. eigenvalues --  -19.02716 -19.00606 -18.93151 -18.93014 -10.11303
 Alpha  occ. eigenvalues --  -10.09064 -10.08827 -10.08178 -10.07944 -10.07890
 Alpha  occ. eigenvalues --  -10.02347 -10.01959  -0.94284  -0.91830  -0.85108
 Alpha  occ. eigenvalues --   -0.84967  -0.68404  -0.62526  -0.59238  -0.56350
 Alpha  occ. eigenvalues --   -0.52339  -0.46396  -0.44041  -0.38689  -0.37326
 Alpha  occ. eigenvalues --   -0.35818  -0.35477  -0.33141  -0.32385  -0.30781
 Alpha  occ. eigenvalues --   -0.28391  -0.27228  -0.26604  -0.25988  -0.24334
 Alpha  occ. eigenvalues --   -0.23434  -0.22056  -0.20968  -0.20248  -0.16379
 Alpha  occ. eigenvalues --   -0.12657  -0.09872  -0.09542  -0.09156  -0.01490
 Alpha virt. eigenvalues --    0.08187   0.09277   0.11265   0.11923   0.12231
 Alpha virt. eigenvalues --    0.12642   0.13692   0.13933   0.14391   0.15153
 Alpha virt. eigenvalues --    0.16322   0.17173   0.18169   0.18680   0.19041

  Beta  occ. eigenvalues --  -19.02644 -19.00580 -18.92483 -18.92268 -10.11307
  Beta  occ. eigenvalues --  -10.08888 -10.08820 -10.08029 -10.07828 -10.07715
  Beta  occ. eigenvalues --  -10.02342 -10.01891  -0.94113  -0.91705  -0.83914
  Beta  occ. eigenvalues --   -0.83726  -0.67831  -0.62325  -0.59127  -0.56028
  Beta  occ. eigenvalues --   -0.51563  -0.46057  -0.43771  -0.38515  -0.37171
  Beta  occ. eigenvalues --   -0.35521  -0.35277  -0.32918  -0.32291  -0.30608
  Beta  occ. eigenvalues --   -0.28215  -0.26631  -0.25453  -0.25235  -0.24077
  Beta  occ. eigenvalues --   -0.22312  -0.20955  -0.20492  -0.18654  -0.15913
  Beta  occ. eigenvalues --   -0.09746  -0.09189  -0.08840  -0.08509
  Beta virt. eigenvalues --    0.05746   0.08189   0.09293   0.11271   0.11981
  Beta virt. eigenvalues --    0.12242   0.12651   0.13726   0.14408   0.15082
  Beta virt. eigenvalues --    0.15284   0.16367   0.18208   0.18371   0.19056

 Mulliken charges and spin densities:
               1          2
     1  C   -0.286405   0.000185
     2  O   -0.152112   0.013600
     3  C   -0.225223   0.182729
     4  C    0.769789  -0.006228
     5  C   -0.680938   0.070772
     6  O   -0.427508   0.241852
     7  C   -0.315599   0.138602
     8  C    0.839018   0.047349
     9  C   -0.784222   0.034951
    10  O   -0.412231   0.274698
    11  O   -0.191952   0.001485
    12  C   -0.276952   0.008202
    13  H    0.156915  -0.000282
    14  H    0.126321   0.001379
    15  H    0.127012   0.001325
    16  H    0.175126  -0.003740
    17  H    0.178540  -0.007221
    18  H    0.091489   0.000293
    19  H    0.184980  -0.002661
    20  H    0.103952   0.002711
 Sum of Mulliken charges =  -1.00000   1.00000

 Dipole moment (field-independent basis, Debye):
    X=             -0.5555    Y=              3.8151    Z=             -2.2230  Tot=              4.4503
 Quadrupole moment (field-independent basis, Debye-Ang):
   XX=            -83.5671   YY=           -102.8270   ZZ=            -77.2764
   XY=            -15.9279   XZ=             -6.3326   YZ=             -4.6192

  Exact polarizability: 167.141  17.962 149.194   9.897   9.530  79.511
 Approx polarizability: 224.018  53.939 256.803  20.654  22.870 120.334

                      1                      2                      3
                      A                      A                      A
 Frequencies --     63.2876                85.7904               111.1783
 Red. masses --      3.8031                 2.7026                 4.9543
 Frc consts  --      0.0090                 0.0117                 0.0361
 IR Inten    --      8.0053                 4.4621                 0.3902

                      4                      5                      6
                      A                      A                      A
 Frequencies --    149.2263               186.7324               197.2617
 Red. masses --      1.3774                 2.8141                 2.3070
 Frc consts  --      0.0181                 0.0578                 0.0529
 IR Inten    --      1.4283                 7.0159                 1.3118

                      7                      8                      9
                      A                      A                      A
 Frequencies --    224.0764               269.4915               279.0782
 Red. masses --      3.6330                 1.5186                 5.8699
 Frc consts  --      0.1075                 0.0650                 0.2694
 IR Inten    --      3.3830                 1.6372                 4.4694

                     10                     11                     12
                      A                      A                      A
 Frequencies --    337.1636               344.7457               383.1437
 Red. masses --      7.2740                 5.4639                 9.3869
 Frc consts  --      0.4872                 0.3826                 0.8119
 IR Inten    --      4.6303                 7.0408                 3.2592

                     13                     14                     15
                      A                      A                      A
 Frequencies --    455.2030               467.3421               478.8327
 Red. masses --      3.6009                 6.0088                 7.2017
 Frc consts  --      0.4396                 0.7732                 0.9729
 IR Inten    --      0.0742                 0.8927                 1.5753

                     16                     17                     18
                      A                      A                      A
 Frequencies --    526.2682               657.8822               697.7037
 Red. masses --      6.3178                 5.3529                 6.6700
 Frc consts  --      1.0309                 1.3650                 1.9130
 IR Inten    --      0.0932                 4.1836                15.4738

                     19                     20                     21
                      A                      A                      A
 Frequencies --    718.2810               729.5687               746.1984
 Red. masses --      3.7623                 3.4801                 7.7145
 Frc consts  --      1.1437                 1.0914                 2.5309
 IR Inten    --      1.0867                 8.9024                 7.2500

                     22                     23                     24
                      A                      A                      A
 Frequencies --    821.2155               865.5102               868.6462
 Red. masses --      1.7827                 1.5573                 2.9256
 Frc consts  --      0.7084                 0.6873                 1.3006
 IR Inten    --     14.1906                33.4456                41.2581

                     25                     26                     27
                      A                      A                      A
 Frequencies --   1011.6432              1055.4822              1152.8384
 Red. masses --      6.4982                 4.8724                 3.4632
 Frc consts  --      3.9183                 3.1981                 2.7118
 IR Inten    --     40.0292                34.3075               174.5548

                     28                     29                     30
                      A                      A                      A
 Frequencies --   1165.5492              1166.5711              1179.2750
 Red. masses --      1.2847                 1.3125                 2.2174
 Frc consts  --      1.0283                 1.0524                 1.8169
 IR Inten    --      0.5846                 4.5767               232.5201

                     31                     32                     33
                      A                      A                      A
 Frequencies --   1198.6719              1212.8310              1226.8601
 Red. masses --      3.9882                 1.5348                 2.0198
 Frc consts  --      3.3762                 1.3302                 1.7912
 IR Inten    --     24.4238                41.8966               214.6242

                     34                     35                     36
                      A                      A                      A
 Frequencies --   1230.6666              1313.4023              1421.7517
 Red. masses --      1.9859                 2.4477                 3.1045
 Frc consts  --      1.7721                 2.4877                 3.6973
 IR Inten    --     12.4215                78.7507                10.8728

                     37                     38                     39
                      A                      A                      A
 Frequencies --   1446.2009              1466.3065              1473.9779
 Red. masses --      1.4382                 1.3751                 1.1228
 Frc consts  --      1.7722                 1.7419                 1.4372
 IR Inten    --     20.8497                 4.8344                16.7292

                     40                     41                     42
                      A                      A                      A
 Frequencies --   1481.4355              1504.8174              1511.3812
 Red. masses --      1.0469                 1.1767                 6.2887
 Frc consts  --      1.3537                 1.5700                 8.4636
 IR Inten    --      5.0752                48.4695                13.2070

                     43                     44                     45
                      A                      A                      A
 Frequencies --   1513.5880              1518.5895              1543.3495
 Red. masses --      3.2757                 1.0516                 5.6257
 Frc consts  --      4.4215                 1.4288                 7.8951
 IR Inten    --     75.5062                13.2944               619.8946

                     46                     47                     48
                      A                      A                      A
 Frequencies --   1636.9421              2970.9777              2973.2216
 Red. masses --      7.4020                 1.0464                 1.0356
 Frc consts  --     11.6860                 5.4418                 5.3938
 IR Inten    --      6.0876               158.7361                70.7084

                     49                     50                     51
                      A                      A                      A
 Frequencies --   3017.4155              3058.8742              3091.6249
 Red. masses --      1.1040                 1.0840                 1.0969
 Frc consts  --      5.9225                 5.9758                 6.1773
 IR Inten    --     65.6903                94.0815                53.0585

                     52                     53                     54
                      A                      A                      A
 Frequencies --   3103.1118              3169.1350              3180.6275
 Red. masses --      1.1049                 1.0896                 1.0884
 Frc consts  --      6.2688                 6.4475                 6.4871
 IR Inten    --     12.2597                17.4204                13.9328

 - Thermochemistry -
 -------------------
 Temperature   298.150 Kelvin.  Pressure   1.00000 Atm.
 Atom     1 has atomic number  6 and mass  12.00000

 Molecular mass:   168.04226 amu.
 Principal axes and moments of inertia in atomic units:
                           1         2         3
     Eigenvalues --  1049.486392819.458183769.25492
           X            0.98266  -0.15771  -0.09753
           Y            0.14889   0.98456  -0.09200
           Z            0.11054   0.07588   0.99097
 This molecule is an asymmetric top.
 Rotational symmetry number  1.
 Warning -- assumption of classical behavior for rotation
           may cause significant error
 Rotational temperatures (Kelvin)      0.08253     0.03072     0.02298
 Rotational constants (GHZ):           1.71964     0.64010     0.47881
 Zero-point vibrational energy     386758.4 (Joules/Mol)
                                   92.43746 (Kcal/Mol)
 Warning -- explicit consideration of  16 degrees of freedom as
           vibrations may cause significant error
 Vibrational temperatures:     91.06   123.43   159.96   214.70   268.67
          (Kelvin)            283.82   322.40   387.74   401.53   485.10
                              496.01   551.26   654.94   672.40   688.93
                              757.18   946.55  1003.84  1033.45  1049.69
                             1073.61  1181.55  1245.28  1249.79  1455.53
                             1518.60  1658.68  1676.97  1678.44  1696.71
                             1724.62  1744.99  1765.18  1770.65  1889.69
                             2045.58  2080.76  2109.69  2120.73  2131.46
                             2165.10  2174.54  2177.72  2184.91  2220.54
                             2355.19  4274.57  4277.80  4341.39  4401.04
                             4448.16  4464.69  4559.68  4576.21

 Zero-point correction=                           0.147308 (Hartree/Particle)
 Thermal correction to Energy=                    0.158681
 Thermal correction to Enthalpy=                  0.159625
 Thermal correction to Gibbs Free Energy=         0.109315
 Sum of electronic and zero-point Energies=           -610.601989
 Sum of electronic and thermal Energies=              -610.590617
 Sum of electronic and thermal Enthalpies=            -610.589673
 Sum of electronic and thermal Free Energies=         -610.639982

                     E (Thermal)             CV                S
                      KCal/Mol        Cal/Mol-Kelvin    Cal/Mol-Kelvin
 Total                   99.574             41.654            105.886
 Electronic               0.000              0.000              1.377
 Translational            0.889              2.981             41.265
 Rotational               0.889              2.981             30.790
 Vibrational             97.796             35.692             32.454
 Vibration     1          0.597              1.972              4.352
 Vibration     2          0.601              1.959              3.754
 Vibration     3          0.607              1.940              3.248
 Vibration     4          0.618              1.904              2.682
 Vibration     5          0.632              1.858              2.260
 Vibration     6          0.637              1.844              2.158
 Vibration     7          0.649              1.804              1.926
 Vibration     8          0.674              1.729              1.599
 Vibration     9          0.679              1.712              1.539
 Vibration    10          0.718              1.601              1.226
 Vibration    11          0.723              1.586              1.190
 Vibration    12          0.752              1.506              1.027
 Vibration    13          0.814              1.349              0.780
 Vibration    14          0.825              1.323              0.745
 Vibration    15          0.835              1.297              0.713
 Vibration    16          0.881              1.192              0.596

                           ! Non-Optimized Parameters !
 Normal termination of Gaussian 16 at Wed Jan 10 05:06:41 2024.
