 Q-Chem 5.4, Q-Chem, Inc., Pleasanton, CA (2021)
 Q-Chem 5.4.0 for Intel X86 EM64T Linux

User input:
--------------------------------------------------------------
$molecule
-1 2
C                 -3.5119920000      0.6853210000     -0.1981900000
O                 -2.7659420000     -0.5094320000     -0.1918940000
C                 -1.4157260000     -0.4190510000      0.0438260000
C                 -0.7500320000      0.7603920000      0.2675580000
C                  0.6713780000      0.8332870000      0.5288020000
O                  1.2521490000      1.9310270000      0.7760290000
C                  1.3661830000     -0.4463080000      0.4962640000
C                  0.6987410000     -1.6241320000      0.2734130000
C                 -0.7213040000     -1.7105780000      0.0394630000
O                 -1.3191220000     -2.8006640000     -0.1630680000
O                  2.7209080000     -0.5135680000      0.7812190000
C                  3.5686190000      0.2795640000     -0.0465100000
H                 -4.5452110000      0.3969040000     -0.4005290000
H                 -3.1696970000      1.3773910000     -0.9793600000
H                 -3.4633930000      1.2031550000      0.7690370000
H                 -1.2627440000      1.7145520000      0.2827080000
H                  1.2515830000     -2.5576010000      0.2761970000
H                  3.5069210000     -0.0557150000     -1.0917900000
H                  3.3019880000      1.3356440000      0.0209420000
H                  4.5866930000      0.1198110000      0.3176780000
$end

$rem
BASIS  =  6-311++G(d,p)
GUI  =  2
JOB_TYPE  =  SP
METHOD  =  B3LYP
SCF_CONVERGENCE  = 8
SOLVENT_METHOD = sm12
$end

$smx
solvent dimethylformamide
charges CM5
$end

--------------------------------------------------------------

             Standard Nuclear Orientation (Angstroms)
    I     Atom           X                Y                Z
 ----------------------------------------------------------------
    1      C      -3.5119920000     0.6853210000    -0.1981900000
    2      O      -2.7659420000    -0.5094320000    -0.1918940000
    3      C      -1.4157260000    -0.4190510000     0.0438260000
    4      C      -0.7500320000     0.7603920000     0.2675580000
    5      C       0.6713780000     0.8332870000     0.5288020000
    6      O       1.2521490000     1.9310270000     0.7760290000
    7      C       1.3661830000    -0.4463080000     0.4962640000
    8      C       0.6987410000    -1.6241320000     0.2734130000
    9      C      -0.7213040000    -1.7105780000     0.0394630000
   10      O      -1.3191220000    -2.8006640000    -0.1630680000
   11      O       2.7209080000    -0.5135680000     0.7812190000
   12      C       3.5686190000     0.2795640000    -0.0465100000
   13      H      -4.5452110000     0.3969040000    -0.4005290000
   14      H      -3.1696970000     1.3773910000    -0.9793600000
   15      H      -3.4633930000     1.2031550000     0.7690370000
   16      H      -1.2627440000     1.7145520000     0.2827080000
   17      H       1.2515830000    -2.5576010000     0.2761970000
   18      H       3.5069210000    -0.0557150000    -1.0917900000
   19      H       3.3019880000     1.3356440000     0.0209420000
   20      H       4.5866930000     0.1198110000     0.3176780000
 ----------------------------------------------------------------

   18    -610.7463796013      4.97e-09  Convergence criterion met
 Total energy in the final basis set =     -610.8309436302

                    Orbital Energies (a.u.)
 --------------------------------------------------------------

 Alpha MOs
 -- Occupied --
-19.1517 -19.1378 -19.0720 -19.0719 -10.2274 -10.2214 -10.2202 -10.2184
-10.2182 -10.2098 -10.1604 -10.1599  -1.0672  -1.0505  -0.9920  -0.9901
 -0.8217  -0.7539  -0.7150  -0.6949  -0.6538  -0.5991  -0.5699  -0.5136
 -0.5040  -0.4933  -0.4684  -0.4569  -0.4435  -0.4400  -0.4119  -0.4082
 -0.4014  -0.4003  -0.3762  -0.3709  -0.3502  -0.3350  -0.3296  -0.2967
 -0.2642  -0.2374  -0.2362  -0.2289  -0.1552

 Beta MOs
 -- Occupied --
-19.1508 -19.1375 -19.0653 -19.0646 -10.2257 -10.2199 -10.2189 -10.2182
-10.2164 -10.2098 -10.1605 -10.1594  -1.0652  -1.0489  -0.9798  -0.9783
 -0.8159  -0.7517  -0.7129  -0.6916  -0.6471  -0.5958  -0.5670  -0.5120
 -0.5021  -0.4903  -0.4648  -0.4539  -0.4423  -0.4382  -0.4103  -0.4035
 -0.3942  -0.3871  -0.3724  -0.3511  -0.3431  -0.3333  -0.3179  -0.2908
 -0.2374  -0.2303  -0.2295  -0.2225

          Ground-State Mulliken Net Atomic Charges

     Atom                 Charge (a.u.)    Spin (a.u.)
  --------------------------------------------------------
      1 C                     0.142897       0.000212
      2 O                    -0.146378       0.018712
      3 C                     0.007848       0.178124
      4 C                     1.038312      -0.015633
      5 C                    -1.054578       0.068000
      6 O                    -0.381265       0.243703
      7 C                    -0.311523       0.156983
      8 C                     0.245483       0.032480
      9 C                    -1.488550       0.044607
     10 O                    -0.423130       0.267623
     11 O                    -0.136197       0.003793
     12 C                    -0.028722       0.007838
     13 H                     0.327462      -0.000161
     14 H                     0.197413       0.001880
     15 H                     0.196875       0.001761
     16 H                     0.190103      -0.002889
     17 H                     0.135600      -0.006669
     18 H                     0.128699       0.000382
     19 H                     0.121424      -0.001953
     20 H                     0.238226       0.001207
  --------------------------------------------------------
  Sum of atomic charges =    -1.000000

                    Cartesian Multipole Moments
 -----------------------------------------------------------------
    Charge (ESU x 10^10)
                -4.8032
    Dipole Moment (Debye)
         X      -0.8398      Y       4.4298      Z      -2.3630
       Tot       5.0904
    Quadrupole Moments (Debye-Ang)
        XX     -78.3182     XY     -16.8743     YY    -103.8697
        XZ      -6.2629     YZ      -4.6584     ZZ     -77.2908

 Total job time:  269.19s(wall), 2091.75s(cpu)
        *  Thank you very much for using Q-Chem.  Have a nice day.  *
