 Q-Chem 5.4, Q-Chem, Inc., Pleasanton, CA (2021)
 Q-Chem 5.4.0 for Intel X86 EM64T Linux

User input:
--------------------------------------------------------------
$molecule
0 1
C                  2.9641980000     -0.5844280000      0.4891650000
O                  1.7803700000      0.2326730000      0.5833350000
C                  0.5689100000     -0.2804640000      0.3042630000
C                 -0.3489360000      0.5174830000     -0.3242660000
O                  0.0427320000      1.7307000000     -0.7526280000
C                 -0.8528790000      2.8582860000     -0.6864950000
C                 -1.6994570000     -0.0089150000     -0.6593310000
O                 -2.4864240000      0.6268260000     -1.3446560000
C                 -2.0624720000     -1.3660190000     -0.1735580000
C                 -1.1813510000     -2.1280110000      0.4761270000
C                  0.1798090000     -1.6275110000      0.8016980000
O                  0.9312630000     -2.3009400000      1.4908800000
H                  2.9223380000     -1.2230520000     -0.3965350000
H                  3.7853870000      0.1237170000      0.3875600000
H                  3.0904610000     -1.1964310000      1.3796050000
H                 -0.2045710000      3.7326660000     -0.7223560000
H                 -1.4081840000      2.8548970000      0.2545930000
H                 -1.5467820000      2.8579460000     -1.5242880000
H                 -3.0684630000     -1.6914860000     -0.4122230000
H                 -1.4059510000     -3.1279390000      0.8291100000
$end
$rem
MAX_SCF_CYCLES=200
BASIS  =  6-311++G(d,p)
GUI  =  2
JOB_TYPE  =  SP
METHOD  =  B3LYP
SOLVENT_METHOD = COSMO
$end
$solvent
dielectric 37.219
opticaldielectric 1.43
$end

--------------------------------------------------------------

             Standard Nuclear Orientation (Angstroms)
    I     Atom           X                Y                Z
 ----------------------------------------------------------------
    1      C       2.5919213978     1.7269123679    -0.4812588211
    2      O       1.3178649956     1.5144514337     0.1587500867
    3      C       0.6828451915     0.3341171342     0.0474537105
    4      C      -0.6828889407     0.3340598309    -0.0473074383
    5      O      -1.3179869484     1.5143620878    -0.1583498512
    6      C      -2.5926012770     1.7264652905     0.4806441778
    7      C      -1.4279643680    -0.9468702110    -0.1790314497
    8      O      -2.6276892166    -0.9730571860    -0.4095277919
    9      C      -0.6631392147    -2.2165662776    -0.0676719058
   10      C       0.6638762421    -2.2164985328     0.0669631449
   11      C       1.4282156826    -0.9466797413     0.1792072008
   12      O       2.6278242059    -0.9724155010     0.4103751543
   13      H       2.5987399275     1.2875744035    -1.4817552097
   14      H       2.6886708863     2.8088985046    -0.5592961662
   15      H       3.4030769562     1.3087460102     0.1108028042
   16      H      -2.6897131493     2.8084346712     0.5583693488
   17      H      -2.6001174802     1.2872509957     1.4811720694
   18      H      -3.4031651208     1.3080014493    -0.1120385945
   19      H      -1.2541929326    -3.1226788411    -0.1349264007
   20      H       1.2550083397    -3.1225930342     0.1336996512
 ----------------------------------------------------------------

    9    -610.6665123338      1.79e-06  Convergence criterion met
 Total energy in the final basis set =     -610.6665123338
    5    -610.6820002515      3.97e-06  Convergence criterion met
 Total energy in the final basis set =     -610.6820002515

                    Orbital Energies (a.u.)
 --------------------------------------------------------------

 Alpha MOs
 -- Occupied --
-19.1705 -19.1704 -19.1448 -19.1448 -10.2928 -10.2928 -10.2629 -10.2623
-10.2211 -10.2211 -10.2117 -10.2109  -1.1028  -1.0868  -1.0706  -1.0632
 -0.8614  -0.7966  -0.7353  -0.7045  -0.6972  -0.6274  -0.6062  -0.5514
 -0.5308  -0.5294  -0.4954  -0.4938  -0.4763  -0.4684  -0.4610  -0.4511
 -0.4378  -0.4235  -0.4209  -0.4166  -0.3791  -0.3705  -0.3422  -0.3353
 -0.3131  -0.2852  -0.2851  -0.2442

          Ground-State Mulliken Net Atomic Charges

     Atom                 Charge (a.u.)
  ----------------------------------------
      1 C                    -0.315998
      2 O                    -0.207825
      3 C                     0.100389
      4 C                     0.099757
      5 O                    -0.207309
      6 C                    -0.315836
      7 C                    -0.174658
      8 O                    -0.302374
      9 C                     0.083498
     10 C                     0.083454
     11 C                    -0.174851
     12 O                    -0.302485
     13 H                     0.182687
     14 H                     0.171041
     15 H                     0.197853
     16 H                     0.171107
     17 H                     0.182625
     18 H                     0.197828
     19 H                     0.265527
     20 H                     0.265571
  ----------------------------------------
  Sum of atomic charges =     0.000000

                    Cartesian Multipole Moments
 -----------------------------------------------------------------
    Charge (ESU x 10^10)
                -0.0000
    Dipole Moment (Debye)
         X      -0.0017      Y      -0.5668      Z      -0.0048
       Tot       0.5669
    Quadrupole Moments (Debye-Ang)
        XX     -76.6919     XY      -0.0047     YY     -61.4281
        XZ      -8.4496     YZ      -0.0011     ZZ     -69.0478

 Total job time:  44.35s(wall), 147.75s(cpu)
        *  Thank you very much for using Q-Chem.  Have a nice day.  *
