 Q-Chem 5.4, Q-Chem, Inc., Pleasanton, CA (2021)
 Q-Chem 5.4.0 for Intel X86 EM64T Linux

User input:
--------------------------------------------------------------
$molecule
0 1
C                  1.4497420000      3.3956140000     -0.4136740000
C                  0.6438400000      3.1125740000     -1.5115150000
C                 -0.0529160000      1.9036260000     -1.5797000000
C                  1.5599880000      2.4716280000      0.6283700000
C                  0.8576760000      1.2553440000      0.5596010000
C                  0.0545920000      0.9764180000     -0.5487350000
C                  2.4346710000      2.7977830000      1.7940810000
C                  2.4739640000      1.7891680000      2.8943090000
C                  1.8142770000      0.6262890000      2.8291550000
C                  0.9679810000      0.2600220000      1.6598760000
O                  3.0937070000      3.8186880000      1.8403180000
O                  0.3996600000     -0.8169900000      1.6356100000
S                  3.3726530000      2.1677560000      4.4477410000
O                  2.8649050000      3.4463740000      4.9423860000
O                  3.2642020000      0.9487580000      5.2575340000
C                  5.0994290000      2.3539400000      3.9781690000
C                  5.5904640000      3.6210850000      3.6717630000
C                  5.9162070000      1.2237670000      3.9758640000
C                  6.9376410000      3.7519110000      3.3449850000
C                  7.7674650000      2.6307550000      3.3259470000
C                  7.2597190000      1.3701260000      3.6400890000
H                  1.9984120000      4.3266210000     -0.3439350000
H                  0.5569770000      3.8334970000     -2.3162370000
H                 -0.6789400000      1.6870200000     -2.4375840000
H                 -0.4755570000      0.0325150000     -0.5821050000
H                  1.8647740000     -0.0943990000      3.6384580000
H                  4.9271160000      4.4747960000      3.6895400000
H                  5.5088050000      0.2593370000      4.2517380000
H                  7.3387460000      4.7303840000      3.1083060000
H                  8.8152140000      2.7404220000      3.0697740000
H                  7.9102270000      0.5034210000      3.6367610000
$end

$rem
BASIS  =  6-311++G(d,p)
GUI  =  2
JOB_TYPE  =  SP
METHOD  =  B3LYP
SCF_CONVERGENCE  = 8
SOLVENT_METHOD = sm12
$end

$smx
solvent dimethylformamide
charges CM5
$end

--------------------------------------------------------------

             Standard Nuclear Orientation (Angstroms)
    I     Atom           X                Y                Z
 ----------------------------------------------------------------
    1      C       1.4497420000     3.3956140000    -0.4136740000
    2      C       0.6438400000     3.1125740000    -1.5115150000
    3      C      -0.0529160000     1.9036260000    -1.5797000000
    4      C       1.5599880000     2.4716280000     0.6283700000
    5      C       0.8576760000     1.2553440000     0.5596010000
    6      C       0.0545920000     0.9764180000    -0.5487350000
    7      C       2.4346710000     2.7977830000     1.7940810000
    8      C       2.4739640000     1.7891680000     2.8943090000
    9      C       1.8142770000     0.6262890000     2.8291550000
   10      C       0.9679810000     0.2600220000     1.6598760000
   11      O       3.0937070000     3.8186880000     1.8403180000
   12      O       0.3996600000    -0.8169900000     1.6356100000
   13      S       3.3726530000     2.1677560000     4.4477410000
   14      O       2.8649050000     3.4463740000     4.9423860000
   15      O       3.2642020000     0.9487580000     5.2575340000
   16      C       5.0994290000     2.3539400000     3.9781690000
   17      C       5.5904640000     3.6210850000     3.6717630000
   18      C       5.9162070000     1.2237670000     3.9758640000
   19      C       6.9376410000     3.7519110000     3.3449850000
   20      C       7.7674650000     2.6307550000     3.3259470000
   21      C       7.2597190000     1.3701260000     3.6400890000
   22      H       1.9984120000     4.3266210000    -0.3439350000
   23      H       0.5569770000     3.8334970000    -2.3162370000
   24      H      -0.6789400000     1.6870200000    -2.4375840000
   25      H      -0.4755570000     0.0325150000    -0.5821050000
   26      H       1.8647740000    -0.0943990000     3.6384580000
   27      H       4.9271160000     4.4747960000     3.6895400000
   28      H       5.5088050000     0.2593370000     4.2517380000
   29      H       7.3387460000     4.7303840000     3.1083060000
   30      H       8.8152140000     2.7404220000     3.0697740000
   31      H       7.9102270000     0.5034210000     3.6367610000
 ----------------------------------------------------------------

   16   -1314.9948390476      1.93e-09  Convergence criterion met
 Total energy in the final basis set =    -1315.0257557960

                    Orbital Energies (a.u.)
 --------------------------------------------------------------

 Alpha MOs
 -- Occupied --
-89.0684 -19.1464 -19.1463 -19.1324 -19.1321 -10.3014 -10.2957 -10.2500
-10.2346 -10.2244 -10.2169 -10.2153 -10.2040 -10.2028 -10.2028 -10.2017
-10.2016 -10.2010 -10.1964 -10.1944 -10.1937  -8.1323  -6.0947  -6.0942
 -6.0934  -1.1286  -1.0820  -1.0785  -1.0253  -0.8990  -0.8860  -0.8624
 -0.7961  -0.7846  -0.7845  -0.7724  -0.7269  -0.6921  -0.6610  -0.6476
 -0.6313  -0.6096  -0.5944  -0.5625  -0.5531  -0.5371  -0.5250  -0.5015
 -0.4950  -0.4877  -0.4739  -0.4692  -0.4669  -0.4618  -0.4595  -0.4565
 -0.4552  -0.4469  -0.4410  -0.4316  -0.3962  -0.3895  -0.3886  -0.3855
 -0.3746  -0.3692  -0.3566  -0.3466  -0.3346  -0.3232  -0.3218  -0.3005
 -0.2902  -0.2856  -0.2830  -0.2803  -0.2760

          Ground-State Mulliken Net Atomic Charges

     Atom                 Charge (a.u.)
  ----------------------------------------
      1 C                     0.456984
      2 C                     0.564683
      3 C                     0.653180
      4 C                     0.157128
      5 C                    -0.122598
      6 C                     0.402068
      7 C                    -0.987771
      8 C                    -0.838169
      9 C                    -0.235130
     10 C                    -0.831595
     11 O                    -0.203067
     12 O                    -0.268359
     13 S                    -0.370104
     14 O                    -0.196370
     15 O                    -0.155814
     16 C                    -0.375661
     17 C                    -0.736194
     18 C                     0.133512
     19 C                    -0.063133
     20 C                     0.302498
     21 C                    -0.103970
     22 H                     0.207370
     23 H                     0.333906
     24 H                     0.336697
     25 H                     0.198254
     26 H                     0.311697
     27 H                     0.225839
     28 H                     0.284349
     29 H                     0.302702
     30 H                     0.313667
     31 H                     0.303400
  ----------------------------------------
  Sum of atomic charges =     0.000000

                    Cartesian Multipole Moments
 -----------------------------------------------------------------
    Charge (ESU x 10^10)
                 0.0000
    Dipole Moment (Debye)
         X       2.3506      Y       0.7537      Z      -7.1654
       Tot       7.5786
    Quadrupole Moments (Debye-Ang)
        XX     -88.7870     XY       2.7483     YY    -130.6631
        XZ       0.0158     YZ     -19.1636     ZZ    -160.0899

 Total job time:  894.09s(wall), 6964.52s(cpu)
        *  Thank you very much for using Q-Chem.  Have a nice day.  *
