 Gaussian 16, Revision A.03,
 Gaussian 16:  ES64L-G16RevA.03 25-Dec-2016

 --------------------------------------
 #P UB3LYP/6-311++G(d,p) nosym opt freq
 --------------------------------------

 -------
 Radical
 -------
 Symbolic Z-matrix:
 Charge = -1 Multiplicity = 2

 SCF Done:  E(UB3LYP) =  -627.605766623     A.U. after   21 cycles
 SCF Done:  E(UB3LYP) =  -627.613442034     A.U. after   19 cycles
 SCF Done:  E(UB3LYP) =  -627.614041274     A.U. after   17 cycles
 SCF Done:  E(UB3LYP) =  -627.614097313     A.U. after   16 cycles
 SCF Done:  E(UB3LYP) =  -627.614103069     A.U. after   14 cycles
 SCF Done:  E(UB3LYP) =  -627.614105442     A.U. after   13 cycles
 Optimization completed.
    -- Stationary point found.
 Normal termination of Gaussian 16 at Tue Dec 26 20:22:43 2023.

 ----------------------------------------------------------------------
 #P Geom=AllCheck Guess=TCheck SCRF=Check GenChk UB3LYP/6-311++G(d,p) F
 req
 ----------------------------------------------------------------------

 Structure from the checkpoint file:  "227-rad.chk"
 -------
 Radical
 -------
 Charge = -1 Multiplicity = 2

                          Input orientation:
 ---------------------------------------------------------------------
 Center     Atomic      Atomic             Coordinates (Angstroms)
 Number     Number       Type             X           Y           Z
 ---------------------------------------------------------------------
      1          6           0        5.673068   -5.103047    1.282258
      2          6           0        6.681635   -5.019595    0.348289
      3          6           0        6.591437   -4.063049   -0.698563
      4          6           0        4.545471   -4.257065    1.225045
      5          6           0        4.455318   -3.297782    0.175056
      6          6           0        5.485413   -3.218803   -0.771526
      7          6           0        3.490484   -4.378280    2.241579
      8          6           0        2.382552   -3.468410    2.092066
      9          6           0        2.291897   -2.542272    1.081463
     10          6           0        3.299184   -2.384504    0.062713
     11          8           0        3.557608   -5.222184    3.174441
     12          8           0        3.210374   -1.536441   -0.858822
     13          6           0        7.635326   -3.974320   -1.668140
     14          7           0        8.492541   -3.916847   -2.446310
     15          1           0        5.715103   -5.822943    2.091508
     16          1           0        7.544642   -5.673602    0.399720
     17          1           0        5.394167   -2.481506   -1.560356
     18          1           0        1.596713   -3.549687    2.837917
     19          1           0        1.434796   -1.878554    1.012952
 ---------------------------------------------------------------------

 SCF Done:  E(UB3LYP) =  -627.614105442     A.U. after    1 cycles

 Alpha  occ. eigenvalues --  -18.95907 -18.95713 -14.20787 -10.10822 -10.10812
 Alpha  occ. eigenvalues --  -10.10451 -10.10387 -10.08189 -10.07935 -10.06947
 Alpha  occ. eigenvalues --  -10.06874 -10.06799 -10.05335 -10.05187  -0.88395
 Alpha  occ. eigenvalues --   -0.87962  -0.80917  -0.76071  -0.69958  -0.65844
 Alpha  occ. eigenvalues --   -0.64450  -0.57017  -0.53621  -0.51382  -0.46058
 Alpha  occ. eigenvalues --   -0.43567  -0.40147  -0.36898  -0.35349  -0.32666
 Alpha  occ. eigenvalues --   -0.32136  -0.31188  -0.30788  -0.28698  -0.28068
 Alpha  occ. eigenvalues --   -0.27978  -0.26804  -0.25848  -0.24806  -0.24287
 Alpha  occ. eigenvalues --   -0.22935  -0.22896  -0.16167  -0.15567  -0.14715
 Alpha  occ. eigenvalues --   -0.12456  -0.11909  -0.03879
 Alpha virt. eigenvalues --    0.05441   0.07783   0.08786   0.09606   0.11024
 Alpha virt. eigenvalues --    0.12088   0.12247   0.13072   0.14417   0.14675
 Alpha virt. eigenvalues --    0.15078   0.15373   0.16192   0.16538   0.17191

  Beta  occ. eigenvalues --  -18.95257 -18.94993 -14.20749 -10.10832 -10.10728
  Beta  occ. eigenvalues --  -10.10349 -10.10333 -10.08122 -10.07971 -10.06959
  Beta  occ. eigenvalues --  -10.06770 -10.06718 -10.05221 -10.05041  -0.87283
  Beta  occ. eigenvalues --   -0.86723  -0.80858  -0.75890  -0.69437  -0.65671
  Beta  occ. eigenvalues --   -0.64222  -0.56230  -0.53327  -0.51106  -0.45907
  Beta  occ. eigenvalues --   -0.43286  -0.39941  -0.36693  -0.35061  -0.32643
  Beta  occ. eigenvalues --   -0.31950  -0.30937  -0.29997  -0.28265  -0.27623
  Beta  occ. eigenvalues --   -0.27011  -0.26698  -0.24636  -0.24075  -0.23312
  Beta  occ. eigenvalues --   -0.22786  -0.22175  -0.14977  -0.13999  -0.13027
  Beta  occ. eigenvalues --   -0.11821  -0.11268
  Beta virt. eigenvalues --    0.02648   0.06247   0.08757   0.08786   0.09615
  Beta virt. eigenvalues --    0.11026   0.12102   0.12259   0.13089   0.14477
  Beta virt. eigenvalues --    0.14682   0.15395   0.15743   0.16564   0.16939

 Mulliken charges and spin densities:
               1          2
     1  C    0.442636   0.023973
     2  C   -0.842968   0.048101
     3  C    1.934042   0.036989
     4  C    0.212705   0.070790
     5  C   -0.042267   0.043892
     6  C    0.218176  -0.009625
     7  C   -0.761752   0.045554
     8  C    0.167065   0.099035
     9  C    0.148673   0.121408
    10  C   -0.636549   0.040276
    11  O   -0.391147   0.262800
    12  O   -0.381863   0.236055
    13  C   -1.634943  -0.014490
    14  N   -0.237401   0.019686
    15  H    0.164780  -0.001810
    16  H    0.154714  -0.003843
    17  H    0.177382  -0.000741
    18  H    0.152692  -0.008301
    19  H    0.156025  -0.009748
 Sum of Mulliken charges =  -1.00000   1.00000

 Dipole moment (field-independent basis, Debye):
    X=            -22.7960    Y=             16.8738    Z=             -0.8917  Tot=             28.3757
 Quadrupole moment (field-independent basis, Debye-Ang):
   XX=           -219.5862   YY=           -156.6444   ZZ=           -116.4272
   XY=             82.3341   XZ=             15.4030   YZ=             16.3189

  Exact polarizability: 211.012 -41.469 135.352 -64.123 -36.402 170.809
 Approx polarizability: 326.954 -69.246 236.898 -93.628 -84.316 292.490

                      1                      2                      3
                      A                      A                      A
 Frequencies --     74.1006               108.8780               129.2770
 Red. masses --      7.2759                 7.2551                11.4808
 Frc consts  --      0.0235                 0.0507                 0.1130
 IR Inten    --      0.8747                13.7765                 3.6898

                      4                      5                      6
                      A                      A                      A
 Frequencies --    154.3692               226.4321               271.6865
 Red. masses --      5.3753                 7.3892                 7.9847
 Frc consts  --      0.0755                 0.2232                 0.3473
 IR Inten    --      2.4521                 0.5565                 5.5632

                      7                      8                      9
                      A                      A                      A
 Frequencies --    329.2209               331.5213               418.3292
 Red. masses --     12.4875                 5.1349                 3.4596
 Frc consts  --      0.7974                 0.3325                 0.3567
 IR Inten    --      2.6524                 0.0310                 1.3724

                     10                     11                     12
                      A                      A                      A
 Frequencies --    422.6341               455.1461               462.3562
 Red. masses --      8.8637                 5.3680                11.2016
 Frc consts  --      0.9328                 0.6552                 1.4109
 IR Inten    --      1.0022                 0.8227                 3.7908

                     13                     14                     15
                      A                      A                      A
 Frequencies --    518.8839               572.6744               576.0178
 Red. masses --      8.8394                 7.1495                 5.4296
 Frc consts  --      1.4022                 1.3815                 1.0614
 IR Inten    --      1.8528                 0.6153                 6.4282

                     16                     17                     18
                      A                      A                      A
 Frequencies --    615.2918               622.2453               654.6126
 Red. masses --      5.3989                 2.5156                 5.7399
 Frc consts  --      1.2043                 0.5739                 1.4492
 IR Inten    --      0.3818                 0.0136                 2.5203

                     19                     20                     21
                      A                      A                      A
 Frequencies --    680.4579               723.5006               781.3594
 Red. masses --      4.2175                 6.9084                 4.2183
 Frc consts  --      1.1505                 2.1306                 1.5174
 IR Inten    --      7.5838                 1.1954                 2.5515

                     22                     23                     24
                      A                      A                      A
 Frequencies --    786.7274               825.9647               842.4703
 Red. masses --      7.1624                 1.6428                 1.8465
 Frc consts  --      2.6119                 0.6603                 0.7721
 IR Inten    --     33.3303                69.8162                 2.3773

                     25                     26                     27
                      A                      A                      A
 Frequencies --    897.3390               947.7314               952.7830
 Red. masses --      5.0473                 1.2963                 1.3747
 Frc consts  --      2.3945                 0.6860                 0.7353
 IR Inten    --      6.1710                 1.0845                 7.0021

                     28                     29                     30
                      A                      A                      A
 Frequencies --    988.2460              1058.7683              1073.5168
 Red. masses --      1.3051                 2.3369                 3.0803
 Frc consts  --      0.7510                 1.5435                 2.0915
 IR Inten    --      1.1612                 0.4683                21.1424

                     31                     32                     33
                      A                      A                      A
 Frequencies --   1137.3228              1160.4455              1204.8998
 Red. masses --      1.4808                 1.4916                 2.3432
 Frc consts  --      1.1285                 1.1835                 2.0043
 IR Inten    --      5.3397                26.1835                 1.8953

                     34                     35                     36
                      A                      A                      A
 Frequencies --   1217.4082              1245.5499              1302.5130
 Red. masses --      5.6867                 1.8438                 1.8407
 Frc consts  --      4.9657                 1.6853                 1.8399
 IR Inten    --    154.7074                16.3965                 5.5615

                     37                     38                     39
                      A                      A                      A
 Frequencies --   1350.6506              1401.3026              1434.2253
 Red. masses --      7.4251                 2.4800                 6.1409
 Frc consts  --      7.9806                 2.8692                 7.4425
 IR Inten    --     40.5503                 2.4299               109.3589

                     40                     41                     42
                      A                      A                      A
 Frequencies --   1476.0537              1506.9208              1520.1716
 Red. masses --      3.0475                 8.1042                 6.2538
 Frc consts  --      3.9120                10.8428                 8.5149
 IR Inten    --     71.5047                34.5919               180.2236

                     43                     44                     45
                      A                      A                      A
 Frequencies --   1545.1768              1607.1278              1635.9385
 Red. masses --      5.2536                 7.0511                 7.0563
 Frc consts  --      7.3903                10.7302                11.1265
 IR Inten    --    324.0487               120.2603                30.1272

                     46                     47                     48
                      A                      A                      A
 Frequencies --   2295.2332              3139.1898              3160.2902
 Red. masses --     12.6790                 1.0853                 1.0939
 Frc consts  --     39.3541                 6.3016                 6.4369
 IR Inten    --    316.8250                18.5789                41.1979

                     49                     50                     51
                      A                      A                      A
 Frequencies --   3169.2126              3188.2016              3190.7492
 Red. masses --      1.0873                 1.0936                 1.0910
 Frc consts  --      6.4343                 6.5496                 6.5442
 IR Inten    --      4.4752                10.2460                 4.6388

 - Thermochemistry -
 -------------------
 Temperature   298.150 Kelvin.  Pressure   1.00000 Atm.
 Atom     1 has atomic number  6 and mass  12.00000

 Molecular mass:   183.03203 amu.
 Principal axes and moments of inertia in atomic units:
                           1         2         3
     Eigenvalues --  1432.158253409.870284842.02845
           X            0.80982  -0.34615   0.47368
           Y           -0.07634   0.73835   0.67008
           Z           -0.58169  -0.57880   0.57151
 This molecule is an asymmetric top.
 Rotational symmetry number  1.
 Warning -- assumption of classical behavior for rotation
           may cause significant error
 Rotational temperatures (Kelvin)      0.06048     0.02540     0.01789
 Rotational constants (GHZ):           1.26015     0.52927     0.37272
 Zero-point vibrational energy     337293.8 (Joules/Mol)
                                   80.61516 (Kcal/Mol)
 Warning -- explicit consideration of  16 degrees of freedom as
           vibrations may cause significant error
 Vibrational temperatures:    106.61   156.65   186.00   222.10   325.79
          (Kelvin)            390.90   473.68   476.99   601.88   608.08
                              654.85   665.23   746.56   823.95   828.76
                              885.27   895.27   941.84   979.03  1040.96
                             1124.20  1131.93  1188.38  1212.13  1291.07
                             1363.57  1370.84  1421.87  1523.33  1544.55
                             1636.35  1669.62  1733.58  1751.58  1792.07
                             1874.03  1943.29  2016.16  2063.53  2123.71
                             2168.12  2187.19  2223.16  2312.30  2353.75
                             3302.33  4516.59  4546.95  4559.79  4587.11
                             4590.78

 Zero-point correction=                           0.128468 (Hartree/Particle)
 Thermal correction to Energy=                    0.138863
 Thermal correction to Enthalpy=                  0.139808
 Thermal correction to Gibbs Free Energy=         0.091413
 Sum of electronic and zero-point Energies=           -627.485637
 Sum of electronic and thermal Energies=              -627.475242
 Sum of electronic and thermal Enthalpies=            -627.474298
 Sum of electronic and thermal Free Energies=         -627.522693

                     E (Thermal)             CV                S
                      KCal/Mol        Cal/Mol-Kelvin    Cal/Mol-Kelvin
 Total                   87.138             40.766            101.856
 Electronic               0.000              0.000              1.377
 Translational            0.889              2.981             41.520
 Rotational               0.889              2.981             31.537
 Vibrational             85.361             34.804             27.422
 Vibration     1          0.599              1.966              4.041
 Vibration     2          0.606              1.942              3.289
 Vibration     3          0.612              1.924              2.957
 Vibration     4          0.620              1.898              2.618
 Vibration     5          0.650              1.801              1.907
 Vibration     6          0.675              1.725              1.585
 Vibration     7          0.712              1.617              1.264
 Vibration     8          0.714              1.613              1.253
 Vibration     9          0.781              1.430              0.898
 Vibration    10          0.785              1.421              0.883
 Vibration    11          0.813              1.350              0.780
 Vibration    12          0.820              1.334              0.759
 Vibration    13          0.874              1.208              0.613
 Vibration    14          0.929              1.090              0.499
 Vibration    15          0.932              1.083              0.493
 Vibration    16          0.975              1.000              0.424

 Optimization completed.
    -- Stationary point found.
 Normal termination of Gaussian 16 at Tue Dec 26 20:44:53 2023.
