 Q-Chem 5.4, Q-Chem, Inc., Pleasanton, CA (2021)
 Q-Chem 5.4.0 for Intel X86 EM64T Linux

User input:
--------------------------------------------------------------
$molecule
-2 1
C                 -1.4231940000      2.3322840000     -3.9366750000
C                 -1.3981920000      0.9588470000     -4.0667020000
C                 -1.1222520000      0.1501060000     -2.9338650000
C                 -1.1801060000      2.9650580000     -2.6929870000
C                 -0.9002750000      2.1514740000     -1.5537360000
C                 -0.8812310000      0.7440550000     -1.7119780000
C                 -1.2286190000      4.4101450000     -2.6050920000
C                 -0.6296920000      2.7278930000     -0.2526330000
C                 -0.9850450000      5.0044190000     -1.3024290000
C                 -0.6485720000      4.1765920000     -0.1515850000
C                 -1.0731310000      6.4411840000     -1.1372530000
C                 -0.7773350000      6.9960110000      0.1017990000
C                 -0.4152910000      6.1995690000      1.2029740000
C                 -0.3321520000      4.8157190000      1.1096730000
O                 -1.4765950000      5.0936060000     -3.6693480000
O                 -0.3930560000      1.9433130000      0.7422010000
H                 -1.6313180000      2.9786010000     -4.7820620000
H                 -1.5901110000      0.4967670000     -5.0324910000
H                 -1.0999630000     -0.9331160000     -3.0299450000
H                 -0.6667810000      0.1550770000     -0.8271970000
H                 -0.1770910000      6.6942030000      2.1375480000
H                 -0.8441350000      8.0684280000      0.2443100000
N                 -1.5069260000      7.2298490000     -2.2035340000
N                  0.1031780000      4.0381820000      2.1832990000
H                 -1.5345210000      6.6761840000     -3.0720460000
H                 -0.0402960000      3.0374990000      1.9841750000
C                  0.0502980000      4.4758160000      3.5636670000
C                  0.8634140000      3.4972530000      4.4208550000
C                 -1.3887190000      4.6211120000      4.1039850000
C                 -1.2452580000      8.6514040000     -2.3071480000
C                  0.2477820000      8.9841560000     -2.5165400000
C                 -2.1015760000      9.2271430000     -3.4423660000
H                  0.5367110000      5.4575440000      3.6414400000
H                  0.8775980000      3.8011190000      5.4730780000
H                  1.8941590000      3.4395480000      4.0595850000
H                  0.4324100000      2.4912420000      4.3668180000
H                 -1.9690170000      5.2868570000      3.4598430000
H                 -1.3979120000      5.0253430000      5.1237310000
H                 -1.8843180000      3.6442320000      4.1160240000
H                 -1.5685990000      9.1384230000     -1.3772720000
H                  0.8505480000      8.5320850000     -1.7245880000
H                  0.4238680000     10.0669130000     -2.5153760000
H                  0.5901210000      8.5803190000     -3.4755820000
H                 -1.8337220000      8.7624000000     -4.3978770000
H                 -1.9604770000     10.3086690000     -3.5430390000
H                 -3.1613680000      9.0283460000     -3.2589970000
$end

$rem
BASIS  =  6-311++G(d,p)
GUI  =  2
JOB_TYPE  =  SP
METHOD  =  B3LYP
SCF_CONVERGENCE  = 8
SOLVENT_METHOD = sm12
$end

$smx
solvent dimethylformamide
charges CM5
$end

--------------------------------------------------------------

             Standard Nuclear Orientation (Angstroms)
    I     Atom           X                Y                Z
 ----------------------------------------------------------------
    1      C      -1.4231940000     2.3322840000    -3.9366750000
    2      C      -1.3981920000     0.9588470000    -4.0667020000
    3      C      -1.1222520000     0.1501060000    -2.9338650000
    4      C      -1.1801060000     2.9650580000    -2.6929870000
    5      C      -0.9002750000     2.1514740000    -1.5537360000
    6      C      -0.8812310000     0.7440550000    -1.7119780000
    7      C      -1.2286190000     4.4101450000    -2.6050920000
    8      C      -0.6296920000     2.7278930000    -0.2526330000
    9      C      -0.9850450000     5.0044190000    -1.3024290000
   10      C      -0.6485720000     4.1765920000    -0.1515850000
   11      C      -1.0731310000     6.4411840000    -1.1372530000
   12      C      -0.7773350000     6.9960110000     0.1017990000
   13      C      -0.4152910000     6.1995690000     1.2029740000
   14      C      -0.3321520000     4.8157190000     1.1096730000
   15      O      -1.4765950000     5.0936060000    -3.6693480000
   16      O      -0.3930560000     1.9433130000     0.7422010000
   17      H      -1.6313180000     2.9786010000    -4.7820620000
   18      H      -1.5901110000     0.4967670000    -5.0324910000
   19      H      -1.0999630000    -0.9331160000    -3.0299450000
   20      H      -0.6667810000     0.1550770000    -0.8271970000
   21      H      -0.1770910000     6.6942030000     2.1375480000
   22      H      -0.8441350000     8.0684280000     0.2443100000
   23      N      -1.5069260000     7.2298490000    -2.2035340000
   24      N       0.1031780000     4.0381820000     2.1832990000
   25      H      -1.5345210000     6.6761840000    -3.0720460000
   26      H      -0.0402960000     3.0374990000     1.9841750000
   27      C       0.0502980000     4.4758160000     3.5636670000
   28      C       0.8634140000     3.4972530000     4.4208550000
   29      C      -1.3887190000     4.6211120000     4.1039850000
   30      C      -1.2452580000     8.6514040000    -2.3071480000
   31      C       0.2477820000     8.9841560000    -2.5165400000
   32      C      -2.1015760000     9.2271430000    -3.4423660000
   33      H       0.5367110000     5.4575440000     3.6414400000
   34      H       0.8775980000     3.8011190000     5.4730780000
   35      H       1.8941590000     3.4395480000     4.0595850000
   36      H       0.4324100000     2.4912420000     4.3668180000
   37      H      -1.9690170000     5.2868570000     3.4598430000
   38      H      -1.3979120000     5.0253430000     5.1237310000
   39      H      -1.8843180000     3.6442320000     4.1160240000
   40      H      -1.5685990000     9.1384230000    -1.3772720000
   41      H       0.8505480000     8.5320850000    -1.7245880000
   42      H       0.4238680000    10.0669130000    -2.5153760000
   43      H       0.5901210000     8.5803190000    -3.4755820000
   44      H      -1.8337220000     8.7624000000    -4.3978770000
   45      H      -1.9604770000    10.3086690000    -3.5430390000
   46      H      -3.1613680000     9.0283460000    -3.2589970000
 ----------------------------------------------------------------

   18   -1035.6059680414      4.39e-09  Convergence criterion met
 Total energy in the final basis set =    -1035.8827165446

                    Orbital Energies (a.u.)
 --------------------------------------------------------------

 Alpha MOs
 -- Occupied --
-19.0312 -19.0312 -14.2862 -14.2862 -10.2074 -10.2073 -10.1911 -10.1910
-10.1890 -10.1889 -10.1699 -10.1694 -10.1653 -10.1653 -10.1638 -10.1638
-10.1622 -10.1621 -10.1541 -10.1538 -10.1487 -10.1483 -10.1475 -10.1470
 -0.9587  -0.9562  -0.9116  -0.9082  -0.8430  -0.8213  -0.7801  -0.7678
 -0.7553  -0.7399  -0.7207  -0.6967  -0.6908  -0.6859  -0.6449  -0.6265
 -0.6194  -0.5948  -0.5817  -0.5656  -0.5499  -0.5173  -0.5148  -0.4936
 -0.4810  -0.4640  -0.4606  -0.4517  -0.4493  -0.4422  -0.4352  -0.4281
 -0.4213  -0.4137  -0.4137  -0.3953  -0.3948  -0.3922  -0.3891  -0.3886
 -0.3814  -0.3739  -0.3736  -0.3648  -0.3599  -0.3571  -0.3508  -0.3477
 -0.3423  -0.3369  -0.3369  -0.3316  -0.3193  -0.3175  -0.2948  -0.2452
 -0.2422  -0.2329  -0.2297  -0.2116  -0.2028  -0.1676  -0.1098

          Ground-State Mulliken Net Atomic Charges

     Atom                 Charge (a.u.)
  ----------------------------------------
      1 C                     0.123478
      2 C                     1.370260
      3 C                     1.371596
      4 C                    -1.158404
      5 C                    -1.160432
      6 C                     0.124249
      7 C                    -1.257094
      8 C                    -1.260714
      9 C                    -0.819146
     10 C                    -0.806393
     11 C                    -1.823804
     12 C                    -0.092360
     13 C                    -0.098706
     14 C                    -1.822301
     15 O                    -0.289669
     16 O                    -0.289604
     17 H                     0.133935
     18 H                     0.388648
     19 H                     0.388476
     20 H                     0.133490
     21 H                     0.293020
     22 H                     0.292606
     23 N                    -0.069185
     24 N                    -0.070050
     25 H                     0.303354
     26 H                     0.301911
     27 C                     0.176755
     28 C                     0.585525
     29 C                    -0.170110
     30 C                     0.177915
     31 C                    -0.171091
     32 C                     0.582127
     33 H                     0.083030
     34 H                     0.372655
     35 H                     0.140788
     36 H                     0.168093
     37 H                     0.104707
     38 H                     0.356904
     39 H                     0.080048
     40 H                     0.082999
     41 H                     0.103934
     42 H                     0.357067
     43 H                     0.079977
     44 H                     0.167802
     45 H                     0.372554
     46 H                     0.141162
  ----------------------------------------
  Sum of atomic charges =    -2.000000

                    Cartesian Multipole Moments
 -----------------------------------------------------------------
    Charge (ESU x 10^10)
                -9.6064
    Dipole Moment (Debye)
         X       8.7098      Y     -36.3051      Z      12.3398
       Tot      39.3217
    Quadrupole Moments (Debye-Ang)
        XX    -174.4095     XY      35.4563     YY    -338.4600
        XZ     -20.2513     YZ      47.6917     ZZ    -216.1580

 Total job time:  2802.55s(wall), 20317.52s(cpu)
        *  Thank you very much for using Q-Chem.  Have a nice day.  *
