 Gaussian 16, Revision A.03,
 Gaussian 16:  ES64L-G16RevA.03 25-Dec-2016

 ----------------------------------------------------------------------
 #P UB3LYP/6-311++G(d,p) nosym opt freq SCRF=(PCM,Solvent=n,n-DiMethylF
 ormamide)
 ----------------------------------------------------------------------

 -------
 Radical
 -------
 Symbolic Z-matrix:
 Charge = -1 Multiplicity = 2

 SCF Done:  E(UB3LYP) =  -918.269611702     A.U. after   18 cycles
 SCF Done:  E(UB3LYP) =  -918.269794620     A.U. after   14 cycles
 SCF Done:  E(UB3LYP) =  -918.269815277     A.U. after   13 cycles
 SCF Done:  E(UB3LYP) =  -918.269842271     A.U. after   12 cycles
 SCF Done:  E(UB3LYP) =  -918.269842522     A.U. after   10 cycles
 SCF Done:  E(UB3LYP) =  -918.269843636     A.U. after   10 cycles
 Optimization completed.
    -- Stationary point found.
 Normal termination of Gaussian 16 at Sat Feb 10 22:43:33 2024.

 ----------------------------------------------------------------------
 #P Geom=AllCheck Guess=TCheck SCRF=Check GenChk UB3LYP/6-311++G(d,p) F
 req
 ----------------------------------------------------------------------

 Structure from the checkpoint file:  "197-rad.chk"
 -------
 Radical
 -------
 Charge = -1 Multiplicity = 2

                          Input orientation:
 ---------------------------------------------------------------------
 Center     Atomic      Atomic             Coordinates (Angstroms)
 Number     Number       Type             X           Y           Z
 ---------------------------------------------------------------------
      1          6           0       -4.018788   -1.008131    0.243013
      2          6           0       -2.635306   -0.406675    0.250647
      3          6           0       -2.465211    0.986601    0.423811
      4          6           0       -3.666086    1.882019    0.602541
      5          6           0       -1.178481    1.534534    0.428970
      6          8           0       -1.030730    2.876388    0.596552
      7          6           0       -0.026535    0.717560    0.262230
      8          6           0        1.290322    1.311009    0.270379
      9          8           0        1.451020    2.576861    0.429814
     10          6           0        2.433717    0.434883    0.092205
     11          6           0        3.742567    0.969432    0.089243
     12          6           0        4.844393    0.154934   -0.078522
     13          6           0        4.674489   -1.236015   -0.251633
     14          6           0        3.406458   -1.781633   -0.252812
     15          6           0        2.262281   -0.968872   -0.082290
     16          6           0        0.939076   -1.565314   -0.086625
     17          8           0        0.790404   -2.833191   -0.241539
     18          6           0       -0.198710   -0.692637    0.087109
     19          6           0       -1.515870   -1.228616    0.086069
     20          8           0       -1.695505   -2.566914   -0.078647
     21          1           0       -3.975296   -2.085893    0.099743
     22          1           0       -4.633504   -0.581916   -0.556997
     23          1           0       -4.544398   -0.809522    1.183131
     24          1           0       -4.250212    1.593351    1.482891
     25          1           0       -3.364678    2.920766    0.721212
     26          1           0       -4.341279    1.818513   -0.257460
     27          1           0       -0.034505    3.028977    0.565400
     28          1           0        3.858998    2.037949    0.221954
     29          1           0        5.841375    0.581718   -0.078151
     30          1           0        5.541396   -1.874093   -0.383704
     31          1           0        3.262038   -2.846804   -0.385213
     32          1           0       -0.763437   -2.939270   -0.174877
 ---------------------------------------------------------------------

 SCF Done:  E(UB3LYP) =  -918.269843636     A.U. after    1 cycles

 Alpha  occ. eigenvalues --  -19.12510 -19.12509 -19.08953 -19.08952 -10.23384
 Alpha  occ. eigenvalues --  -10.23382 -10.22719 -10.22717 -10.17878 -10.17834
 Alpha  occ. eigenvalues --  -10.17707 -10.17660 -10.17592 -10.17547 -10.17543
 Alpha  occ. eigenvalues --  -10.17502 -10.17424 -10.17423 -10.15994 -10.15992
 Alpha  occ. eigenvalues --   -1.04960  -1.04788  -1.00309  -1.00118  -0.86588
 Alpha  occ. eigenvalues --   -0.85000  -0.80388  -0.75819  -0.75744  -0.74822
 Alpha  occ. eigenvalues --   -0.70970  -0.68948  -0.65756  -0.62461  -0.62036
 Alpha  occ. eigenvalues --   -0.59384  -0.57255  -0.53983  -0.52149  -0.50736
 Alpha  occ. eigenvalues --   -0.50528  -0.47379  -0.46453  -0.45388  -0.44743
 Alpha  occ. eigenvalues --   -0.43572  -0.42831  -0.42329  -0.42254  -0.41737
 Alpha  occ. eigenvalues --   -0.40775  -0.40635  -0.39799  -0.39048  -0.38572
 Alpha  occ. eigenvalues --   -0.37428  -0.36777  -0.36456  -0.36141  -0.35023
 Alpha  occ. eigenvalues --   -0.34989  -0.34965  -0.33857  -0.30131  -0.26660
 Alpha  occ. eigenvalues --   -0.26228  -0.26169  -0.24852  -0.24282  -0.21196
 Alpha  occ. eigenvalues --   -0.14487
 Alpha virt. eigenvalues --   -0.05168  -0.02309  -0.00624   0.00141   0.01021
 Alpha virt. eigenvalues --    0.01075   0.01866   0.02151   0.03268   0.03752
 Alpha virt. eigenvalues --    0.03891   0.04120   0.05035   0.05066   0.05501

  Beta  occ. eigenvalues --  -19.12444 -19.12443 -19.08506 -19.08506 -10.23167
  Beta  occ. eigenvalues --  -10.23166 -10.22642 -10.22641 -10.17805 -10.17761
  Beta  occ. eigenvalues --  -10.17616 -10.17568 -10.17562 -10.17545 -10.17520
  Beta  occ. eigenvalues --  -10.17501 -10.17414 -10.17411 -10.16000 -10.15999
  Beta  occ. eigenvalues --   -1.04740  -1.04572  -0.99583  -0.99374  -0.86338
  Beta  occ. eigenvalues --   -0.84838  -0.80108  -0.75649  -0.75479  -0.74606
  Beta  occ. eigenvalues --   -0.70691  -0.68785  -0.65230  -0.62319  -0.61830
  Beta  occ. eigenvalues --   -0.59291  -0.57080  -0.53777  -0.52013  -0.50614
  Beta  occ. eigenvalues --   -0.50352  -0.47191  -0.46308  -0.45200  -0.44229
  Beta  occ. eigenvalues --   -0.43469  -0.42782  -0.41823  -0.41555  -0.41536
  Beta  occ. eigenvalues --   -0.40546  -0.40263  -0.39708  -0.38239  -0.38127
  Beta  occ. eigenvalues --   -0.37361  -0.36694  -0.36043  -0.35072  -0.34985
  Beta  occ. eigenvalues --   -0.34820  -0.34021  -0.33728  -0.29316  -0.25853
  Beta  occ. eigenvalues --   -0.25463  -0.25270  -0.24495  -0.23737  -0.20028
  Beta virt. eigenvalues --   -0.09173  -0.04074  -0.01366  -0.00605   0.00148
  Beta virt. eigenvalues --    0.01091   0.01723   0.01884   0.02152   0.03307
  Beta virt. eigenvalues --    0.03769   0.03904   0.04129   0.05089   0.05518

 Mulliken charges and spin densities:
               1          2
     1  C   -0.522285  -0.005938
     2  C    0.529439   0.070120
     3  C    0.528408   0.070114
     4  C   -0.522220  -0.005936
     5  C   -0.612232   0.058402
     6  O   -0.443133   0.021247
     7  C    0.444414  -0.028047
     8  C   -0.362519   0.120986
     9  O   -0.497755   0.161938
    10  C    0.114150   0.030185
    11  C    0.000437   0.032991
    12  C   -0.403139   0.039190
    13  C   -0.403036   0.039189
    14  C    0.000430   0.032995
    15  C    0.114169   0.030167
    16  C   -0.362834   0.120984
    17  O   -0.497712   0.161941
    18  C    0.444200  -0.028050
    19  C   -0.612328   0.058407
    20  O   -0.443003   0.021245
    21  H    0.186919   0.000235
    22  H    0.157228   0.003330
    23  H    0.157306   0.003336
    24  H    0.157389   0.003340
    25  H    0.186825   0.000234
    26  H    0.157171   0.003324
    27  H    0.394653  -0.003963
    28  H    0.172753  -0.000770
    29  H    0.184395  -0.003232
    30  H    0.184381  -0.003232
    31  H    0.172878  -0.000770
    32  H    0.394649  -0.003962
 Sum of Mulliken charges =  -1.00000   1.00000

 Dipole moment (field-independent basis, Debye):
    X=             -1.9555    Y=              0.2252    Z=             -0.6847  Tot=              2.0842
 Quadrupole moment (field-independent basis, Debye-Ang):
   XX=           -119.7662   YY=           -157.8564   ZZ=           -123.3662
   XY=             -4.6824   XZ=             -1.1346   YZ=             -4.2921

  Exact polarizability: 555.037 -18.370 378.824 -23.890  30.477 158.530
 Approx polarizability: 564.505  -9.887 457.823 -21.988  37.112 183.938

                      1                      2                      3
                      A                      A                      A
 Frequencies --     39.6107                50.0709                78.9771
 Red. masses --      1.0258                 5.0437                 5.1190
 Frc consts  --      0.0009                 0.0075                 0.0188
 IR Inten    --      0.0409                 7.8137                 0.0013

                      4                      5                      6
                      A                      A                      A
 Frequencies --    115.9496               127.5030               132.9418
 Red. masses --      6.8525                 1.1079                 3.6412
 Frc consts  --      0.0543                 0.0106                 0.0379
 IR Inten    --      0.0149                 0.0024                 0.0013

                      7                      8                      9
                      A                      A                      A
 Frequencies --    155.0142               168.1694               193.8809
 Red. masses --      5.2877                 6.1599                 4.5842
 Frc consts  --      0.0749                 0.1026                 0.1015
 IR Inten    --      0.0113                 2.3843                 3.3587

                     10                     11                     12
                      A                      A                      A
 Frequencies --    222.3291               300.1460               309.2365
 Red. masses --      5.2453                 4.2351                 3.5710
 Frc consts  --      0.1528                 0.2248                 0.2012
 IR Inten    --      0.0067                 0.1552                 4.4266

                     13                     14                     15
                      A                      A                      A
 Frequencies --    317.1121               339.2673               371.0577
 Red. masses --      4.5372                 3.8546                 6.1240
 Frc consts  --      0.2688                 0.2614                 0.4968
 IR Inten    --      8.3690                 0.2447                20.8911

                     16                     17                     18
                      A                      A                      A
 Frequencies --    392.9004               397.1546               404.4985
 Red. masses --      6.7008                 8.9806                 6.7044
 Frc consts  --      0.6095                 0.8346                 0.6463
 IR Inten    --     12.2282                 0.0015                 1.3956

                     19                     20                     21
                      A                      A                      A
 Frequencies --    440.3384               441.7090               444.9312
 Red. masses --      7.5916                 3.4854                 5.6074
 Frc consts  --      0.8673                 0.4007                 0.6540
 IR Inten    --     84.7637                13.7427                 0.0393

                     22                     23                     24
                      A                      A                      A
 Frequencies --    473.4731               519.7450               537.4709
 Red. masses --     11.2388                10.1685                 4.7489
 Frc consts  --      1.4844                 1.6184                 0.8083
 IR Inten    --      9.5672                 6.0915                 0.0004

                     25                     26                     27
                      A                      A                      A
 Frequencies --    538.5007               544.4993               640.9628
 Red. masses --      5.4379                 7.2627                 5.4445
 Frc consts  --      0.9291                 1.2687                 1.3179
 IR Inten    --     43.9660                23.8881                 7.5799

                     28                     29                     30
                      A                      A                      A
 Frequencies --    642.2373               658.1410               697.7474
 Red. masses --      6.7758                 5.1733                 4.7411
 Frc consts  --      1.6467                 1.3202                 1.3600
 IR Inten    --     20.1487                 0.0027                11.9625

                     31                     32                     33
                      A                      A                      A
 Frequencies --    719.6817               727.0764               737.6348
 Red. masses --      6.6134                 2.8541                 5.4327
 Frc consts  --      2.0182                 0.8889                 1.7416
 IR Inten    --      0.0130                71.3546                 6.6258

                     34                     35                     36
                      A                      A                      A
 Frequencies --    765.7227               776.4581               789.8207
 Red. masses --      5.6585                 5.6760                 1.8904
 Frc consts  --      1.9548                 2.0162                 0.6948
 IR Inten    --      6.4937                 0.0077                50.0814

                     37                     38                     39
                      A                      A                      A
 Frequencies --    882.7940               885.8477               893.9692
 Red. masses --      1.4072                 4.8646                 1.0618
 Frc consts  --      0.6462                 2.2491                 0.4999
 IR Inten    --      0.1910                 3.7101               122.0847

                     40                     41                     42
                      A                      A                      A
 Frequencies --    898.0478               930.8137               960.4907
 Red. masses --      1.0585                 6.0114                 2.4887
 Frc consts  --      0.5030                 3.0687                 1.3527
 IR Inten    --    164.4399               202.8026                68.7878

                     43                     44                     45
                      A                      A                      A
 Frequencies --    988.8186              1002.3466              1025.3473
 Red. masses --      1.3621                 1.2902                 2.2718
 Frc consts  --      0.7847                 0.7638                 1.4072
 IR Inten    --      1.6279                 0.0207                48.5994

                     46                     47                     48
                      A                      A                      A
 Frequencies --   1032.1605              1047.1031              1056.3963
 Red. masses --      1.4139                 1.8838                 1.5374
 Frc consts  --      0.8875                 1.2169                 1.0109
 IR Inten    --      1.5077                 2.5868                 0.0001

                     49                     50                     51
                      A                      A                      A
 Frequencies --   1081.2945              1101.2294              1123.1418
 Red. masses --      4.9093                 2.2513                 1.9683
 Frc consts  --      3.3819                 1.6086                 1.4629
 IR Inten    --    287.2209               108.0377                 5.7275

                     52                     53                     54
                      A                      A                      A
 Frequencies --   1136.3401              1164.0881              1213.5009
 Red. masses --      3.8221                 1.3371                 1.8968
 Frc consts  --      2.9078                 1.0675                 1.6457
 IR Inten    --      8.0685                 0.7639                63.6917

                     55                     56                     57
                      A                      A                      A
 Frequencies --   1259.6518              1281.2822              1284.8139
 Red. masses --      4.3257                 7.0824                 2.9179
 Frc consts  --      4.0440                 6.8504                 2.8380
 IR Inten    --      1.7704                 2.6832               242.7073

                     58                     59                     60
                      A                      A                      A
 Frequencies --   1311.6083              1335.4535              1354.3652
 Red. masses --      4.8071                 6.0361                 9.8197
 Frc consts  --      4.8724                 6.3426                10.6125
 IR Inten    --    602.9990               448.2280                 8.6516

                     61                     62                     63
                      A                      A                      A
 Frequencies --   1390.4612              1398.8640              1404.5741
 Red. masses --      1.6244                 4.9842                 1.2618
 Frc consts  --      1.8504                 5.7464                 1.4666
 IR Inten    --    672.4154                23.4574                 3.0362

                     64                     65                     66
                      A                      A                      A
 Frequencies --   1408.9777              1420.6410              1435.0328
 Red. masses --      2.0173                 5.4578                 2.2851
 Frc consts  --      2.3596                 6.4898                 2.7726
 IR Inten    --    526.1774                 9.1918               860.2615

                     67                     68                     69
                      A                      A                      A
 Frequencies --   1477.2862              1477.4481              1478.0006
 Red. masses --      1.5378                 1.9449                 1.1013
 Frc consts  --      1.9773                 2.5014                 1.4175
 IR Inten    --    494.6851                86.5855                77.8416

                     70                     71                     72
                      A                      A                      A
 Frequencies --   1486.0504              1493.0141              1496.6956
 Red. masses --      1.2565                 1.0437                 3.6158
 Frc consts  --      1.6349                 1.3707                 4.7722
 IR Inten    --     26.1528                27.9143               195.5254

                     73                     74                     75
                      A                      A                      A
 Frequencies --   1517.6569              1556.0931              1583.9997
 Red. masses --      2.0750                 5.7266                 2.2971
 Frc consts  --      2.8158                 8.1699                 3.3959
 IR Inten    --     32.7056               163.9348                72.4003

                     76                     77                     78
                      A                      A                      A
 Frequencies --   1624.7278              1625.4224              1652.4788
 Red. masses --      5.4142                 3.2366                 2.5731
 Frc consts  --      8.4207                 5.0381                 4.1398
 IR Inten    --      0.7925                47.6134                14.6875

                     79                     80                     81
                      A                      A                      A
 Frequencies --   2904.4045              2907.5274              3016.6014
 Red. masses --      1.0754                 1.0761                 1.0425
 Frc consts  --      5.3451                 5.3601                 5.5891
 IR Inten    --     30.0199              1424.7105                 1.9243

                     82                     83                     84
                      A                      A                      A
 Frequencies --   3017.4703              3054.6351              3055.5620
 Red. masses --      1.0414                 1.0995                 1.0998
 Frc consts  --      5.5868                 6.0447                 6.0497
 IR Inten    --    178.7353                66.3843                 0.3700

                     85                     86                     87
                      A                      A                      A
 Frequencies --   3136.5400              3138.1885              3162.1338
 Red. masses --      1.0951                 1.0947                 1.0862
 Frc consts  --      6.3474                 6.3519                 6.3993
 IR Inten    --     17.9313                11.3527                12.9247

                     88                     89                     90
                      A                      A                      A
 Frequencies --   3175.8183              3192.3134              3195.4915
 Red. masses --      1.0904                 1.0921                 1.0947
 Frc consts  --      6.4798                 6.5572                 6.5860
 IR Inten    --     20.7521                13.8176                43.7971

 - Thermochemistry -
 -------------------
 Temperature   298.150 Kelvin.  Pressure   1.00000 Atm.
 Atom     1 has atomic number  6 and mass  12.00000

 Molecular mass:   268.07356 amu.
 Principal axes and moments of inertia in atomic units:
                           1         2         3
     Eigenvalues --  2809.194796699.870099486.81670
           X            0.99132   0.12032   0.05291
           Y           -0.11267   0.98517  -0.12938
           Z           -0.06769   0.12230   0.99018
 This molecule is an asymmetric top.
 Rotational symmetry number  1.
 Warning -- assumption of classical behavior for rotation
           may cause significant error
 Rotational temperatures (Kelvin)      0.03083     0.01293     0.00913
 Rotational constants (GHZ):           0.64244     0.26937     0.19024
 Zero-point vibrational energy     630114.9 (Joules/Mol)
                                  150.60108 (Kcal/Mol)
 Warning -- explicit consideration of  26 degrees of freedom as
           vibrations may cause significant error
 Vibrational temperatures:     56.99    72.04   113.63   166.83   183.45
          (Kelvin)            191.27   223.03   241.96   278.95   319.88
                              431.84   444.92   456.25   488.13   533.87
                              565.30   571.42   581.98   633.55   635.52
                              640.16   681.22   747.80   773.30   774.78
                              783.41   922.20   924.04   946.92  1003.90
                             1035.46  1046.10  1061.29  1101.70  1117.15
                             1136.38  1270.14  1274.54  1286.22  1292.09
                             1339.23  1381.93  1422.69  1442.15  1475.25
                             1485.05  1506.55  1519.92  1555.74  1584.42
                             1615.95  1634.94  1674.86  1745.96  1812.36
                             1843.48  1848.56  1887.11  1921.42  1948.63
                             2000.56  2012.65  2020.87  2027.20  2043.99
                             2064.69  2125.49  2125.72  2126.51  2138.10
                             2148.11  2153.41  2183.57  2238.87  2279.02
                             2337.62  2338.62  2377.55  4178.79  4183.28
                             4340.22  4341.47  4394.94  4396.27  4512.78
                             4515.15  4549.61  4569.29  4593.03  4597.60

 Zero-point correction=                           0.239998 (Hartree/Particle)
 Thermal correction to Energy=                    0.256322
 Thermal correction to Enthalpy=                  0.257266
 Thermal correction to Gibbs Free Energy=         0.195681
 Sum of electronic and zero-point Energies=           -918.029846
 Sum of electronic and thermal Energies=              -918.013522
 Sum of electronic and thermal Enthalpies=            -918.012578
 Sum of electronic and thermal Free Energies=         -918.074162

                     E (Thermal)             CV                S
                      KCal/Mol        Cal/Mol-Kelvin    Cal/Mol-Kelvin
 Total                  160.844             64.637            129.616
 Electronic               0.000              0.000              1.377
 Translational            0.889              2.981             42.657
 Rotational               0.889              2.981             33.545
 Vibrational            159.067             58.675             52.036
 Vibration     1          0.594              1.981              5.278
 Vibration     2          0.595              1.978              4.815
 Vibration     3          0.600              1.963              3.916
 Vibration     4          0.608              1.936              3.167
 Vibration     5          0.611              1.926              2.983
 Vibration     6          0.613              1.920              2.903
 Vibration     7          0.620              1.897              2.610
 Vibration     8          0.625              1.882              2.456
 Vibration     9          0.635              1.848              2.190
 Vibration    10          0.648              1.807              1.940
 Vibration    11          0.693              1.673              1.416
 Vibration    12          0.699              1.656              1.366
 Vibration    13          0.704              1.641              1.325
 Vibration    14          0.719              1.597              1.216
 Vibration    15          0.743              1.532              1.075
 Vibration    16          0.760              1.485              0.989
 Vibration    17          0.764              1.476              0.973
 Vibration    18          0.770              1.460              0.946
 Vibration    19          0.800              1.382              0.826
 Vibration    20          0.801              1.379              0.821
 Vibration    21          0.804              1.372              0.811
 Vibration    22          0.830              1.309              0.728
 Vibration    23          0.875              1.206              0.611
 Vibration    24          0.892              1.167              0.571
 Vibration    25          0.894              1.165              0.569
 Vibration    26          0.900              1.152              0.556

                           ! Non-Optimized Parameters !
 Normal termination of Gaussian 16 at Sun Feb 11 00:07:49 2024.
