 Q-Chem 5.4, Q-Chem, Inc., Pleasanton, CA (2021)
 Q-Chem 5.4.0 for Intel X86 EM64T Linux

User input:
--------------------------------------------------------------
$molecule
-2 1
C                  3.8405980000      1.2651240000     -1.3635810000
N                  2.5264580000      1.1715620000     -0.7977580000
C                  2.0623840000      0.0301650000     -0.1740790000
C                  2.9323340000     -0.9767180000      0.2477150000
C                  2.4358240000     -2.1092450000      0.9420900000
C                  1.0918870000     -2.2386750000      1.1986800000
C                  0.1572330000     -1.2594300000      0.7628150000
C                 -1.2459590000     -1.4876150000      1.0551840000
O                 -1.6596420000     -2.5179820000      1.6975960000
C                 -2.1485960000     -0.4661500000      0.5696390000
C                 -3.5406740000     -0.5929080000      0.8039140000
C                 -4.4509120000      0.3437180000      0.3579110000
C                 -3.9889780000      1.4798080000     -0.3655660000
C                 -2.6400310000      1.6321300000     -0.6107740000
C                 -1.6783500000      0.6890340000     -0.1611170000
C                 -0.2832700000      0.9087260000     -0.4479030000
O                  0.0939870000      1.9566700000     -1.1328260000
C                  0.6301160000     -0.0893600000      0.0496700000
H                  4.0959640000      0.4125410000     -2.0239190000
H                  4.6329830000      1.3141270000     -0.5988500000
H                  3.9103240000      2.1799690000     -1.9610380000
H                  1.7341910000      1.7434490000     -1.1541860000
H                  3.9985690000     -0.8750880000      0.0754380000
H                  3.1349290000     -2.8765960000      1.2721450000
H                  0.6876170000     -3.0923420000      1.7309960000
H                 -3.8574560000     -1.4726000000      1.3560070000
H                 -5.5140190000      0.2164770000      0.5555230000
H                 -4.6983680000      2.2244980000     -0.7230940000
H                 -2.2591420000      2.4867100000     -1.1606330000
$end
$rem
MAX_SCF_CYCLES=200
BASIS  =  6-311++G(d,p)
GUI  =  2
JOB_TYPE  =  SP
METHOD  =  B3LYP
SOLVENT_METHOD = PCM
$end
$pcm
theory = CPCM
$end
$solvent
dielectric 37.219
opticaldielectric 1.43
$end

--------------------------------------------------------------

             Standard Nuclear Orientation (Angstroms)
    I     Atom           X                Y                Z
 ----------------------------------------------------------------
    1      C       3.8405980000     1.2651240000    -1.3635810000
    2      N       2.5264580000     1.1715620000    -0.7977580000
    3      C       2.0623840000     0.0301650000    -0.1740790000
    4      C       2.9323340000    -0.9767180000     0.2477150000
    5      C       2.4358240000    -2.1092450000     0.9420900000
    6      C       1.0918870000    -2.2386750000     1.1986800000
    7      C       0.1572330000    -1.2594300000     0.7628150000
    8      C      -1.2459590000    -1.4876150000     1.0551840000
    9      O      -1.6596420000    -2.5179820000     1.6975960000
   10      C      -2.1485960000    -0.4661500000     0.5696390000
   11      C      -3.5406740000    -0.5929080000     0.8039140000
   12      C      -4.4509120000     0.3437180000     0.3579110000
   13      C      -3.9889780000     1.4798080000    -0.3655660000
   14      C      -2.6400310000     1.6321300000    -0.6107740000
   15      C      -1.6783500000     0.6890340000    -0.1611170000
   16      C      -0.2832700000     0.9087260000    -0.4479030000
   17      O       0.0939870000     1.9566700000    -1.1328260000
   18      C       0.6301160000    -0.0893600000     0.0496700000
   19      H       4.0959640000     0.4125410000    -2.0239190000
   20      H       4.6329830000     1.3141270000    -0.5988500000
   21      H       3.9103240000     2.1799690000    -1.9610380000
   22      H       1.7341910000     1.7434490000    -1.1541860000
   23      H       3.9985690000    -0.8750880000     0.0754380000
   24      H       3.1349290000    -2.8765960000     1.2721450000
   25      H       0.6876170000    -3.0923420000     1.7309960000
   26      H      -3.8574560000    -1.4726000000     1.3560070000
   27      H      -5.5140190000     0.2164770000     0.5555230000
   28      H      -4.6983680000     2.2244980000    -0.7230940000
   29      H      -2.2591420000     2.4867100000    -1.1606330000
 ----------------------------------------------------------------

    9    -783.8904709070      2.96e-06  Convergence criterion met
 Total energy in the final basis set =     -783.8904709070

                    Orbital Energies (a.u.)
 --------------------------------------------------------------

 Alpha MOs
 -- Occupied --
-19.0296 -19.0223 -14.2848 -10.1879 -10.1796 -10.1789 -10.1740 -10.1493
-10.1487 -10.1465 -10.1462 -10.1447 -10.1418 -10.1372 -10.1359 -10.1347
-10.1322 -10.1302  -0.9490  -0.9414  -0.9012  -0.8261  -0.8088  -0.7507
 -0.7237  -0.7191  -0.7052  -0.6582  -0.6350  -0.6013  -0.5894  -0.5506
 -0.5316  -0.5047  -0.4947  -0.4718  -0.4464  -0.4404  -0.4292  -0.4210
 -0.4192  -0.4079  -0.3992  -0.3816  -0.3782  -0.3735  -0.3655  -0.3576
 -0.3452  -0.3416  -0.3306  -0.3258  -0.3148  -0.3055  -0.3028  -0.2692
 -0.2308  -0.2286  -0.2160  -0.2095  -0.1995  -0.1787  -0.1072

          Ground-State Mulliken Net Atomic Charges

     Atom                 Charge (a.u.)
  ----------------------------------------
      1 C                    -0.395861
      2 N                    -0.304488
      3 C                     0.139355
      4 C                    -0.167874
      5 C                    -0.525504
      6 C                    -0.146829
      7 C                     0.504249
      8 C                    -0.440510
      9 O                    -0.680155
     10 C                     0.122795
     11 C                    -0.059996
     12 C                    -0.508902
     13 C                    -0.548156
     14 C                    -0.035126
     15 C                     0.023034
     16 C                    -0.274604
     17 O                    -0.658798
     18 C                     0.025548
     19 H                     0.145402
     20 H                     0.146912
     21 H                     0.153051
     22 H                     0.396919
     23 H                     0.155237
     24 H                     0.173724
     25 H                     0.130237
     26 H                     0.139776
     27 H                     0.171803
     28 H                     0.172131
     29 H                     0.146629
  ----------------------------------------
  Sum of atomic charges =    -2.000000

                    Cartesian Multipole Moments
 -----------------------------------------------------------------
    Charge (ESU x 10^10)
                -9.6064
    Dipole Moment (Debye)
         X       7.2963      Y       4.6411      Z      -4.4302
       Tot       9.7161
    Quadrupole Moments (Debye-Ang)
        XX    -138.3826     XY      -8.6896     YY    -152.8938
        XZ       6.1468     YZ      19.5578     ZZ    -131.7168

 Total job time:  85.24s(wall), 361.92s(cpu)
        *  Thank you very much for using Q-Chem.  Have a nice day.  *
