 Q-Chem 5.4, Q-Chem, Inc., Pleasanton, CA (2021)
 Q-Chem 5.4.0 for Intel X86 EM64T Linux

User input:
--------------------------------------------------------------
$molecule
-2 1
C                  3.3219330000     -0.9344130000     -0.0939100000
O                  1.9457730000     -1.1614580000      0.0902320000
C                  1.0677350000     -0.1177050000     -0.0841630000
C                  1.5297320000      1.1412310000     -0.4556530000
C                  0.6190990000      2.2073330000     -0.6416280000
C                 -0.7248340000      2.0033680000     -0.4392520000
C                 -1.2310890000      0.7404580000     -0.0480150000
C                 -2.6796580000      0.6363950000      0.1422230000
O                 -3.4707770000      1.6395230000     -0.0159280000
C                 -3.1313780000     -0.6635150000      0.5016740000
C                 -2.2774520000     -1.7469010000      0.6670780000
C                 -0.8520710000     -1.7080920000      0.5067400000
O                 -0.1451200000     -2.7544320000      0.6925980000
C                 -0.3271300000     -0.3832960000      0.1273890000
H                  3.8214140000     -1.8768540000      0.1438170000
H                  3.5718600000     -0.6557200000     -1.1292600000
H                  3.7189410000     -0.1526850000      0.5721410000
H                  2.5852530000      1.3130410000     -0.6219420000
H                  0.9978590000      3.1835010000     -0.9395970000
H                 -1.4543950000      2.7957270000     -0.5672300000
H                 -4.2049330000     -0.7856720000      0.6469560000
H                 -2.6807630000     -2.7198340000      0.9457300000
$end
$rem
MAX_SCF_CYCLES=200
BASIS  =  6-311++G(d,p)
GUI  =  2
JOB_TYPE  =  SP
METHOD  =  B3LYP
SOLVENT_METHOD = COSMO
$end
$solvent
dielectric 37.219
opticaldielectric 1.43
$end

--------------------------------------------------------------

             Standard Nuclear Orientation (Angstroms)
    I     Atom           X                Y                Z
 ----------------------------------------------------------------
    1      C       3.7722986049     0.1741133251    -0.0239705157
    2      O       2.4500185268     0.6542311657    -0.0056318126
    3      C       1.4122441271    -0.2478621059     0.0004258401
    4      C       1.6641536525    -1.6163873676     0.0072154789
    5      C       0.5910786415    -2.5376324193     0.0223881956
    6      C      -0.7047466238    -2.0799378609     0.0142489081
    7      C      -1.0006006465    -0.6956117795    -0.0060951580
    8      C      -2.4162569897    -0.3198565189    -0.0159366221
    9      O      -3.3623990134    -1.1927174269    -0.0246487797
   10      C      -2.6500588695     1.0830588841    -0.0022603310
   11      C      -1.6283750910     2.0244516635     0.0124098216
   12      C      -0.2256675651     1.7222327590     0.0115503371
   13      O       0.6438381308     2.6566357994     0.0126044120
   14      C       0.0768134166     0.2789739655     0.0035511600
   15      H       4.4164284744     1.0553035955    -0.0767990380
   16      H       4.0301023416    -0.3957332956     0.8820620325
   17      H       3.9832570101    -0.4637347548    -0.8963146743
   18      H       2.6802625055    -1.9888175267     0.0178862111
   19      H       0.8071667107    -3.6045403474     0.0351179303
   20      H      -1.5547137679    -2.7537182315     0.0210512858
   21      H      -3.6914625750     1.4055919017    -0.0028125002
   22      H      -1.8679977949     3.0871970824     0.0200555083
 ----------------------------------------------------------------

   27    -649.7713731595      7.86e-06  Convergence criterion met
 Total energy in the final basis set =     -649.7713731595
    6    -650.0691336071      4.20e-06  Convergence criterion met
 Total energy in the final basis set =     -650.0691336071

                    Orbital Energies (a.u.)
 --------------------------------------------------------------

 Alpha MOs
 -- Occupied --
-19.1352 -19.0207 -19.0171 -10.2160 -10.2052 -10.1777 -10.1708 -10.1500
-10.1471 -10.1447 -10.1405 -10.1385 -10.1211 -10.1186  -1.0519  -0.9409
 -0.9375  -0.8252  -0.7634  -0.7365  -0.7080  -0.6755  -0.6383  -0.5853
 -0.5782  -0.5363  -0.4908  -0.4738  -0.4604  -0.4536  -0.4425  -0.4235
 -0.4050  -0.3868  -0.3776  -0.3766  -0.3596  -0.3530  -0.3363  -0.3257
 -0.3234  -0.3198  -0.3119  -0.2961  -0.2299  -0.2201  -0.2084  -0.2020
 -0.1925  -0.1120

          Ground-State Mulliken Net Atomic Charges

     Atom                 Charge (a.u.)
  ----------------------------------------
      1 C                    -0.304491
      2 O                    -0.176977
      3 C                     0.184250
      4 C                    -0.159333
      5 C                    -0.464136
      6 C                    -0.108620
      7 C                     0.090483
      8 C                    -0.374229
      9 O                    -0.761328
     10 C                    -0.183331
     11 C                    -0.143540
     12 C                    -0.246238
     13 O                    -0.747142
     14 C                     0.080151
     15 H                     0.195355
     16 H                     0.161646
     17 H                     0.157108
     18 H                     0.179848
     19 H                     0.190040
     20 H                     0.147012
     21 H                     0.143407
     22 H                     0.140064
  ----------------------------------------
  Sum of atomic charges =    -2.000000

                    Cartesian Multipole Moments
 -----------------------------------------------------------------
    Charge (ESU x 10^10)
                -9.6064
    Dipole Moment (Debye)
         X      13.2625      Y      -6.1548      Z       0.0254
       Tot      14.6211
    Quadrupole Moments (Debye-Ang)
        XX    -130.4093     XY     -22.7831     YY    -126.6439
        XZ      -0.4717     YZ      -0.3408     ZZ     -92.6129

 Total job time:  68.48s(wall), 511.67s(cpu)
        *  Thank you very much for using Q-Chem.  Have a nice day.  *
