 Gaussian 16, Revision A.03,
 Gaussian 16:  ES64L-G16RevA.03 25-Dec-2016

 ----------------------------------------------------------------
 #P UB3LYP/6-311++G(d,p) SCRF=(PCM,Solvent=n,n-DiMethylFormamide)
 ----------------------------------------------------------------

 -------
 Reduced
 -------
 Symbolic Z-matrix:
 Charge = -2 Multiplicity = 1

                         Standard orientation:
 ---------------------------------------------------------------------
 Center     Atomic      Atomic             Coordinates (Angstroms)
 Number     Number       Type             X           Y           Z
 ---------------------------------------------------------------------
      1          6           0       -2.007584   -1.564636   -0.119061
      2          6           0       -0.632996   -1.353346   -0.418710
      3          6           0       -0.001375   -0.099270   -0.430272
      4          6           0       -0.727711    1.107103   -0.114050
      5          6           0       -2.130015    0.906397    0.195542
      6          6           0       -2.736739   -0.351687    0.193972
      7          6           0       -4.203480   -0.505219    0.523474
      8          6           0       -2.930924    2.145348    0.525371
      9          8           0       -2.565614   -2.734933   -0.127990
     10          8           0       -0.191062    2.283461   -0.104148
     11          1           0       -0.049336   -2.242362   -0.658156
     12          1           0       -4.444301   -0.146033    1.536246
     13          1           0       -4.457861   -1.566007    0.455915
     14          1           0       -4.849594    0.060422   -0.165817
     15          1           0       -2.266327    3.010257    0.463387
     16          1           0       -3.365835    2.105892    1.536212
     17          1           0       -3.774494    2.295441   -0.167045
     18          6           0        1.442193   -0.064285   -0.822457
     19          6           0        1.853447    1.005216   -1.831282
     20          8           0        2.299199    0.152774    0.422245
     21          6           0        3.508501   -0.373581    0.469854
     22          6           0        4.191088   -0.109440    1.804423
     23          8           0        4.054831   -1.013801   -0.416122
     24          1           0        1.744105   -1.048496   -1.182043
     25          1           0        2.928515    0.957154   -2.033300
     26          1           0        1.557241    1.983474   -1.452324
     27          1           0        1.317093    0.819510   -2.768651
     28          1           0        3.582826    0.516924    2.455242
     29          1           0        5.161144    0.364614    1.629811
     30          1           0        4.391556   -1.066396    2.297819
 ---------------------------------------------------------------------

 SCF Done:  E(UB3LYP) =  -767.075559314     A.U. after   17 cycles

 The electronic state is 1-A.
 Alpha  occ. eigenvalues --  -19.15116 -19.10150 -19.00480 -19.00431 -10.29580
 Alpha  occ. eigenvalues --  -10.21140 -10.16921 -10.16108 -10.15650 -10.13948
 Alpha  occ. eigenvalues --  -10.13187 -10.13105 -10.12202 -10.12021 -10.12012
 Alpha  occ. eigenvalues --  -10.11157  -1.09048  -1.00576  -0.92290  -0.91772
 Alpha  occ. eigenvalues --   -0.78977  -0.77052  -0.73303  -0.70999  -0.69136
 Alpha  occ. eigenvalues --   -0.64281  -0.62139  -0.60261  -0.54526  -0.52755
 Alpha  occ. eigenvalues --   -0.49902  -0.48544  -0.46562  -0.45991  -0.44390
 Alpha  occ. eigenvalues --   -0.42021  -0.40544  -0.40303  -0.40190  -0.39955
 Alpha  occ. eigenvalues --   -0.38070  -0.37412  -0.36860  -0.35732  -0.35526
 Alpha  occ. eigenvalues --   -0.34959  -0.34478  -0.34375  -0.33032  -0.32150
 Alpha  occ. eigenvalues --   -0.30580  -0.30006  -0.29834  -0.29253  -0.27392
 Alpha  occ. eigenvalues --   -0.21559  -0.19534  -0.18779  -0.18045  -0.10779
 Alpha virt. eigenvalues --   -0.00236   0.00481   0.00706   0.01646   0.01869
 Alpha virt. eigenvalues --    0.02412   0.02881   0.03333   0.03644   0.04220
 Alpha virt. eigenvalues --    0.04922   0.05118   0.05433   0.06031   0.06159

  Beta  occ. eigenvalues --  -19.15116 -19.10150 -19.00480 -19.00431 -10.29580
  Beta  occ. eigenvalues --  -10.21140 -10.16921 -10.16108 -10.15650 -10.13948
  Beta  occ. eigenvalues --  -10.13187 -10.13105 -10.12202 -10.12021 -10.12012
  Beta  occ. eigenvalues --  -10.11157  -1.09048  -1.00576  -0.92290  -0.91772
  Beta  occ. eigenvalues --   -0.78977  -0.77052  -0.73303  -0.70999  -0.69136
  Beta  occ. eigenvalues --   -0.64281  -0.62139  -0.60261  -0.54526  -0.52755
  Beta  occ. eigenvalues --   -0.49902  -0.48544  -0.46562  -0.45991  -0.44390
  Beta  occ. eigenvalues --   -0.42021  -0.40544  -0.40303  -0.40190  -0.39955
  Beta  occ. eigenvalues --   -0.38070  -0.37412  -0.36860  -0.35732  -0.35526
  Beta  occ. eigenvalues --   -0.34959  -0.34478  -0.34375  -0.33032  -0.32150
  Beta  occ. eigenvalues --   -0.30580  -0.30006  -0.29834  -0.29253  -0.27392
  Beta  occ. eigenvalues --   -0.21559  -0.19534  -0.18779  -0.18045  -0.10779
  Beta virt. eigenvalues --   -0.00236   0.00481   0.00706   0.01646   0.01869
  Beta virt. eigenvalues --    0.02412   0.02881   0.03333   0.03644   0.04220
  Beta virt. eigenvalues --    0.04922   0.05118   0.05433   0.06031   0.06159

 Mulliken charges and spin densities:
               1          2
     1  C   -0.735823  -0.000000
     2  C   -0.231095   0.000000
     3  C    0.895283   0.000000
     4  C   -0.775292  -0.000000
     5  C    0.261375  -0.000000
     6  C    0.535149  -0.000000
     7  C   -0.439555  -0.000000
     8  C   -0.570222   0.000000
     9  O   -0.736429   0.000000
    10  O   -0.677347   0.000000
    11  H    0.110751   0.000000
    12  H    0.128237   0.000000
    13  H    0.170733   0.000000
    14  H    0.127765  -0.000000
    15  H    0.168662   0.000000
    16  H    0.125150   0.000000
    17  H    0.125213   0.000000
    18  C   -0.554202  -0.000000
    19  C   -0.542377   0.000000
    20  O    0.087713   0.000000
    21  C    0.280077  -0.000000
    22  C   -0.570651  -0.000000
    23  O   -0.378013   0.000000
    24  H    0.189584   0.000000
    25  H    0.148164  -0.000000
    26  H    0.204235   0.000000
    27  H    0.127932  -0.000000
    28  H    0.168038   0.000000
    29  H    0.177831   0.000000
    30  H    0.179115  -0.000000
 Sum of Mulliken charges =  -2.00000  -0.00000

 Dipole moment (field-independent basis, Debye):
    X=              9.0245    Y=              4.4496    Z=              2.2450  Tot=             10.3092
 Quadrupole moment (field-independent basis, Debye-Ang):
   XX=           -152.1988   YY=           -158.0281   ZZ=           -103.5115
   XY=            -18.4223   XZ=              7.7405   YZ=             -3.3015

 Normal termination of Gaussian 16 at Sun Jan 21 07:43:52 2024.
