 Gaussian 16, Revision A.03,
 Gaussian 16:  ES64L-G16RevA.03 25-Dec-2016

 ----------------------------------------------------------------
 #P UB3LYP/6-311++G(d,p) SCRF=(PCM,Solvent=n,n-DiMethylFormamide)
 ----------------------------------------------------------------

 ------------------
 Radical PCM in DMF
 ------------------
 Symbolic Z-matrix:
 Charge = -1 Multiplicity = 2

                         Standard orientation:
 ---------------------------------------------------------------------
 Center     Atomic      Atomic             Coordinates (Angstroms)
 Number     Number       Type             X           Y           Z
 ---------------------------------------------------------------------
      1          6           0       -6.528795    1.211937    1.207586
      2          6           0       -6.953201    2.405572    0.653960
      3          6           0       -6.298834    2.930216   -0.478849
      4          6           0       -5.441468    0.503277    0.652258
      5          6           0       -4.778611    1.032214   -0.492246
      6          6           0       -5.229525    2.247630   -1.035876
      7          6           0       -4.998327   -0.746881    1.232715
      8          6           0       -3.878377   -1.398845    0.594339
      9          6           0       -3.220309   -0.918848   -0.518373
     10          6           0       -3.634200    0.332954   -1.114283
     11          8           0       -5.518023   -1.308270    2.252343
     12          8           0       -3.051863    0.811836   -2.122438
     13          8           0       -3.515251   -2.569011    1.195273
     14          6           0       -2.060670   -1.658920   -1.131297
     15          1           0       -7.016061    0.788430    2.078609
     16          1           0       -7.791290    2.940191    1.091745
     17          1           0       -6.632868    3.867892   -0.912944
     18          1           0       -4.707201    2.628255   -1.906330
     19          1           0       -4.166725   -2.630026    1.928858
     20          6           0       -0.691910   -1.151973   -0.638938
     21          6           0        0.482018   -1.878038   -1.325736
     22          6           0        1.839734   -1.398095   -0.870216
     23          6           0        2.425396   -0.251877   -1.423566
     24          6           0        2.546409   -2.055528    0.141022
     25          6           0        3.785171   -1.588685    0.580061
     26          6           0        4.369767   -0.445940    0.027016
     27          6           0        3.661955    0.214023   -0.986209
     28          6           0        5.721107    0.047779    0.513529
     29          6           0        6.801623    0.005240   -0.589857
     30          6           0        5.650777    1.459181    1.137538
     31          6           0        7.018782    1.929397    1.652597
     32          6           0        8.169658    0.475981   -0.075277
     33          6           0        8.088679    1.874037    0.553315
     34          1           0       -2.105915   -1.525642   -2.217276
     35          1           0       -2.148568   -2.727805   -0.911398
     36          1           0       -0.619059   -1.286716    0.445743
     37          1           0       -0.622190   -0.078102   -0.835718
     38          1           0        0.391965   -1.740148   -2.409497
     39          1           0        0.395976   -2.954678   -1.138565
     40          1           0        1.899234    0.284520   -2.207335
     41          1           0        2.119888   -2.945705    0.593665
     42          1           0        4.307006   -2.124347    1.368391
     43          1           0        4.077403    1.106263   -1.444471
     44          1           0        6.045925   -0.638785    1.307673
     45          1           0        6.488281    0.644643   -1.424543
     46          1           0        6.873880   -1.011188   -0.990226
     47          1           0        4.915567    1.463121    1.948249
     48          1           0        5.283773    2.167979    0.385004
     49          1           0        7.329271    1.289352    2.489459
     50          1           0        6.938888    2.945707    2.053648
     51          1           0        8.900631    0.468302   -0.891510
     52          1           0        8.536702   -0.235550    0.676684
     53          1           0        7.840965    2.605791   -0.227143
     54          1           0        9.064524    2.166979    0.956547
 ---------------------------------------------------------------------

 SCF Done:  E(UB3LYP) =  -1194.49411616     A.U. after   19 cycles

 The electronic state is 2-A.
 Alpha  occ. eigenvalues --  -19.14303 -19.08543 -19.07340 -10.22250 -10.22089
 Alpha  occ. eigenvalues --  -10.22016 -10.17831 -10.17732 -10.17426 -10.17348
 Alpha  occ. eigenvalues --  -10.17270 -10.17203 -10.17157 -10.17105 -10.17079
 Alpha  occ. eigenvalues --  -10.17079 -10.17041 -10.17015 -10.16930 -10.16661
 Alpha  occ. eigenvalues --  -10.16204 -10.16135 -10.16134 -10.16116 -10.16035
 Alpha  occ. eigenvalues --  -10.16023 -10.15951 -10.15930  -1.06301  -0.99887
 Alpha  occ. eigenvalues --   -0.99542  -0.86434  -0.85822  -0.83116  -0.81284
 Alpha  occ. eigenvalues --   -0.79206  -0.76753  -0.75083  -0.74524  -0.74275
 Alpha  occ. eigenvalues --   -0.73856  -0.71696  -0.68384  -0.65990  -0.62564
 Alpha  occ. eigenvalues --   -0.61528  -0.60963  -0.60734  -0.59854  -0.57967
 Alpha  occ. eigenvalues --   -0.56967  -0.56801  -0.54842  -0.53657  -0.50548
 Alpha  occ. eigenvalues --   -0.50004  -0.48472  -0.47707  -0.46756  -0.46120
 Alpha  occ. eigenvalues --   -0.45303  -0.44916  -0.44029  -0.43666  -0.43589
 Alpha  occ. eigenvalues --   -0.43120  -0.42644  -0.42412  -0.41729  -0.41496
 Alpha  occ. eigenvalues --   -0.40964  -0.40037  -0.39779  -0.39051  -0.38672
 Alpha  occ. eigenvalues --   -0.38083  -0.37605  -0.37279  -0.36841  -0.36562
 Alpha  occ. eigenvalues --   -0.35524  -0.34970  -0.34511  -0.34252  -0.34166
 Alpha  occ. eigenvalues --   -0.33975  -0.33531  -0.33143  -0.32942  -0.32325
 Alpha  occ. eigenvalues --   -0.31409  -0.30094  -0.29914  -0.26691  -0.25938
 Alpha  occ. eigenvalues --   -0.25752  -0.25568  -0.24104  -0.23739  -0.22592
 Alpha  occ. eigenvalues --   -0.15038
 Alpha virt. eigenvalues --   -0.03272  -0.01463  -0.01343  -0.00593  -0.00530
 Alpha virt. eigenvalues --   -0.00259   0.00411   0.00568   0.00951   0.01343
 Alpha virt. eigenvalues --    0.01487   0.01940   0.02216   0.02880   0.03135

  Beta  occ. eigenvalues --  -19.14256 -19.07914 -19.06809 -10.22118 -10.21987
  Beta  occ. eigenvalues --  -10.21729 -10.17831 -10.17732 -10.17410 -10.17348
  Beta  occ. eigenvalues --  -10.17266 -10.17105 -10.17093 -10.17079 -10.17070
  Beta  occ. eigenvalues --  -10.17041 -10.17028 -10.17015 -10.16955 -10.16660
  Beta  occ. eigenvalues --  -10.16135 -10.16125 -10.16124 -10.16115 -10.16035
  Beta  occ. eigenvalues --  -10.16023 -10.15951 -10.15937  -1.06085  -0.98961
  Beta  occ. eigenvalues --   -0.98476  -0.86433  -0.85587  -0.83114  -0.81047
  Beta  occ. eigenvalues --   -0.79065  -0.76621  -0.74864  -0.74522  -0.74187
  Beta  occ. eigenvalues --   -0.73856  -0.71618  -0.67981  -0.65442  -0.62467
  Beta  occ. eigenvalues --   -0.61403  -0.60912  -0.60734  -0.59739  -0.57849
  Beta  occ. eigenvalues --   -0.56927  -0.56590  -0.54842  -0.53483  -0.50385
  Beta  occ. eigenvalues --   -0.49930  -0.48303  -0.47592  -0.46736  -0.45993
  Beta  occ. eigenvalues --   -0.45236  -0.44884  -0.43974  -0.43596  -0.43156
  Beta  occ. eigenvalues --   -0.42673  -0.42515  -0.42378  -0.41633  -0.41087
  Beta  occ. eigenvalues --   -0.40509  -0.39829  -0.39599  -0.38957  -0.37943
  Beta  occ. eigenvalues --   -0.37687  -0.37605  -0.37179  -0.36633  -0.35914
  Beta  occ. eigenvalues --   -0.35187  -0.34553  -0.34459  -0.34166  -0.33891
  Beta  occ. eigenvalues --   -0.33350  -0.33155  -0.32833  -0.32767  -0.32138
  Beta  occ. eigenvalues --   -0.31408  -0.30091  -0.29911  -0.25570  -0.25382
  Beta  occ. eigenvalues --   -0.25054  -0.24710  -0.23947  -0.23319  -0.21763
  Beta virt. eigenvalues --   -0.08513  -0.02522  -0.01462  -0.01198  -0.00563
  Beta virt. eigenvalues --   -0.00250   0.00356   0.00464   0.00584   0.00966
  Beta virt. eigenvalues --    0.01348   0.01498   0.01951   0.02217   0.02892

 Mulliken charges and spin densities:
               1          2
     1  C    0.076885   0.074018
     2  C   -0.411916  -0.000952
     3  C   -0.472115   0.071903
     4  C    0.209620  -0.009808
     5  C    0.284844   0.072094
     6  C    0.105307   0.001650
     7  C   -0.779790   0.180547
     8  C   -0.638030   0.049196
     9  C    1.798314   0.041061
    10  C   -0.880964   0.077279
    11  O   -0.522601   0.229594
    12  O   -0.449202   0.196662
    13  O   -0.281397   0.016527
    14  C   -0.375440   0.009905
    15  H    0.172070  -0.003792
    16  H    0.178166  -0.000575
    17  H    0.178941  -0.005176
    18  H    0.168052  -0.000091
    19  H    0.290494  -0.003385
    20  C   -0.442770  -0.004542
    21  C   -0.650363   0.006994
    22  C    1.047601  -0.001701
    23  C   -0.322687  -0.000430
    24  C   -0.566674   0.000077
    25  C   -0.413821   0.000064
    26  C    0.498299   0.000096
    27  C   -0.527484  -0.000162
    28  C    0.263564   0.000207
    29  C   -0.442617  -0.000013
    30  C   -0.435930  -0.000150
    31  C   -0.406783  -0.000019
    32  C   -0.390209  -0.000002
    33  C   -0.385874   0.000003
    34  H    0.186913   0.002594
    35  H    0.213424  -0.000918
    36  H    0.174521   0.001663
    37  H    0.187821  -0.001172
    38  H    0.163178   0.000793
    39  H    0.148261  -0.000033
    40  H    0.189739  -0.000071
    41  H    0.184934   0.000027
    42  H    0.176814  -0.000003
    43  H    0.185127   0.000026
    44  H    0.182584   0.000010
    45  H    0.141672   0.000001
    46  H    0.173793   0.000004
    47  H    0.173800  -0.000003
    48  H    0.140139   0.000000
    49  H    0.131162   0.000001
    50  H    0.174301   0.000001
    51  H    0.173601   0.000003
    52  H    0.130509  -0.000001
    53  H    0.116368  -0.000000
    54  H    0.175850  -0.000000
 Sum of Mulliken charges =  -1.00000   1.00000

 Dipole moment (field-independent basis, Debye):
    X=             19.6760    Y=              1.9010    Z=              0.2433  Tot=             19.7692
 Quadrupole moment (field-independent basis, Debye-Ang):
   XX=           -255.4258   YY=           -177.0862   ZZ=           -191.7345
   XY=             -8.7249   XZ=             12.7319   YZ=              6.0981

 Normal termination of Gaussian 16 at Thu Jan 25 06:00:02 2024.
