 Q-Chem 5.4, Q-Chem, Inc., Pleasanton, CA (2021)
 Q-Chem 5.4.0 for Intel X86 EM64T Linux

User input:
--------------------------------------------------------------
$molecule
-2 1
C                  1.3292440000      1.0456640000     -2.9831660000
C                  0.0212250000      1.4078550000     -3.4708720000
C                 -1.1112250000      0.7098810000     -3.1274280000
C                 -1.1126770000     -0.4575150000     -2.2760330000
C                  0.1776900000     -0.8804630000     -1.8254750000
O                  2.3433960000      1.7945440000     -3.1878070000
O                 -2.2200520000     -1.0669990000     -1.9945940000
H                 -0.0320960000      2.2992690000     -4.0945980000
C                  1.3727270000     -0.1815700000     -2.1924380000
C                  2.6788180000     -0.6189060000     -1.7028270000
C                  3.8939960000     -0.5539220000     -2.6121240000
C                  5.1713480000     -0.5681450000     -2.0324870000
C                  3.8065940000     -0.6476000000     -4.0087520000
C                  6.3216540000     -0.6593830000     -2.8163370000
C                  6.2205100000     -0.7582790000     -4.2041690000
C                  4.9504080000     -0.7540480000     -4.7938510000
O                  2.8734560000     -1.1275300000     -0.5799540000
C                  0.2122480000     -2.1641820000     -1.0296720000
H                  5.2354890000     -0.5189890000     -0.9514170000
H                  2.8244640000     -0.6330370000     -4.4662690000
H                  7.3026000000     -0.6659470000     -2.3442210000
H                  7.1152620000     -0.8509310000     -4.8167340000
H                  4.8560500000     -0.8292840000     -5.8743270000
H                 -2.0865450000      1.0262180000     -3.4987130000
H                  0.3122430000     -1.9849850000      0.0493740000
H                  1.0586410000     -2.8008070000     -1.3085880000
H                 -0.7310560000     -2.6917090000     -1.1974010000
$end
$rem
MAX_SCF_CYCLES=200
BASIS  =  6-311++G(d,p)
GUI  =  2
JOB_TYPE  =  SP
METHOD  =  B3LYP
SOLVENT_METHOD = COSMO
$end
$solvent
dielectric 37.219
opticaldielectric 1.43
$end

--------------------------------------------------------------

             Standard Nuclear Orientation (Angstroms)
    I     Atom           X                Y                Z
 ----------------------------------------------------------------
    1      C       0.7905238043     1.3000474096    -0.6602852795
    2      C       2.0036495470     2.0385996142    -0.4096466135
    3      C       3.1532663351     1.4346155784     0.0388497783
    4      C       3.2636079761     0.0232018383     0.3276835573
    5      C       2.0590892657    -0.7278504021     0.1488268399
    6      O      -0.2163408413     1.8504701907    -1.2210542337
    7      O       4.3807547958    -0.4782739928     0.7489471584
    8      H       1.9776007846     3.1029564555    -0.6397816778
    9      C       0.8437838705    -0.1128020037    -0.2938637565
   10      C      -0.3698010752    -0.9036351167    -0.4904597266
   11      C      -1.7236565947    -0.3283591403    -0.1112047864
   12      C      -2.8778734953    -0.8937221580    -0.6733057400
   13      C      -1.8883339679     0.6304115991     0.8990548236
   14      C      -4.1513110033    -0.5088305396    -0.2535862574
   15      C      -4.3011020424     0.4414645601     0.7566563155
   16      C      -3.1561524712     1.0065526847     1.3316934828
   17      O      -0.3806491728    -2.0847495786    -0.8932959776
   18      C       2.1200019582    -2.1818501830     0.5545427778
   19      H      -2.7477853872    -1.6513773097    -1.4376868494
   20      H      -1.0028474766     1.0761684297     1.3364650943
   21      H      -5.0327614608    -0.9596136029    -0.7063901656
   22      H      -5.2929132234     0.7281742299     1.1009084909
   23      H      -3.2573501052     1.7492386958     2.1192014524
   24      H       4.0581368564     2.0223155863     0.1969282127
   25      H       2.2191275244    -2.8533958640    -0.3089682849
   26      H       1.2153365061    -2.5020119027     1.0823150101
   27      H       2.9991850879    -2.3190901184     1.1905006491
 ----------------------------------------------------------------

   13    -765.3630436976      5.09e-06  Convergence criterion met
 Total energy in the final basis set =     -765.3630436976
    6    -765.6445201129      5.24e-06  Convergence criterion met
 Total energy in the final basis set =     -765.6445201129

                    Orbital Energies (a.u.)
 --------------------------------------------------------------

 Alpha MOs
 -- Occupied --
-19.0825 -19.0317 -19.0207 -10.2339 -10.1896 -10.1724 -10.1717 -10.1707
-10.1687 -10.1677 -10.1668 -10.1657 -10.1372 -10.1361 -10.1354 -10.1319
-10.1304  -1.0080  -0.9535  -0.9357  -0.8500  -0.7895  -0.7519  -0.7400
 -0.7325  -0.6874  -0.6325  -0.6193  -0.5988  -0.5773  -0.5301  -0.5265
 -0.4908  -0.4543  -0.4512  -0.4430  -0.4301  -0.4232  -0.4139  -0.4116
 -0.3920  -0.3812  -0.3764  -0.3673  -0.3643  -0.3554  -0.3514  -0.3435
 -0.3322  -0.3274  -0.3206  -0.3177  -0.2546  -0.2530  -0.2360  -0.2344
 -0.2177  -0.2051  -0.1996  -0.1269

          Ground-State Mulliken Net Atomic Charges

     Atom                 Charge (a.u.)
  ----------------------------------------
      1 C                    -0.738172
      2 C                    -0.209208
      3 C                    -0.057602
      4 C                    -0.473661
      5 C                     0.832289
      6 O                    -0.610444
      7 O                    -0.766226
      8 H                     0.168174
      9 C                     0.976913
     10 C                    -1.410035
     11 C                     1.331999
     12 C                     0.673213
     13 C                    -1.086783
     14 C                    -0.532548
     15 C                    -0.308669
     16 C                    -0.519620
     17 O                    -0.370150
     18 C                    -0.531184
     19 H                     0.213206
     20 H                     0.178535
     21 H                     0.206416
     22 H                     0.193055
     23 H                     0.210959
     24 H                     0.165197
     25 H                     0.161498
     26 H                     0.155979
     27 H                     0.146866
  ----------------------------------------
  Sum of atomic charges =    -2.000000

                    Cartesian Multipole Moments
 -----------------------------------------------------------------
    Charge (ESU x 10^10)
                -9.6064
    Dipole Moment (Debye)
         X     -17.1348      Y       0.1169      Z       3.2391
       Tot      17.4387
    Quadrupole Moments (Debye-Ang)
        XX    -183.2399     XY       8.3019     YY    -131.1462
        XZ     -14.6512     YZ       8.8766     ZZ    -116.1160

 Total job time:  71.75s(wall), 548.31s(cpu)
        *  Thank you very much for using Q-Chem.  Have a nice day.  *
