 Gaussian 16, Revision A.03,
 Gaussian 16:  ES64L-G16RevA.03 25-Dec-2016

 ----------------------------------------------------------------------
 #P UB3LYP/6-311++G(d,p) nosym opt freq SCRF=(PCM,Solvent=n,n-DiMethylF
 ormamide)
 ----------------------------------------------------------------------

 -------
 Radical
 -------
 Symbolic Z-matrix:
 Charge = -1 Multiplicity = 2

 SCF Done:  E(UB3LYP) =  -617.669347184     A.U. after   19 cycles
 SCF Done:  E(UB3LYP) =  -617.669772703     A.U. after   17 cycles
 SCF Done:  E(UB3LYP) =  -617.669839241     A.U. after   15 cycles
 SCF Done:  E(UB3LYP) =  -617.669843568     A.U. after   14 cycles
 SCF Done:  E(UB3LYP) =  -617.669860566     A.U. after   12 cycles
 SCF Done:  E(UB3LYP) =  -617.669866749     A.U. after   12 cycles
 SCF Done:  E(UB3LYP) =  -617.669871650     A.U. after   15 cycles
 SCF Done:  E(UB3LYP) =  -617.669874268     A.U. after   12 cycles
 SCF Done:  E(UB3LYP) =  -617.669874804     A.U. after   10 cycles
 SCF Done:  E(UB3LYP) =  -617.669874895     A.U. after   10 cycles
 Optimization completed.
    -- Stationary point found.
 Normal termination of Gaussian 16 at Sat Feb 10 10:56:58 2024.

 ----------------------------------------------------------------------
 #P Geom=AllCheck Guess=TCheck SCRF=Check GenChk UB3LYP/6-311++G(d,p) F
 req
 ----------------------------------------------------------------------

 Structure from the checkpoint file:  "047-rad.chk"
 -------
 Radical
 -------
 Charge = -1 Multiplicity = 2

                          Input orientation:
 ---------------------------------------------------------------------
 Center     Atomic      Atomic             Coordinates (Angstroms)
 Number     Number       Type             X           Y           Z
 ---------------------------------------------------------------------
      1          6           0        2.807767    1.288183    0.996898
      2          6           0        2.366088    0.556651   -0.287957
      3          6           0        3.550026   -0.192393   -0.916722
      4          6           0        1.151303   -0.317087   -0.016452
      5          6           0        1.265239   -1.627334    0.376047
      6          6           0        0.126820   -2.458971    0.674776
      7          8           0        0.253655   -3.674599    1.042096
      8          6           0       -1.164079   -1.834529    0.532111
      9          6           0       -1.334972   -0.528216    0.140762
     10          6           0       -2.745801    0.033156    0.017671
     11          6           0       -3.024420    1.172355    1.017090
     12          6           0       -3.097567    0.454112   -1.422091
     13          6           0       -0.168764    0.302510   -0.150541
     14          8           0       -0.286411    1.515950   -0.510101
     15          1           0        3.625662    1.984959    0.785492
     16          1           0        3.158907    0.572467    1.747658
     17          1           0        1.981898    1.856818    1.431025
     18          1           0        2.037212    1.323817   -0.994421
     19          1           0        4.344730    0.513559   -1.176769
     20          1           0        3.252614   -0.716556   -1.829429
     21          1           0        3.981348   -0.928758   -0.231771
     22          1           0        2.240963   -2.093120    0.477627
     23          1           0       -2.031997   -2.452737    0.750361
     24          1           0       -3.419335   -0.791187    0.280889
     25          1           0       -2.396885    2.039194    0.804880
     26          1           0       -4.073666    1.480269    0.957653
     27          1           0       -2.828372    0.848996    2.043852
     28          1           0       -4.146428    0.763341   -1.481066
     29          1           0       -2.954043   -0.377096   -2.119098
     30          1           0       -2.471493    1.286247   -1.747330
 ---------------------------------------------------------------------

 SCF Done:  E(UB3LYP) =  -617.669874895     A.U. after    2 cycles

 Alpha  occ. eigenvalues --  -19.06953 -19.06899 -10.21209 -10.21123 -10.16913
 Alpha  occ. eigenvalues --  -10.16634 -10.16474 -10.16412 -10.15179 -10.15172
 Alpha  occ. eigenvalues --  -10.15148 -10.15099 -10.14722 -10.14704  -0.98964
 Alpha  occ. eigenvalues --   -0.98443  -0.82708  -0.80318  -0.76790  -0.71785
 Alpha  occ. eigenvalues --   -0.67889  -0.67433  -0.67042  -0.61384  -0.59498
 Alpha  occ. eigenvalues --   -0.54107  -0.53196  -0.48191  -0.45965  -0.44393
 Alpha  occ. eigenvalues --   -0.44013  -0.42819  -0.42245  -0.41433  -0.40070
 Alpha  occ. eigenvalues --   -0.39917  -0.38813  -0.38162  -0.37765  -0.37441
 Alpha  occ. eigenvalues --   -0.36887  -0.35815  -0.33989  -0.33714  -0.33271
 Alpha  occ. eigenvalues --   -0.32708  -0.32270  -0.31595  -0.26941  -0.24161
 Alpha  occ. eigenvalues --   -0.23506  -0.22757  -0.15554
 Alpha virt. eigenvalues --   -0.00416  -0.00117   0.00451   0.01201   0.01326
 Alpha virt. eigenvalues --    0.02434   0.02665   0.02786   0.03479   0.03951
 Alpha virt. eigenvalues --    0.04546   0.04763   0.05040   0.05490   0.05801

  Beta  occ. eigenvalues --  -19.06279 -19.06185 -10.21047 -10.20977 -10.16921
  Beta  occ. eigenvalues --  -10.16644 -10.16352 -10.16292 -10.15162 -10.15146
  Beta  occ. eigenvalues --  -10.15088 -10.15016 -10.14716 -10.14698  -0.97715
  Beta  occ. eigenvalues --   -0.97233  -0.82222  -0.80213  -0.76572  -0.71595
  Beta  occ. eigenvalues --   -0.67808  -0.67414  -0.66103  -0.61113  -0.59260
  Beta  occ. eigenvalues --   -0.53855  -0.52947  -0.48012  -0.45564  -0.44303
  Beta  occ. eigenvalues --   -0.43837  -0.42786  -0.42087  -0.40763  -0.39909
  Beta  occ. eigenvalues --   -0.39339  -0.38490  -0.37938  -0.37139  -0.36764
  Beta  occ. eigenvalues --   -0.36478  -0.34051  -0.33753  -0.33637  -0.32682
  Beta  occ. eigenvalues --   -0.32439  -0.32208  -0.31360  -0.23715  -0.23439
  Beta  occ. eigenvalues --   -0.22877  -0.22141
  Beta virt. eigenvalues --   -0.08308  -0.00394   0.00437   0.01094   0.01372
  Beta virt. eigenvalues --    0.01431   0.02457   0.02698   0.02822   0.03891
  Beta virt. eigenvalues --    0.04537   0.04704   0.05066   0.05438   0.05680

 Mulliken charges and spin densities:
               1          2
     1  C   -0.690178   0.008833
     2  C    0.231460   0.002213
     3  C   -0.595503   0.001231
     4  C    1.095810   0.080807
     5  C   -0.316674   0.087697
     6  C   -0.453102   0.130872
     7  O   -0.535397   0.233880
     8  C   -0.353626   0.033199
     9  C    0.854134   0.057591
    10  C    0.259846  -0.004998
    11  C   -0.669836   0.005826
    12  C   -0.674579   0.006729
    13  C   -1.199500   0.106717
    14  O   -0.433750   0.262523
    15  H    0.136490   0.001684
    16  H    0.153030  -0.001125
    17  H    0.167165  -0.001196
    18  H    0.198127   0.000800
    19  H    0.158621  -0.000434
    20  H    0.132161  -0.000126
    21  H    0.137840  -0.000198
    22  H    0.162297  -0.004545
    23  H    0.172744  -0.007174
    24  H    0.167614  -0.000667
    25  H    0.177874  -0.000935
    26  H    0.142091   0.000465
    27  H    0.126685   0.000451
    28  H    0.141518   0.000361
    29  H    0.126087   0.000449
    30  H    0.180551  -0.000929
 Sum of Mulliken charges =  -1.00000   1.00000

 Dipole moment (field-independent basis, Debye):
    X=             -0.0290    Y=              6.5829    Z=             -1.7211  Tot=              6.8042
 Quadrupole moment (field-independent basis, Debye-Ang):
   XX=            -88.7612   YY=           -136.3699   ZZ=            -95.6723
   XY=              4.8153   XZ=             -1.6943   YZ=             12.5823

  Exact polarizability: 237.746  -9.798 297.012   1.399 -37.688 170.613
 Approx polarizability: 235.728 -12.076 336.985   2.386 -48.648 184.959

                      1                      2                      3
                      A                      A                      A
 Frequencies --     31.9941                59.9853                73.8117
 Red. masses --      2.8463                 2.7544                 4.3566
 Frc consts  --      0.0017                 0.0058                 0.0140
 IR Inten    --      2.1153                 1.8250                 4.8077

                      4                      5                      6
                      A                      A                      A
 Frequencies --    133.3196               149.8052               151.7197
 Red. masses --      4.1433                 3.1637                 3.7194
 Frc consts  --      0.0434                 0.0418                 0.0504
 IR Inten    --      5.6528                 4.5823                 8.5295

                      7                      8                      9
                      A                      A                      A
 Frequencies --    210.1575               219.1944               236.4662
 Red. masses --      2.3307                 1.1344                 1.1151
 Frc consts  --      0.0607                 0.0321                 0.0367
 IR Inten    --      0.2565                 0.8513                 1.1313

                     10                     11                     12
                      A                      A                      A
 Frequencies --    246.8226               261.3956               271.5656
 Red. masses --      1.2317                 1.2468                 2.7672
 Frc consts  --      0.0442                 0.0502                 0.1202
 IR Inten    --      0.0779                 0.3342                 1.2567

                     13                     14                     15
                      A                      A                      A
 Frequencies --    277.0906               285.3755               310.8061
 Red. masses --      2.7309                 3.4375                 3.3749
 Frc consts  --      0.1235                 0.1649                 0.1921
 IR Inten    --      2.8165                 3.0253                 5.6778

                     16                     17                     18
                      A                      A                      A
 Frequencies --    406.6453               418.5049               433.9389
 Red. masses --      4.2880                 3.1062                 3.7987
 Frc consts  --      0.4178                 0.3205                 0.4214
 IR Inten    --     28.6624                 0.5575                 2.1575

                     19                     20                     21
                      A                      A                      A
 Frequencies --    451.8208               475.3343               514.5589
 Red. masses --      3.2722                 6.2357                 3.6827
 Frc consts  --      0.3936                 0.8301                 0.5745
 IR Inten    --      1.6303                 0.0569                 1.0023

                     22                     23                     24
                      A                      A                      A
 Frequencies --    559.8180               607.0000               665.1637
 Red. masses --      3.9707                 3.7838                 3.2002
 Frc consts  --      0.7332                 0.8214                 0.8342
 IR Inten    --      8.6572                 0.4843                 0.0688

                     25                     26                     27
                      A                      A                      A
 Frequencies --    681.2015               799.3375               804.0250
 Red. masses --      3.4815                 6.9081                 4.9554
 Frc consts  --      0.9518                 2.6006                 1.8874
 IR Inten    --      0.8136                16.4203                28.3029

                     28                     29                     30
                      A                      A                      A
 Frequencies --    821.1421               865.9825               871.9120
 Red. masses --      3.8885                 2.5600                 1.4348
 Frc consts  --      1.5448                 1.1311                 0.6427
 IR Inten    --     56.0886                 4.1826                 1.0073

                     31                     32                     33
                      A                      A                      A
 Frequencies --    889.3568               924.0238               927.0061
 Red. masses --      1.6540                 1.1600                 1.1819
 Frc consts  --      0.7708                 0.5835                 0.5984
 IR Inten    --     66.8387                 3.6047                 2.1518

                     34                     35                     36
                      A                      A                      A
 Frequencies --    936.6371               959.3992               960.2076
 Red. masses --      2.3794                 1.5478                 1.5341
 Frc consts  --      1.2298                 0.8394                 0.8333
 IR Inten    --     22.9670                 0.0245                 1.8372

                     37                     38                     39
                      A                      A                      A
 Frequencies --    968.4514              1065.7702              1102.4516
 Red. masses --      2.6722                 1.8296                 1.5687
 Frc consts  --      1.4767                 1.2244                 1.1233
 IR Inten    --      2.3601                97.9555                 7.6585

                     40                     41                     42
                      A                      A                      A
 Frequencies --   1115.0577              1116.2817              1150.7981
 Red. masses --      2.3609                 2.3226                 2.1697
 Frc consts  --      1.7295                 1.7052                 1.6929
 IR Inten    --      4.4904                14.2185                39.4513

                     43                     44                     45
                      A                      A                      A
 Frequencies --   1169.4144              1199.9306              1218.4900
 Red. masses --      2.1710                 2.0694                 1.8699
 Frc consts  --      1.7492                 1.7555                 1.6358
 IR Inten    --      0.4455                18.1773                14.7412

                     46                     47                     48
                      A                      A                      A
 Frequencies --   1259.1755              1299.6857              1340.0577
 Red. masses --      1.9413                 1.9508                 1.3567
 Frc consts  --      1.8135                 1.9415                 1.4354
 IR Inten    --     11.8539                19.8908                 2.1633

                     49                     50                     51
                      A                      A                      A
 Frequencies --   1346.2530              1349.2387              1375.8714
 Red. masses --      1.3016                 1.8058                 1.2248
 Frc consts  --      1.3899                 1.9369                 1.3660
 IR Inten    --      4.3046                 3.6869                 8.3391

                     52                     53                     54
                      A                      A                      A
 Frequencies --   1378.2886              1387.0867              1393.4381
 Red. masses --      1.4764                 1.2875                 1.2913
 Frc consts  --      1.6525                 1.4595                 1.4772
 IR Inten    --     30.6619                20.9236                13.3029

                     55                     56                     57
                      A                      A                      A
 Frequencies --   1405.9285              1437.3324              1470.0769
 Red. masses --      1.2323                 3.7876                 4.3885
 Frc consts  --      1.4351                 4.6103                 5.5878
 IR Inten    --      1.1702                43.9436                35.1576

                     58                     59                     60
                      A                      A                      A
 Frequencies --   1474.4923              1477.9733              1479.3674
 Red. masses --      1.0422                 1.3422                 1.4647
 Frc consts  --      1.3350                 1.7274                 1.8886
 IR Inten    --      1.0089               385.0713               437.6260

                     61                     62                     63
                      A                      A                      A
 Frequencies --   1483.1054              1489.8676              1492.7445
 Red. masses --      1.0857                 1.0510                 1.4687
 Frc consts  --      1.4071                 1.3744                 1.9282
 IR Inten    --     40.8992                 3.9958               339.7246

                     64                     65                     66
                      A                      A                      A
 Frequencies --   1493.5675              1499.6025              1504.9221
 Red. masses --      1.0674                 1.1059                 1.2111
 Frc consts  --      1.4029                 1.4653                 1.6161
 IR Inten    --      4.7828                40.0134               125.2956

                     67                     68                     69
                      A                      A                      A
 Frequencies --   1526.2360              1639.3303              3002.2910
 Red. masses --      4.4567                 6.7340                 1.0812
 Frc consts  --      6.1165                10.6624                 5.7422
 IR Inten    --     10.7854                72.5090                40.2362

                     70                     71                     72
                      A                      A                      A
 Frequencies --   3009.2880              3013.1343              3016.7832
 Red. masses --      1.0353                 1.0372                 1.0354
 Frc consts  --      5.5237                 5.5481                 5.5521
 IR Inten    --     62.6094                73.4241                76.7048

                     73                     74                     75
                      A                      A                      A
 Frequencies --   3018.6318              3039.1794              3067.8114
 Red. masses --      1.0395                 1.0841                 1.1021
 Frc consts  --      5.5807                 5.9000                 6.1111
 IR Inten    --     77.4866                 1.0476                16.0915

                     76                     77                     78
                      A                      A                      A
 Frequencies --   3068.9107              3070.4839              3076.7233
 Red. masses --      1.1013                 1.1006                 1.0999
 Frc consts  --      6.1114                 6.1138                 6.1343
 IR Inten    --     42.3572               107.6200               137.5378

                     79                     80                     81
                      A                      A                      A
 Frequencies --   3081.7830              3089.2114              3106.2839
 Red. masses --      1.1015                 1.1003                 1.0996
 Frc consts  --      6.1637                 6.1868                 6.2515
 IR Inten    --     62.8911                50.1013                 4.5616

                     82                     83                     84
                      A                      A                      A
 Frequencies --   3109.5403              3132.9597              3151.7852
 Red. masses --      1.0991                 1.0890                 1.0885
 Frc consts  --      6.2614                 6.2975                 6.3710
 IR Inten    --     50.9959                55.6748                37.2444

 - Thermochemistry -
 -------------------
 Temperature   298.150 Kelvin.  Pressure   1.00000 Atm.
 Atom     1 has atomic number  6 and mass  12.00000

 Molecular mass:   192.11503 amu.
 Principal axes and moments of inertia in atomic units:
                           1         2         3
     Eigenvalues --  2034.014823457.451624778.16013
           X            0.99576   0.09195   0.00196
           Y           -0.09008   0.97076   0.22253
           Z            0.01856  -0.22176   0.97492
 This molecule is an asymmetric top.
 Rotational symmetry number  1.
 Warning -- assumption of classical behavior for rotation
           may cause significant error
 Rotational temperatures (Kelvin)      0.04258     0.02505     0.01813
 Rotational constants (GHZ):           0.88728     0.52199     0.37771
 Zero-point vibrational energy     658290.7 (Joules/Mol)
                                  157.33526 (Kcal/Mol)
 Warning -- explicit consideration of  23 degrees of freedom as
           vibrations may cause significant error
 Vibrational temperatures:     46.03    86.31   106.20   191.82   215.54
          (Kelvin)            218.29   302.37   315.37   340.22   355.12
                              376.09   390.72   398.67   410.59   447.18
                              585.07   602.14   624.34   650.07   683.90
                              740.34   805.45   873.34   957.02   980.10
                             1150.07  1156.81  1181.44  1245.96  1254.49
                             1279.59  1329.46  1333.76  1347.61  1380.36
                             1381.52  1393.39  1533.41  1586.18  1604.32
                             1606.08  1655.74  1682.53  1726.43  1753.14
                             1811.67  1869.96  1928.04  1936.96  1941.25
                             1979.57  1983.05  1995.71  2004.85  2022.82
                             2068.00  2115.11  2121.47  2126.47  2128.48
                             2133.86  2143.59  2147.73  2148.91  2157.59
                             2165.25  2195.91  2358.63  4319.63  4329.69
                             4335.23  4340.48  4343.14  4372.70  4413.90
                             4415.48  4417.74  4426.72  4434.00  4444.69
                             4469.25  4473.93  4507.63  4534.72

 Zero-point correction=                           0.250730 (Hartree/Particle)
 Thermal correction to Energy=                    0.265474
 Thermal correction to Enthalpy=                  0.266418
 Thermal correction to Gibbs Free Energy=         0.208629
 Sum of electronic and zero-point Energies=           -617.419145
 Sum of electronic and thermal Energies=              -617.404401
 Sum of electronic and thermal Enthalpies=            -617.403456
 Sum of electronic and thermal Free Energies=         -617.461246

                     E (Thermal)             CV                S
                      KCal/Mol        Cal/Mol-Kelvin    Cal/Mol-Kelvin
 Total                  166.588             55.787            121.627
 Electronic               0.000              0.000              1.377
 Translational            0.889              2.981             41.664
 Rotational               0.889              2.981             31.886
 Vibrational            164.810             49.825             46.700
 Vibration     1          0.594              1.983              5.702
 Vibration     2          0.597              1.973              4.458
 Vibration     3          0.599              1.966              4.049
 Vibration     4          0.613              1.920              2.898
 Vibration     5          0.618              1.903              2.675
 Vibration     6          0.619              1.901              2.651
 Vibration     7          0.642              1.825              2.042
 Vibration     8          0.647              1.812              1.966
 Vibration     9          0.655              1.785              1.829
 Vibration    10          0.661              1.768              1.753
 Vibration    11          0.669              1.743              1.652
 Vibration    12          0.675              1.726              1.586
 Vibration    13          0.678              1.716              1.552
 Vibration    14          0.683              1.701              1.501
 Vibration    15          0.700              1.653              1.358
 Vibration    16          0.771              1.456              0.939
 Vibration    17          0.781              1.430              0.897
 Vibration    18          0.795              1.396              0.846
 Vibration    19          0.810              1.357              0.790
 Vibration    20          0.832              1.305              0.723
 Vibration    21          0.870              1.218              0.623
 Vibration    22          0.915              1.118              0.524
 Vibration    23          0.966              1.017              0.438

 Optimization completed.
    -- Stationary point found.
 Normal termination of Gaussian 16 at Sat Feb 10 12:01:10 2024.
