 Q-Chem 5.4, Q-Chem, Inc., Pleasanton, CA (2021)
 Q-Chem 5.4.0 for Intel X86 EM64T Linux

User input:
--------------------------------------------------------------
$molecule
-1 2
C                 -3.1122970000     -3.2085940000     -0.8264440000
C                 -2.1109130000     -2.1476330000     -0.9525590000
C                 -2.4860540000     -0.8235650000     -0.8203650000
C                 -3.8331430000     -0.3862530000     -0.5364410000
C                 -4.8107030000     -1.4490800000     -0.4162500000
C                 -4.4660370000     -2.7639010000     -0.5573420000
O                 -2.8321610000     -4.4363580000     -0.9274600000
O                 -4.1378110000      0.8361620000     -0.4121300000
C                 -0.6893160000     -2.4783720000     -1.1735300000
C                 -0.0794400000     -3.4438610000     -2.0693460000
C                  0.3565610000     -1.8201540000     -0.5715510000
C                  1.3308840000     -3.2931680000     -1.9664460000
N                  1.5705740000     -2.2917670000     -1.0496280000
C                 -0.5832080000     -4.4007000000     -2.9655460000
C                  0.3036700000     -5.1604000000     -3.7165430000
C                  1.6976490000     -4.9952370000     -3.5939250000
C                  2.2285410000     -4.0598980000     -2.7149650000
H                 -1.7502640000     -0.0350250000     -0.9514650000
H                 -5.8363190000     -1.1528180000     -0.2122000000
H                 -5.2080000000     -3.5524070000     -0.4633230000
H                  0.3254500000     -1.0406730000      0.1735300000
H                  2.4747680000     -2.0161430000     -0.7085640000
H                 -1.6510950000     -4.5611320000     -3.0237720000
H                 -0.0819280000     -5.9075640000     -4.4025350000
H                  2.3657710000     -5.6093920000     -4.1892220000
H                  3.3018590000     -3.9281860000     -2.6157270000
$end

$rem
BASIS  =  6-311++G(d,p)
GUI  =  2
JOB_TYPE  =  SP
METHOD  =  B3LYP
SCF_CONVERGENCE  = 8
SOLVENT_METHOD = sm12
$end

$smx
solvent dimethylformamide
charges CM5
$end

--------------------------------------------------------------

             Standard Nuclear Orientation (Angstroms)
    I     Atom           X                Y                Z
 ----------------------------------------------------------------
    1      C      -3.1122970000    -3.2085940000    -0.8264440000
    2      C      -2.1109130000    -2.1476330000    -0.9525590000
    3      C      -2.4860540000    -0.8235650000    -0.8203650000
    4      C      -3.8331430000    -0.3862530000    -0.5364410000
    5      C      -4.8107030000    -1.4490800000    -0.4162500000
    6      C      -4.4660370000    -2.7639010000    -0.5573420000
    7      O      -2.8321610000    -4.4363580000    -0.9274600000
    8      O      -4.1378110000     0.8361620000    -0.4121300000
    9      C      -0.6893160000    -2.4783720000    -1.1735300000
   10      C      -0.0794400000    -3.4438610000    -2.0693460000
   11      C       0.3565610000    -1.8201540000    -0.5715510000
   12      C       1.3308840000    -3.2931680000    -1.9664460000
   13      N       1.5705740000    -2.2917670000    -1.0496280000
   14      C      -0.5832080000    -4.4007000000    -2.9655460000
   15      C       0.3036700000    -5.1604000000    -3.7165430000
   16      C       1.6976490000    -4.9952370000    -3.5939250000
   17      C       2.2285410000    -4.0598980000    -2.7149650000
   18      H      -1.7502640000    -0.0350250000    -0.9514650000
   19      H      -5.8363190000    -1.1528180000    -0.2122000000
   20      H      -5.2080000000    -3.5524070000    -0.4633230000
   21      H       0.3254500000    -1.0406730000     0.1735300000
   22      H       2.4747680000    -2.0161430000    -0.7085640000
   23      H      -1.6510950000    -4.5611320000    -3.0237720000
   24      H      -0.0819280000    -5.9075640000    -4.4025350000
   25      H       2.3657710000    -5.6093920000    -4.1892220000
   26      H       3.3018590000    -3.9281860000    -2.6157270000
 ----------------------------------------------------------------

   18    -744.3498167813      3.11e-09  Convergence criterion met
 Total energy in the final basis set =     -744.4503188438

                    Orbital Energies (a.u.)
 --------------------------------------------------------------

 Alpha MOs
 -- Occupied --
-19.0761 -19.0750 -14.3647 -10.2227 -10.2199 -10.2141 -10.2108 -10.1841
-10.1838 -10.1800 -10.1797 -10.1784 -10.1753 -10.1739 -10.1708 -10.1700
-10.1661  -0.9988  -0.9938  -0.9886  -0.8502  -0.8332  -0.7982  -0.7540
 -0.7445  -0.7214  -0.6852  -0.6345  -0.6244  -0.6020  -0.5851  -0.5570
 -0.5387  -0.4925  -0.4838  -0.4749  -0.4706  -0.4525  -0.4403  -0.4389
 -0.4307  -0.4171  -0.4106  -0.4021  -0.4015  -0.3777  -0.3731  -0.3677
 -0.3643  -0.3474  -0.3465  -0.3025  -0.2805  -0.2648  -0.2417  -0.2372
 -0.2361  -0.2129  -0.1630

 Beta MOs
 -- Occupied --
-19.0686 -19.0677 -14.3646 -10.2216 -10.2190 -10.2141 -10.2106 -10.1841
-10.1826 -10.1799 -10.1797 -10.1785 -10.1753 -10.1739 -10.1697 -10.1689
-10.1651  -0.9890  -0.9853  -0.9809  -0.8501  -0.8283  -0.7961  -0.7524
 -0.7443  -0.7203  -0.6753  -0.6339  -0.6216  -0.6014  -0.5820  -0.5560
 -0.5371  -0.4919  -0.4833  -0.4731  -0.4666  -0.4505  -0.4394  -0.4377
 -0.4301  -0.4161  -0.4060  -0.3946  -0.3886  -0.3735  -0.3672  -0.3620
 -0.3481  -0.3467  -0.3416  -0.2979  -0.2597  -0.2483  -0.2381  -0.2326
 -0.2299  -0.2088

          Ground-State Mulliken Net Atomic Charges

     Atom                 Charge (a.u.)    Spin (a.u.)
  --------------------------------------------------------
      1 C                    -1.921297       0.025944
      2 C                     1.390969       0.108809
      3 C                    -1.420460       0.030161
      4 C                    -0.999156       0.099157
      5 C                    -0.151424       0.088664
      6 C                     0.222979       0.109213
      7 O                    -0.314985       0.274068
      8 O                    -0.394694       0.260551
      9 C                    -1.624234       0.018766
     10 C                    -0.138957      -0.057493
     11 C                     1.376747       0.026810
     12 C                     0.901571      -0.009337
     13 N                     0.143570       0.003387
     14 C                    -2.314415       0.041644
     15 C                    -0.199763       0.005336
     16 C                     0.713537       0.000642
     17 C                     1.194101      -0.001343
     18 H                     0.128495      -0.007704
     19 H                     0.215162      -0.007179
     20 H                     0.225503      -0.007742
     21 H                     0.437337      -0.001727
     22 H                     0.572208      -0.000059
     23 H                    -0.005660      -0.000472
     24 H                     0.276209      -0.000126
     25 H                     0.345405       0.000057
     26 H                     0.341251      -0.000029
  --------------------------------------------------------
  Sum of atomic charges =    -1.000000

                    Cartesian Multipole Moments
 -----------------------------------------------------------------
    Charge (ESU x 10^10)
                -4.8032
    Dipole Moment (Debye)
         X      18.1209      Y       9.7429      Z       5.0653
       Tot      21.1884
    Quadrupole Moments (Debye-Ang)
        XX    -152.9223     XY     -20.1574     YY    -159.9819
        XZ      -9.4031     YZ     -12.3688     ZZ    -112.3095

 Total job time:  610.20s(wall), 4710.67s(cpu)
        *  Thank you very much for using Q-Chem.  Have a nice day.  *
