 Q-Chem 5.4, Q-Chem, Inc., Pleasanton, CA (2021)
 Q-Chem 5.4.0 for Intel X86 EM64T Linux

User input:
--------------------------------------------------------------
$molecule
-2 1
C                 -1.2386430000      2.8664750000     -0.0378440000
C                 -2.5353870000      2.3950280000      0.0443580000
C                 -2.7756720000      0.9982700000      0.1089520000
C                 -0.1219960000      1.9956860000     -0.0623790000
C                 -0.3692330000      0.5755450000      0.0039360000
C                 -1.7032540000      0.1233200000      0.0872470000
C                  1.2167830000      2.5690810000     -0.1407540000
C                  2.2591790000      1.5792930000     -0.1550300000
C                  2.0256150000      0.2019570000     -0.0947060000
C                  0.7282490000     -0.3873770000     -0.0146930000
O                  1.4290850000      3.8289220000     -0.1923110000
O                  0.5379170000     -1.6546920000      0.0380420000
H                 -1.0251830000      3.9297420000     -0.0880440000
H                 -1.8484570000     -0.9519080000      0.1347200000
O                  3.5493600000      2.0998610000     -0.2540110000
C                  4.6276780000      1.2712140000      0.1221230000
C                  5.8549920000      2.1204740000      0.2913270000
C                  7.0826970000      1.7695980000     -0.0902280000
H                 -3.3706700000      3.0932660000      0.0588880000
H                 -3.7941820000      0.6199320000      0.1739930000
H                  2.8533450000     -0.4992190000     -0.1224450000
H                  4.8119730000      0.4752300000     -0.6131430000
H                  4.3973440000      0.7755850000      1.0806460000
H                  5.6829760000      3.0726280000      0.7883600000
H                  7.2690480000      0.8302840000     -0.6067210000
H                  7.9525490000      2.3935130000      0.0908240000
$end

$rem
BASIS  =  6-311++G(d,p)
GUI  =  2
JOB_TYPE  =  SP
METHOD  =  B3LYP
SCF_CONVERGENCE  = 8
SOLVENT_METHOD = sm12
$end

$smx
solvent dimethylformamide
charges CM5
$end

--------------------------------------------------------------

             Standard Nuclear Orientation (Angstroms)
    I     Atom           X                Y                Z
 ----------------------------------------------------------------
    1      C      -1.2386430000     2.8664750000    -0.0378440000
    2      C      -2.5353870000     2.3950280000     0.0443580000
    3      C      -2.7756720000     0.9982700000     0.1089520000
    4      C      -0.1219960000     1.9956860000    -0.0623790000
    5      C      -0.3692330000     0.5755450000     0.0039360000
    6      C      -1.7032540000     0.1233200000     0.0872470000
    7      C       1.2167830000     2.5690810000    -0.1407540000
    8      C       2.2591790000     1.5792930000    -0.1550300000
    9      C       2.0256150000     0.2019570000    -0.0947060000
   10      C       0.7282490000    -0.3873770000    -0.0146930000
   11      O       1.4290850000     3.8289220000    -0.1923110000
   12      O       0.5379170000    -1.6546920000     0.0380420000
   13      H      -1.0251830000     3.9297420000    -0.0880440000
   14      H      -1.8484570000    -0.9519080000     0.1347200000
   15      O       3.5493600000     2.0998610000    -0.2540110000
   16      C       4.6276780000     1.2712140000     0.1221230000
   17      C       5.8549920000     2.1204740000     0.2913270000
   18      C       7.0826970000     1.7695980000    -0.0902280000
   19      H      -3.3706700000     3.0932660000     0.0588880000
   20      H      -3.7941820000     0.6199320000     0.1739930000
   21      H       2.8533450000    -0.4992190000    -0.1224450000
   22      H       4.8119730000     0.4752300000    -0.6131430000
   23      H       4.3973440000     0.7755850000     1.0806460000
   24      H       5.6829760000     3.0726280000     0.7883600000
   25      H       7.2690480000     0.8302840000    -0.6067210000
   26      H       7.9525490000     2.3935130000     0.0908240000
 ----------------------------------------------------------------

   18    -727.1872130443      4.73e-09  Convergence criterion met
 Total energy in the final basis set =     -727.4796688618

                    Orbital Energies (a.u.)
 --------------------------------------------------------------

 Alpha MOs
 -- Occupied --
-19.1331 -19.0250 -19.0176 -10.2264 -10.1956 -10.1858 -10.1845 -10.1784
-10.1743 -10.1741 -10.1719 -10.1700 -10.1679 -10.1505 -10.1497 -10.1378
 -1.0456  -0.9427  -0.9362  -0.8432  -0.8007  -0.7747  -0.7420  -0.7228
 -0.6924  -0.6445  -0.6085  -0.5921  -0.5689  -0.5475  -0.5138  -0.4992
 -0.4821  -0.4716  -0.4505  -0.4446  -0.4314  -0.4226  -0.4095  -0.3951
 -0.3866  -0.3763  -0.3622  -0.3604  -0.3478  -0.3412  -0.3315  -0.3276
 -0.3138  -0.2982  -0.2714  -0.2484  -0.2339  -0.2152  -0.2021  -0.1956
 -0.1141

          Ground-State Mulliken Net Atomic Charges

     Atom                 Charge (a.u.)
  ----------------------------------------
      1 C                    -0.435802
      2 C                     1.158042
      3 C                     1.180556
      4 C                    -1.656850
      5 C                    -1.846865
      6 C                    -0.283145
      7 C                    -1.483834
      8 C                     0.837106
      9 C                     0.147420
     10 C                    -1.745965
     11 O                    -0.412719
     12 O                    -0.381920
     13 H                     0.069215
     14 H                     0.076806
     15 O                    -0.039895
     16 C                    -0.877863
     17 C                     1.267450
     18 C                     0.651968
     19 H                     0.389258
     20 H                     0.392715
     21 H                     0.086223
     22 H                     0.051001
     23 H                     0.094979
     24 H                     0.172442
     25 H                     0.259542
     26 H                     0.330134
  ----------------------------------------
  Sum of atomic charges =    -2.000000

                    Cartesian Multipole Moments
 -----------------------------------------------------------------
    Charge (ESU x 10^10)
                -9.6064
    Dipole Moment (Debye)
         X      -4.4898      Y     -12.1120      Z       0.9085
       Tot      12.9493
    Quadrupole Moments (Debye-Ang)
        XX    -126.6952     XY     -14.3239     YY    -174.0974
        XZ       2.2971     YZ       4.9219     ZZ    -107.9539

 Total job time:  565.78s(wall), 3995.94s(cpu)
        *  Thank you very much for using Q-Chem.  Have a nice day.  *
