 Gaussian 16, Revision A.03,
 Gaussian 16:  ES64L-G16RevA.03 25-Dec-2016

 --------------------------------------
 #P UB3LYP/6-311++G(d,p) nosym opt freq
 --------------------------------------

 -------
 Reduced
 -------
 Symbolic Z-matrix:
 Charge = -2 Multiplicity = 1

 SCF Done:  E(UB3LYP) =  -650.724383682     A.U. after   59 cycles
 SCF Done:  E(UB3LYP) =  -650.748485806     A.U. after   34 cycles
 SCF Done:  E(UB3LYP) =  -650.750057820     A.U. after   33 cycles
 SCF Done:  E(UB3LYP) =  -650.750266802     A.U. after   30 cycles
 SCF Done:  E(UB3LYP) =  -650.750318020     A.U. after   30 cycles
 SCF Done:  E(UB3LYP) =  -650.750334287     A.U. after   27 cycles
 SCF Done:  E(UB3LYP) =  -650.750344277     A.U. after   27 cycles
 SCF Done:  E(UB3LYP) =  -650.750347961     A.U. after   28 cycles
 SCF Done:  E(UB3LYP) =  -650.750348368     A.U. after   27 cycles
 Optimization completed.
    -- Stationary point found.
 Normal termination of Gaussian 16 at Sat Jan  6 02:42:00 2024.

 ----------------------------------------------------------------------
 #P Geom=AllCheck Guess=TCheck SCRF=Check GenChk UB3LYP/6-311++G(d,p) F
 req
 ----------------------------------------------------------------------

 Structure from the checkpoint file:  "335-an.chk"
 -------
 Reduced
 -------
 Charge = -2 Multiplicity = 1

                          Input orientation:
 ---------------------------------------------------------------------
 Center     Atomic      Atomic             Coordinates (Angstroms)
 Number     Number       Type             X           Y           Z
 ---------------------------------------------------------------------
      1          8           0        0.126379    0.316784    2.702964
      2          6           0        0.067396    0.120719    1.451907
      3          6           0       -1.193283    0.053482    0.729337
      4          6           0       -2.446002    0.239781    1.373544
      5          6           0       -3.642652    0.152867    0.668200
      6          6           0       -3.644344   -0.073738   -0.710840
      7          6           0       -2.414426   -0.202395   -1.384787
      8          6           0       -1.226464   -0.152135   -0.669857
      9          8           0       -0.066515   -0.340369   -1.392044
     10          6           0        1.157436   -0.172559   -0.778893
     11          6           0        2.274254   -0.242350   -1.599150
     12          6           0        3.562499   -0.135245   -1.040279
     13          6           0        3.690508    0.089983    0.333034
     14          6           0        2.564816    0.196536    1.144521
     15          6           0        1.255625    0.032324    0.617337
     16          1           0       -2.426663    0.433420    2.439797
     17          1           0       -4.589978    0.264530    1.192708
     18          1           0       -4.578295   -0.149394   -1.261563
     19          1           0       -2.372845   -0.371077   -2.456460
     20          1           0        2.132261   -0.409348   -2.662459
     21          1           0        4.440859   -0.226250   -1.673915
     22          1           0        4.683476    0.184987    0.768905
     23          1           0        2.645958    0.389448    2.207992
 ---------------------------------------------------------------------

 SCF Done:  E(UB3LYP) =  -650.750348368     A.U. after    2 cycles

 Alpha  occ. eigenvalues --  -18.95550 -18.83010 -10.01904 -10.01903  -9.98674
 Alpha  occ. eigenvalues --   -9.95391  -9.95390  -9.95245  -9.95245  -9.95179
 Alpha  occ. eigenvalues --   -9.95178  -9.95097  -9.95096  -9.94479  -9.94479
 Alpha  occ. eigenvalues --   -0.87342  -0.74957  -0.63928  -0.62574  -0.54999
 Alpha  occ. eigenvalues --   -0.54750  -0.52211  -0.50881  -0.43105  -0.41976
 Alpha  occ. eigenvalues --   -0.37576  -0.36849  -0.33095  -0.32718  -0.27583
 Alpha  occ. eigenvalues --   -0.26585  -0.24873  -0.23874  -0.23461  -0.21328
 Alpha  occ. eigenvalues --   -0.21242  -0.19670  -0.17172  -0.17141  -0.16148
 Alpha  occ. eigenvalues --   -0.14944  -0.14671  -0.13671  -0.13151  -0.10984
 Alpha  occ. eigenvalues --   -0.10602  -0.04292  -0.02965  -0.02528  -0.00362
 Alpha  occ. eigenvalues --   -0.00175   0.12920
 Alpha virt. eigenvalues --    0.14343   0.14795   0.15908   0.16231   0.17378
 Alpha virt. eigenvalues --    0.18952   0.19373   0.19938   0.20558   0.21045
 Alpha virt. eigenvalues --    0.21936   0.23575   0.23707   0.24715   0.26023

  Beta  occ. eigenvalues --  -18.95550 -18.83010 -10.01904 -10.01903  -9.98674
  Beta  occ. eigenvalues --   -9.95391  -9.95390  -9.95245  -9.95245  -9.95179
  Beta  occ. eigenvalues --   -9.95178  -9.95097  -9.95096  -9.94479  -9.94479
  Beta  occ. eigenvalues --   -0.87342  -0.74957  -0.63928  -0.62574  -0.54999
  Beta  occ. eigenvalues --   -0.54750  -0.52211  -0.50881  -0.43105  -0.41976
  Beta  occ. eigenvalues --   -0.37576  -0.36849  -0.33095  -0.32718  -0.27583
  Beta  occ. eigenvalues --   -0.26585  -0.24873  -0.23874  -0.23461  -0.21328
  Beta  occ. eigenvalues --   -0.21242  -0.19670  -0.17172  -0.17141  -0.16148
  Beta  occ. eigenvalues --   -0.14944  -0.14671  -0.13671  -0.13151  -0.10984
  Beta  occ. eigenvalues --   -0.10602  -0.04292  -0.02965  -0.02528  -0.00362
  Beta  occ. eigenvalues --   -0.00175   0.12920
  Beta virt. eigenvalues --    0.14343   0.14795   0.15908   0.16231   0.17378
  Beta virt. eigenvalues --    0.18952   0.19373   0.19938   0.20558   0.21045
  Beta virt. eigenvalues --    0.21936   0.23575   0.23707   0.24715   0.26023

 Mulliken charges and spin densities:
               1          2
     1  O   -0.445907   0.000000
     2  C   -0.275593  -0.000000
     3  C    1.239578  -0.000000
     4  C   -0.640457   0.000000
     5  C    1.134273   0.000000
     6  C    1.307183  -0.000000
     7  C   -1.093740   0.000000
     8  C   -0.339892  -0.000000
     9  O   -0.106360  -0.000000
    10  C   -0.341028   0.000000
    11  C   -1.093167  -0.000000
    12  C    1.307498   0.000000
    13  C    1.132446  -0.000000
    14  C   -0.639040  -0.000000
    15  C    1.239384   0.000000
    16  H    0.144742   0.000000
    17  H   -0.550385   0.000000
    18  H   -1.560621  -0.000000
    19  H   -0.226445   0.000000
    20  H   -0.226473  -0.000000
    21  H   -1.560504  -0.000000
    22  H   -0.550301  -0.000000
    23  H    0.144807   0.000000
 Sum of Mulliken charges =  -2.00000   0.00000

 Dipole moment (field-independent basis, Debye):
    X=              0.0591    Y=              0.7801    Z=              1.1273  Tot=              1.3722
 Quadrupole moment (field-independent basis, Debye-Ang):
   XX=           -270.9447   YY=           -116.9494   ZZ=           -149.6914
   XY=              1.0262   XZ=              5.5030   YZ=             -6.3722

  Exact polarizability:5098.885 -22.522 299.456-120.992 400.7822359.919
 Approx polarizability:********-129.314 340.898-684.635 374.2492443.977

                      1                      2                      3
                      A                      A                      A
 Frequencies --     65.5802               115.4045               157.2197
 Red. masses --      6.3557                 3.9171                 6.2431
 Frc consts  --      0.0161                 0.0307                 0.0909
 IR Inten    --     12.2453                 3.3850                42.4585

                      4                      5                      6
                      A                      A                      A
 Frequencies --    227.6341               260.8219               269.9703
 Red. masses --      4.8978                 5.2841                 6.8996
 Frc consts  --      0.1495                 0.2118                 0.2963
 IR Inten    --      9.0805                 8.8202                10.1576

                      7                      8                      9
                      A                      A                      A
 Frequencies --    305.1512               371.2257               388.8734
 Red. masses --      8.1950                 4.3661                 5.6212
 Frc consts  --      0.4496                 0.3545                 0.5008
 IR Inten    --     14.3824                24.3837                68.7886

                     10                     11                     12
                      A                      A                      A
 Frequencies --    442.2166               451.6387               510.7840
 Red. masses --      5.4776                 3.5698                10.2136
 Frc consts  --      0.6311                 0.4290                 1.5700
 IR Inten    --      9.0898                86.4446                43.3271

                     13                     14                     15
                      A                      A                      A
 Frequencies --    535.1565               542.5828               596.3693
 Red. masses --      4.3352                 4.3039                 7.8764
 Frc consts  --      0.7315                 0.7465                 1.6505
 IR Inten    --      0.5220                10.2239                16.9967

                     16                     17                     18
                      A                      A                      A
 Frequencies --    626.5703               633.5519               658.4334
 Red. masses --      6.9235                 4.5555                 6.2645
 Frc consts  --      1.6015                 1.0773                 1.6002
 IR Inten    --      0.0204                30.6278                20.2265

                     19                     20                     21
                      A                      A                      A
 Frequencies --    695.3864               696.1683               738.7988
 Red. masses --      4.1611                 6.1585                 2.9382
 Frc consts  --      1.1855                 1.7585                 0.9449
 IR Inten    --      0.0063                 3.5596               107.2919

                     22                     23                     24
                      A                      A                      A
 Frequencies --    794.1102               803.8852               833.2492
 Red. masses --      1.2843                 1.6151                 3.3162
 Frc consts  --      0.4772                 0.6149                 1.3566
 IR Inten    --     40.1892               197.6693               109.1041

                     25                     26                     27
                      A                      A                      A
 Frequencies --    833.8875               839.5095               862.4567
 Red. masses --      1.4115                 1.8252                 5.9693
 Frc consts  --      0.5783                 0.7579                 2.6160
 IR Inten    --    110.6767               113.7983                41.9375

                     28                     29                     30
                      A                      A                      A
 Frequencies --    895.6532               897.4473               928.3044
 Red. masses --      1.3014                 1.2996                 5.8852
 Frc consts  --      0.6151                 0.6167                 2.9881
 IR Inten    --    137.4769               777.3294                 0.0194

                     31                     32                     33
                      A                      A                      A
 Frequencies --    950.1921               950.3619              1025.6510
 Red. masses --      1.2583                 1.2731                 2.2261
 Frc consts  --      0.6694                 0.6775                 1.3797
 IR Inten    --     70.5819                46.5241                36.4863

                     34                     35                     36
                      A                      A                      A
 Frequencies --   1034.0202              1086.9160              1103.8404
 Red. masses --      1.8270                 1.8828                 1.6765
 Frc consts  --      1.1509                 1.3106                 1.2035
 IR Inten    --    120.5232                 0.6824               353.3641

                     37                     38                     39
                      A                      A                      A
 Frequencies --   1148.0631              1153.1509              1183.3968
 Red. masses --      1.1321                 1.1296                 4.2523
 Frc consts  --      0.8792                 0.8850                 3.5086
 IR Inten    --    109.3178               308.8443                 1.1849

                     40                     41                     42
                      A                      A                      A
 Frequencies --   1188.1562              1207.5823              1254.0860
 Red. masses --      3.0076                 2.3158                 3.1067
 Frc consts  --      2.5016                 1.9897                 2.8788
 IR Inten    --     41.9612               440.4948               319.0513

                     43                     44                     45
                      A                      A                      A
 Frequencies --   1273.7891              1298.6473              1351.5289
 Red. masses --      1.6935                 4.2436                 5.9194
 Frc consts  --      1.6190                 4.2166                 6.3706
 IR Inten    --    132.4574                19.8332                 9.5320

                     46                     47                     48
                      A                      A                      A
 Frequencies --   1366.4430              1439.1165              1441.4856
 Red. masses --      6.4479                 3.6629                 2.3701
 Frc consts  --      7.0933                 4.4695                 2.9017
 IR Inten    --     11.0125               896.9630                55.2128

                     49                     50                     51
                      A                      A                      A
 Frequencies --   1461.4957              1480.5606              1507.5294
 Red. masses --      2.8613                 2.7247                 3.6990
 Frc consts  --      3.6009                 3.5190                 4.9530
 IR Inten    --    291.3320                36.8470                58.6446

                     52                     53                     54
                      A                      A                      A
 Frequencies --   1532.0574              1550.8910              1580.1780
 Red. masses --      4.0962                 5.0337                 7.1935
 Frc consts  --      5.6648                 7.1335                10.5828
 IR Inten    --    331.6550                 0.2529               106.0934

                     55                     56                     57
                      A                      A                      A
 Frequencies --   1605.5393              3108.9952              3109.2955
 Red. masses --      6.6822                 1.0867                 1.0868
 Frc consts  --     10.1487                 6.1889                 6.1907
 IR Inten    --     70.7347                95.8690               441.9317

                     58                     59                     60
                      A                      A                      A
 Frequencies --   3135.6547              3137.3107              3153.5702
 Red. masses --      1.0896                 1.0896                 1.0921
 Frc consts  --      6.3119                 6.3185                 6.3989
 IR Inten    --    455.9732                34.3012               232.9578

                     61                     62                     63
                      A                      A                      A
 Frequencies --   3154.3439              3178.0620              3178.6023
 Red. masses --      1.0923                 1.0895                 1.0899
 Frc consts  --      6.4034                 6.4836                 6.4879
 IR Inten    --    129.9279                18.1834                 8.3350

 - Thermochemistry -
 -------------------
 Temperature   298.150 Kelvin.  Pressure   1.00000 Atm.
 Atom     1 has atomic number  8 and mass  15.99491

 Molecular mass:   196.05243 amu.
 Principal axes and moments of inertia in atomic units:
                           1         2         3
     Eigenvalues --  1247.796633919.094905162.20776
           X            0.99892   0.04642   0.00179
           Y           -0.00856   0.14590   0.98926
           Z           -0.04566   0.98821  -0.14614
 This molecule is an asymmetric top.
 Rotational symmetry number  1.
 Warning -- assumption of classical behavior for rotation
           may cause significant error
 Rotational temperatures (Kelvin)      0.06941     0.02210     0.01678
 Rotational constants (GHZ):           1.44634     0.46050     0.34961
 Zero-point vibrational energy     444463.9 (Joules/Mol)
                                  106.22941 (Kcal/Mol)
 Warning -- explicit consideration of  15 degrees of freedom as
           vibrations may cause significant error
 Vibrational temperatures:     94.36   166.04   226.20   327.51   375.26
          (Kelvin)            388.43   439.04   534.11   559.50   636.25
                              649.81   734.90   769.97   780.66   858.04
                              901.49   911.54   947.34  1000.51  1001.63
                             1062.97  1142.55  1156.61  1198.86  1199.78
                             1207.87  1240.88  1288.65  1291.23  1335.62
                             1367.11  1367.36  1475.68  1487.72  1563.83
                             1588.18  1651.81  1659.13  1702.64  1709.49
                             1737.44  1804.35  1832.70  1868.46  1944.55
                             1966.01  2070.57  2073.98  2102.77  2130.20
                             2169.00  2204.29  2231.39  2273.52  2310.01
                             4473.15  4473.58  4511.51  4513.89  4537.28
                             4538.40  4572.52  4573.30

 Zero-point correction=                           0.169287 (Hartree/Particle)
 Thermal correction to Energy=                    0.179811
 Thermal correction to Enthalpy=                  0.180756
 Thermal correction to Gibbs Free Energy=         0.133062
 Sum of electronic and zero-point Energies=           -650.581061
 Sum of electronic and thermal Energies=              -650.570537
 Sum of electronic and thermal Enthalpies=            -650.569593
 Sum of electronic and thermal Free Energies=         -650.617287

                     E (Thermal)             CV                S
                      KCal/Mol        Cal/Mol-Kelvin    Cal/Mol-Kelvin
 Total                  112.833             44.069            100.380
 Electronic               0.000              0.000              0.000
 Translational            0.889              2.981             41.725
 Rotational               0.889              2.981             31.602
 Vibrational            111.056             38.108             27.054
 Vibration     1          0.597              1.971              4.282
 Vibration     2          0.608              1.937              3.176
 Vibration     3          0.621              1.895              2.583
 Vibration     4          0.651              1.799              1.898
 Vibration     5          0.669              1.744              1.656
 Vibration     6          0.674              1.728              1.596
 Vibration     7          0.696              1.664              1.388
 Vibration     8          0.743              1.531              1.075
 Vibration     9          0.757              1.494              1.004
 Vibration    10          0.802              1.378              0.820
 Vibration    11          0.810              1.357              0.791
 Vibration    12          0.866              1.226              0.632
 Vibration    13          0.890              1.172              0.576
 Vibration    14          0.898              1.156              0.560
 Vibration    15          0.954              1.040              0.456

 Optimization completed.
    -- Stationary point found.
 Normal termination of Gaussian 16 at Sat Jan  6 03:17:10 2024.
