 Gaussian 16, Revision A.03,
 Gaussian 16:  ES64L-G16RevA.03 25-Dec-2016

 ----------------------------------------------------------------
 #P UB3LYP/6-311++G(d,p) SCRF=(PCM,Solvent=n,n-DiMethylFormamide)
 ----------------------------------------------------------------

 ------------------
 Quinone PCM in DMF
 ------------------
 Symbolic Z-matrix:
 Charge =  0 Multiplicity = 1

                         Standard orientation:
 ---------------------------------------------------------------------
 Center     Atomic      Atomic             Coordinates (Angstroms)
 Number     Number       Type             X           Y           Z
 ---------------------------------------------------------------------
      1          6           0       -2.717219   -1.430421   -1.269110
      2          6           0       -2.627869   -0.545556   -0.000203
      3          6           0       -2.718744   -1.428834    1.269688
      4          6           0       -3.843204    0.401760   -0.001644
      5          6           0       -1.310300    0.242770    0.000123
      6          6           0       -1.263807    1.587357    0.000230
      7          6           0        0.000027    2.345256    0.000159
      8          8           0       -0.000004    3.569379    0.000418
      9          6           0        1.263872    1.587387   -0.000360
     10          6           0        1.310319    0.242794   -0.000157
     11          6           0        0.000002   -0.514296    0.000537
     12          8           0        0.000035   -1.734583    0.001609
     13          6           0        2.627874   -0.545587   -0.000220
     14          6           0        2.717461   -1.430264   -1.269220
     15          6           0        3.843243    0.401677   -0.001081
     16          6           0        2.718362   -1.429006    1.269607
     17          1           0       -3.681791   -1.946221   -1.283075
     18          1           0       -2.653316   -0.819572   -2.174576
     19          1           0       -1.927855   -2.179246   -1.296164
     20          1           0       -1.929286   -2.177504    1.298653
     21          1           0       -3.683255   -1.944773    1.283059
     22          1           0       -2.656055   -0.816847    2.174467
     23          1           0       -3.866426    1.040314   -0.889025
     24          1           0       -3.868060    1.041055    0.885148
     25          1           0       -4.758955   -0.194237   -0.002226
     26          1           0       -2.153847    2.202789    0.000268
     27          1           0        2.153922    2.202804   -0.000701
     28          1           0        3.681983   -1.946158   -1.283090
     29          1           0        2.653747   -0.819226   -2.174575
     30          1           0        1.928013   -2.178999   -1.296528
     31          1           0        3.867619    1.041039    0.885672
     32          1           0        4.758974   -0.194343   -0.001076
     33          1           0        3.867050    1.040178   -0.888476
     34          1           0        3.683172   -1.944369    1.283557
     35          1           0        2.654711   -0.817187    2.174433
     36          1           0        1.929294   -2.178100    1.297955
 ---------------------------------------------------------------------

 SCF Done:  E(UB3LYP) =  -696.164529752     A.U. after   13 cycles

 The electronic state is 1-A.
 Alpha  occ. eigenvalues --  -19.13936 -19.13661 -10.28845 -10.27998 -10.21720
 Alpha  occ. eigenvalues --  -10.21719 -10.20387 -10.20386 -10.19940 -10.19939
 Alpha  occ. eigenvalues --  -10.16232 -10.16232 -10.16000 -10.15999 -10.15999
 Alpha  occ. eigenvalues --  -10.15999  -1.07410  -1.06595  -0.87009  -0.84558
 Alpha  occ. eigenvalues --   -0.80809  -0.76511  -0.70466  -0.69350  -0.69034
 Alpha  occ. eigenvalues --   -0.68986  -0.68778  -0.64128  -0.61191  -0.55921
 Alpha  occ. eigenvalues --   -0.54507  -0.52478  -0.50585  -0.48024  -0.47577
 Alpha  occ. eigenvalues --   -0.45788  -0.45091  -0.44807  -0.44548  -0.44099
 Alpha  occ. eigenvalues --   -0.43509  -0.42286  -0.41730  -0.40696  -0.39623
 Alpha  occ. eigenvalues --   -0.38724  -0.38362  -0.38164  -0.37046  -0.36785
 Alpha  occ. eigenvalues --   -0.35763  -0.35699  -0.34410  -0.34243  -0.34206
 Alpha  occ. eigenvalues --   -0.33423  -0.30164  -0.28511  -0.28369  -0.26882
 Alpha virt. eigenvalues --   -0.13081  -0.02373  -0.00904  -0.00518   0.00056
 Alpha virt. eigenvalues --    0.00983   0.01526   0.01862   0.02185   0.02726
 Alpha virt. eigenvalues --    0.03255   0.03284   0.03856   0.04013   0.04876

  Beta  occ. eigenvalues --  -19.13936 -19.13661 -10.28845 -10.27998 -10.21720
  Beta  occ. eigenvalues --  -10.21719 -10.20387 -10.20386 -10.19940 -10.19939
  Beta  occ. eigenvalues --  -10.16232 -10.16232 -10.16000 -10.15999 -10.15999
  Beta  occ. eigenvalues --  -10.15999  -1.07410  -1.06595  -0.87009  -0.84558
  Beta  occ. eigenvalues --   -0.80809  -0.76511  -0.70466  -0.69350  -0.69034
  Beta  occ. eigenvalues --   -0.68986  -0.68778  -0.64128  -0.61191  -0.55921
  Beta  occ. eigenvalues --   -0.54507  -0.52478  -0.50585  -0.48024  -0.47577
  Beta  occ. eigenvalues --   -0.45788  -0.45091  -0.44807  -0.44548  -0.44099
  Beta  occ. eigenvalues --   -0.43509  -0.42286  -0.41730  -0.40696  -0.39623
  Beta  occ. eigenvalues --   -0.38724  -0.38362  -0.38164  -0.37046  -0.36785
  Beta  occ. eigenvalues --   -0.35763  -0.35699  -0.34410  -0.34243  -0.34206
  Beta  occ. eigenvalues --   -0.33423  -0.30164  -0.28511  -0.28369  -0.26882
  Beta virt. eigenvalues --   -0.13081  -0.02373  -0.00904  -0.00518   0.00056
  Beta virt. eigenvalues --    0.00983   0.01526   0.01862   0.02185   0.02726
  Beta virt. eigenvalues --    0.03255   0.03284   0.03856   0.04013   0.04876

 Mulliken charges and spin densities:
               1          2
     1  C   -0.707573   0.000000
     2  C    0.673873   0.000000
     3  C   -0.707550  -0.000000
     4  C   -0.450398   0.000000
     5  C    0.718095   0.000000
     6  C   -0.274300  -0.000000
     7  C   -0.624483   0.000000
     8  O   -0.301373   0.000000
     9  C   -0.274197  -0.000000
    10  C    0.717985  -0.000000
    11  C   -0.775277  -0.000000
    12  O   -0.185539   0.000000
    13  C    0.673867  -0.000000
    14  C   -0.707623   0.000000
    15  C   -0.450322   0.000000
    16  C   -0.707556  -0.000000
    17  H    0.167549   0.000000
    18  H    0.153287  -0.000000
    19  H    0.174213  -0.000000
    20  H    0.174278  -0.000000
    21  H    0.167562   0.000000
    22  H    0.153283  -0.000000
    23  H    0.140571  -0.000000
    24  H    0.140545  -0.000000
    25  H    0.181150  -0.000000
    26  H    0.238755   0.000000
    27  H    0.238759   0.000000
    28  H    0.167562   0.000000
    29  H    0.153279  -0.000000
    30  H    0.174225   0.000000
    31  H    0.140544  -0.000000
    32  H    0.181136  -0.000000
    33  H    0.140577  -0.000000
    34  H    0.167569   0.000000
    35  H    0.153308  -0.000000
    36  H    0.174223   0.000000
 Sum of Mulliken charges =  -0.00000  -0.00000

 Dipole moment (field-independent basis, Debye):
    X=             -0.0001    Y=             -2.1982    Z=             -0.0031  Tot=              2.1982
 Quadrupole moment (field-independent basis, Debye-Ang):
   XX=            -86.2627   YY=           -121.6316   ZZ=            -99.0499
   XY=              0.0005   XZ=             -0.0003   YZ=              0.0020

 Normal termination of Gaussian 16 at Sun Jan 21 07:04:31 2024.
