 Q-Chem 5.4, Q-Chem, Inc., Pleasanton, CA (2021)
 Q-Chem 5.4.0 for Intel X86 EM64T Linux

User input:
--------------------------------------------------------------
$molecule
-2 1
C                  0.5178670000      1.6749560000     -2.0136040000
C                 -0.8282830000      1.9673780000     -2.4578630000
C                 -1.7767540000      0.9952900000     -2.6657120000
C                 -1.5503830000     -0.4306810000     -2.4680840000
C                 -0.2434910000     -0.7268870000     -2.0349740000
C                  0.7790710000      0.2584730000     -1.8047390000
O                  1.3699080000      2.6130020000     -1.8340370000
O                 -2.4998950000     -1.2855370000     -2.6871650000
C                  3.2126500000      0.7968320000     -1.0911280000
C                  4.1626570000      1.0583530000     -2.0955670000
C                  3.4404520000      1.2614030000      0.2173100000
C                  4.6101220000      1.9687510000      0.5060020000
C                  5.3242080000      1.7678200000     -1.7807780000
C                  5.5588970000      2.2232120000     -0.4837660000
H                 -1.0593980000      3.0195860000     -2.6239580000
H                 -2.7770850000      1.2752920000     -3.0015840000
H                  0.0196490000     -1.7654910000     -1.8600490000
H                  4.7744520000      2.3308520000      1.5192720000
H                  6.0500090000      1.9720670000     -2.5658450000
H                  6.4664150000      2.7739660000     -0.2487540000
C                  2.0702500000     -0.1810550000     -1.3617050000
O                  2.3977210000     -1.3782170000     -1.1520980000
C                  2.3981430000      1.0346150000      1.2848780000
H                  2.1534510000     -0.0273310000      1.3793300000
H                  1.4737850000      1.5554810000      1.0164960000
H                  2.7427540000      1.4058970000      2.2565870000
C                  3.8956320000      0.6139070000     -3.5127910000
H                  3.0073450000      1.1234220000     -3.8988830000
H                  3.6964160000     -0.4606650000     -3.5595080000
H                  4.7459070000      0.8445300000     -4.1644610000
$end
$rem
MAX_SCF_CYCLES=200
BASIS  =  6-311++G(d,p)
GUI  =  2
JOB_TYPE  =  SP
METHOD  =  B3LYP
SOLVENT_METHOD = PCM
$end
$pcm
theory = CPCM
$end
$solvent
dielectric 37.219
opticaldielectric 1.43
$end

--------------------------------------------------------------

             Standard Nuclear Orientation (Angstroms)
    I     Atom           X                Y                Z
 ----------------------------------------------------------------
    1      C       0.5178670000     1.6749560000    -2.0136040000
    2      C      -0.8282830000     1.9673780000    -2.4578630000
    3      C      -1.7767540000     0.9952900000    -2.6657120000
    4      C      -1.5503830000    -0.4306810000    -2.4680840000
    5      C      -0.2434910000    -0.7268870000    -2.0349740000
    6      C       0.7790710000     0.2584730000    -1.8047390000
    7      O       1.3699080000     2.6130020000    -1.8340370000
    8      O      -2.4998950000    -1.2855370000    -2.6871650000
    9      C       3.2126500000     0.7968320000    -1.0911280000
   10      C       4.1626570000     1.0583530000    -2.0955670000
   11      C       3.4404520000     1.2614030000     0.2173100000
   12      C       4.6101220000     1.9687510000     0.5060020000
   13      C       5.3242080000     1.7678200000    -1.7807780000
   14      C       5.5588970000     2.2232120000    -0.4837660000
   15      H      -1.0593980000     3.0195860000    -2.6239580000
   16      H      -2.7770850000     1.2752920000    -3.0015840000
   17      H       0.0196490000    -1.7654910000    -1.8600490000
   18      H       4.7744520000     2.3308520000     1.5192720000
   19      H       6.0500090000     1.9720670000    -2.5658450000
   20      H       6.4664150000     2.7739660000    -0.2487540000
   21      C       2.0702500000    -0.1810550000    -1.3617050000
   22      O       2.3977210000    -1.3782170000    -1.1520980000
   23      C       2.3981430000     1.0346150000     1.2848780000
   24      H       2.1534510000    -0.0273310000     1.3793300000
   25      H       1.4737850000     1.5554810000     1.0164960000
   26      H       2.7427540000     1.4058970000     2.2565870000
   27      C       3.8956320000     0.6139070000    -3.5127910000
   28      H       3.0073450000     1.1234220000    -3.8988830000
   29      H       3.6964160000    -0.4606650000    -3.5595080000
   30      H       4.7459070000     0.8445300000    -4.1644610000
 ----------------------------------------------------------------

    9    -804.9732160717      6.38e-06  Convergence criterion met
 Total energy in the final basis set =     -804.9732160717

                    Orbital Energies (a.u.)
 --------------------------------------------------------------

 Alpha MOs
 -- Occupied --
-19.0751 -19.0384 -19.0230 -10.2244 -10.1972 -10.1792 -10.1684 -10.1684
-10.1641 -10.1602 -10.1576 -10.1576 -10.1516 -10.1515 -10.1466 -10.1391
-10.1365 -10.1226  -0.9964  -0.9567  -0.9351  -0.8492  -0.7898  -0.7710
 -0.7548  -0.7225  -0.6844  -0.6682  -0.6615  -0.6169  -0.5796  -0.5600
 -0.5492  -0.5161  -0.4727  -0.4672  -0.4474  -0.4394  -0.4331  -0.4153
 -0.4079  -0.4035  -0.3978  -0.3928  -0.3917  -0.3849  -0.3780  -0.3698
 -0.3612  -0.3453  -0.3448  -0.3397  -0.3319  -0.3248  -0.3245  -0.3211
 -0.2507  -0.2391  -0.2322  -0.2268  -0.2221  -0.2039  -0.1990  -0.1355

          Ground-State Mulliken Net Atomic Charges

     Atom                 Charge (a.u.)
  ----------------------------------------
      1 C                    -0.575716
      2 C                    -0.543577
      3 C                    -0.018616
      4 C                    -0.601699
      5 C                     0.020926
      6 C                     0.600854
      7 O                    -0.503168
      8 O                    -0.744546
      9 C                     1.290412
     10 C                     0.215763
     11 C                     0.214253
     12 C                    -0.631585
     13 C                    -0.627403
     14 C                    -0.251938
     15 H                     0.172147
     16 H                     0.171389
     17 H                     0.153623
     18 H                     0.160108
     19 H                     0.159910
     20 H                     0.199611
     21 C                    -0.365298
     22 O                    -0.450487
     23 C                    -0.532238
     24 H                     0.172607
     25 H                     0.175016
     26 H                     0.164348
     27 C                    -0.537387
     28 H                     0.176017
     29 H                     0.172085
     30 H                     0.164589
  ----------------------------------------
  Sum of atomic charges =    -2.000000

                    Cartesian Multipole Moments
 -----------------------------------------------------------------
    Charge (ESU x 10^10)
                -9.6064
    Dipole Moment (Debye)
         X      -1.2320      Y       0.5160      Z      19.0141
       Tot      19.0610
    Quadrupole Moments (Debye-Ang)
        XX    -164.3230     XY     -16.6118     YY    -150.2842
        XZ     -13.2218     YZ      -2.5234     ZZ    -151.4705

 Total job time:  57.55s(wall), 402.80s(cpu)
        *  Thank you very much for using Q-Chem.  Have a nice day.  *
