 Gaussian 16, Revision A.03,
 Gaussian 16:  ES64L-G16RevA.03 25-Dec-2016

 ----------------------------------------------------------------------
 #P UB3LYP/6-311++G(d,p) nosym opt freq SCRF=(PCM,Solvent=n,n-DiMethylF
 ormamide)
 ----------------------------------------------------------------------

 -------
 Reduced
 -------
 Symbolic Z-matrix:
 Charge = -2 Multiplicity = 1

 SCF Done:  E(UB3LYP) =  -846.476577937     A.U. after   20 cycles
 SCF Done:  E(UB3LYP) =  -846.479145392     A.U. after   14 cycles
 SCF Done:  E(UB3LYP) =  -846.479729341     A.U. after   14 cycles
 SCF Done:  E(UB3LYP) =  -846.479851290     A.U. after   13 cycles
 SCF Done:  E(UB3LYP) =  -846.479859474     A.U. after   12 cycles
 SCF Done:  E(UB3LYP) =  -846.479868396     A.U. after   12 cycles
 SCF Done:  E(UB3LYP) =  -846.479868984     A.U. after   10 cycles
 SCF Done:  E(UB3LYP) =  -846.479869742     A.U. after   10 cycles
 SCF Done:  E(UB3LYP) =  -846.479870308     A.U. after   11 cycles
 SCF Done:  E(UB3LYP) =  -846.479871688     A.U. after   12 cycles
 SCF Done:  E(UB3LYP) =  -846.479872613     A.U. after   11 cycles
 SCF Done:  E(UB3LYP) =  -846.479874393     A.U. after   10 cycles
 SCF Done:  E(UB3LYP) =  -846.479875066     A.U. after   12 cycles
 SCF Done:  E(UB3LYP) =  -846.479874946     A.U. after   12 cycles
 SCF Done:  E(UB3LYP) =  -846.479875330     A.U. after   10 cycles
 SCF Done:  E(UB3LYP) =  -846.479875362     A.U. after    9 cycles
 Optimization completed.
    -- Stationary point found.
 Normal termination of Gaussian 16 at Sun Feb 11 18:21:00 2024.

 ----------------------------------------------------------------------
 #P Geom=AllCheck Guess=TCheck SCRF=Check GenChk UB3LYP/6-311++G(d,p) F
 req
 ----------------------------------------------------------------------

 Structure from the checkpoint file:  "330-an.chk"
 -------
 Reduced
 -------
 Charge = -2 Multiplicity = 1

                          Input orientation:
 ---------------------------------------------------------------------
 Center     Atomic      Atomic             Coordinates (Angstroms)
 Number     Number       Type             X           Y           Z
 ---------------------------------------------------------------------
      1          6           0        4.732757    0.200177    0.949815
      2          6           0        3.948075   -0.611020   -0.098960
      3          6           0        4.595350   -0.466826   -1.489256
      4          6           0        2.468298   -0.254054   -0.110613
      5          6           0        2.031136    1.052892   -0.461450
      6          6           0        0.684418    1.362032   -0.463390
      7          6           0       -0.318454    0.420030   -0.122832
      8          6           0        0.107533   -0.901748    0.237896
      9          6           0        1.508833   -1.185800    0.224548
     10          6           0       -0.817910   -1.939501    0.619327
     11          8           0       -0.379118   -3.126130    0.938108
     12          6           0       -2.232202   -1.634725    0.658120
     13          8           0       -3.072862   -2.544465    1.044417
     14          6           0       -2.680227   -0.303063    0.252482
     15          6           0       -4.086800    0.047127    0.209425
     16          6           0       -5.212259   -0.918359    0.531828
     17          6           0       -4.472405    1.325399   -0.159444
     18          6           0       -3.537306    2.322752   -0.505563
     19          6           0       -2.196434    2.012438   -0.487236
     20          6           0       -1.728857    0.725624   -0.123009
     21          1           0        4.308198    0.066773    1.948780
     22          1           0        4.715281    1.269716    0.718131
     23          1           0        5.780391   -0.116557    0.981120
     24          1           0        4.016042   -1.667286    0.186282
     25          1           0        4.071336   -1.073893   -2.232777
     26          1           0        5.641673   -0.788322   -1.464846
     27          1           0        4.575150    0.572771   -1.830787
     28          1           0        2.751739    1.818613   -0.730754
     29          1           0        0.401839    2.371751   -0.738347
     30          1           0        1.804275   -2.193028    0.498318
     31          1           0       -5.189774   -1.246966    1.572152
     32          1           0       -6.173315   -0.428216    0.342412
     33          1           0       -5.155047   -1.827258   -0.066820
     34          1           0       -5.532283    1.562888   -0.188127
     35          1           0       -3.872281    3.315396   -0.788706
     36          1           0       -1.484792    2.780834   -0.763697
 ---------------------------------------------------------------------

 SCF Done:  E(UB3LYP) =  -846.479875362     A.U. after    1 cycles

 Alpha  occ. eigenvalues --  -19.00962 -19.00669 -10.16682 -10.16274 -10.15739
 Alpha  occ. eigenvalues --  -10.15689 -10.15259 -10.15051 -10.15020 -10.15019
 Alpha  occ. eigenvalues --  -10.14985 -10.14740 -10.14581 -10.14510 -10.14409
 Alpha  occ. eigenvalues --  -10.14269 -10.14221 -10.13808 -10.13628 -10.13544
 Alpha  occ. eigenvalues --   -0.93345  -0.90076  -0.84122  -0.82313  -0.78895
 Alpha  occ. eigenvalues --   -0.75101  -0.74195  -0.72078  -0.68990  -0.67606
 Alpha  occ. eigenvalues --   -0.66837  -0.63582  -0.60577  -0.58050  -0.56468
 Alpha  occ. eigenvalues --   -0.55059  -0.53313  -0.49165  -0.47533  -0.45877
 Alpha  occ. eigenvalues --   -0.44065  -0.43708  -0.43110  -0.41239  -0.40526
 Alpha  occ. eigenvalues --   -0.40464  -0.39649  -0.39587  -0.38650  -0.37946
 Alpha  occ. eigenvalues --   -0.37081  -0.36758  -0.36296  -0.35447  -0.34194
 Alpha  occ. eigenvalues --   -0.33884  -0.33388  -0.32710  -0.32056  -0.31894
 Alpha  occ. eigenvalues --   -0.31852  -0.30053  -0.29460  -0.27063  -0.25615
 Alpha  occ. eigenvalues --   -0.22546  -0.21788  -0.19206  -0.18886  -0.17783
 Alpha  occ. eigenvalues --   -0.10714
 Alpha virt. eigenvalues --   -0.01535  -0.00240  -0.00183   0.00398   0.01184
 Alpha virt. eigenvalues --    0.01969   0.02070   0.02094   0.03060   0.03612
 Alpha virt. eigenvalues --    0.03756   0.03984   0.04296   0.05083   0.05137

  Beta  occ. eigenvalues --  -19.00962 -19.00669 -10.16682 -10.16274 -10.15739
  Beta  occ. eigenvalues --  -10.15689 -10.15259 -10.15051 -10.15020 -10.15019
  Beta  occ. eigenvalues --  -10.14985 -10.14740 -10.14581 -10.14510 -10.14409
  Beta  occ. eigenvalues --  -10.14269 -10.14221 -10.13808 -10.13628 -10.13544
  Beta  occ. eigenvalues --   -0.93345  -0.90076  -0.84122  -0.82313  -0.78895
  Beta  occ. eigenvalues --   -0.75101  -0.74195  -0.72078  -0.68990  -0.67606
  Beta  occ. eigenvalues --   -0.66837  -0.63582  -0.60577  -0.58050  -0.56468
  Beta  occ. eigenvalues --   -0.55059  -0.53313  -0.49165  -0.47533  -0.45877
  Beta  occ. eigenvalues --   -0.44065  -0.43708  -0.43110  -0.41239  -0.40526
  Beta  occ. eigenvalues --   -0.40464  -0.39649  -0.39587  -0.38650  -0.37946
  Beta  occ. eigenvalues --   -0.37081  -0.36758  -0.36296  -0.35447  -0.34194
  Beta  occ. eigenvalues --   -0.33884  -0.33388  -0.32710  -0.32056  -0.31894
  Beta  occ. eigenvalues --   -0.31852  -0.30053  -0.29460  -0.27063  -0.25615
  Beta  occ. eigenvalues --   -0.22546  -0.21788  -0.19206  -0.18886  -0.17783
  Beta  occ. eigenvalues --   -0.10714
  Beta virt. eigenvalues --   -0.01535  -0.00240  -0.00183   0.00398   0.01184
  Beta virt. eigenvalues --    0.01969   0.02070   0.02094   0.03060   0.03612
  Beta virt. eigenvalues --    0.03756   0.03984   0.04296   0.05083   0.05137

 Mulliken charges and spin densities:
               1          2
     1  C   -0.672446  -0.000000
     2  C    0.147559   0.000000
     3  C   -0.669988  -0.000000
     4  C    0.579570  -0.000000
     5  C   -0.859399  -0.000000
     6  C   -0.261752   0.000000
     7  C    0.392935   0.000000
     8  C    0.827641   0.000000
     9  C   -0.452059  -0.000000
    10  C   -0.708103  -0.000000
    11  O   -0.698064   0.000000
    12  C   -0.804140  -0.000000
    13  O   -0.647043   0.000000
    14  C    0.524339  -0.000000
    15  C    0.504761   0.000000
    16  C   -0.359982  -0.000000
    17  C   -0.484806   0.000000
    18  C   -0.674659   0.000000
    19  C   -0.387127  -0.000000
    20  C    0.507653  -0.000000
    21  H    0.136763   0.000000
    22  H    0.153514   0.000000
    23  H    0.147694   0.000000
    24  H    0.180339  -0.000000
    25  H    0.136474   0.000000
    26  H    0.149335   0.000000
    27  H    0.151494   0.000000
    28  H    0.163888  -0.000000
    29  H    0.081167   0.000000
    30  H    0.137061  -0.000000
    31  H    0.146047  -0.000000
    32  H    0.123077  -0.000000
    33  H    0.147146  -0.000000
    34  H    0.094932   0.000000
    35  H    0.176838   0.000000
    36  H    0.069339  -0.000000
 Sum of Mulliken charges =  -2.00000   0.00000

 Dipole moment (field-independent basis, Debye):
    X=             14.5458    Y=             17.8864    Z=             -6.4314  Tot=             23.9346
 Quadrupole moment (field-independent basis, Debye-Ang):
   XX=           -175.1185   YY=           -188.7026   ZZ=           -139.7463
   XY=            -26.0011   XZ=             11.3938   YZ=             18.9979

  Exact polarizability: 604.264 -29.374 432.484 -17.512 -66.518 232.406
 Approx polarizability: 655.641 -27.972 505.604 -21.052 -82.855 256.951

                      1                      2                      3
                      A                      A                      A
 Frequencies --     32.3056                40.1513                53.4242
 Red. masses --      3.6102                 3.1721                 3.9010
 Frc consts  --      0.0022                 0.0030                 0.0066
 IR Inten    --      8.7696                 3.4606                 0.8166

                      4                      5                      6
                      A                      A                      A
 Frequencies --     62.3082               127.2059               146.5543
 Red. masses --      5.9802                 3.7526                 4.2649
 Frc consts  --      0.0137                 0.0358                 0.0540
 IR Inten    --      0.3909                 9.6845                 2.5417

                      7                      8                      9
                      A                      A                      A
 Frequencies --    154.9977               184.5470               222.5660
 Red. masses --      3.9324                 1.3606                 1.9827
 Frc consts  --      0.0557                 0.0273                 0.0579
 IR Inten    --      0.6442                 1.0125                 1.1376

                     10                     11                     12
                      A                      A                      A
 Frequencies --    228.9002               231.6154               245.7045
 Red. masses --      1.1306                 2.5335                 1.4394
 Frc consts  --      0.0349                 0.0801                 0.0512
 IR Inten    --      0.3628                 1.7140                 4.5344

                     13                     14                     15
                      A                      A                      A
 Frequencies --    274.5065               278.3642               319.5119
 Red. masses --      2.5902                 4.7115                 4.8269
 Frc consts  --      0.1150                 0.2151                 0.2903
 IR Inten    --      7.6621                 1.1499                 0.2671

                     16                     17                     18
                      A                      A                      A
 Frequencies --    354.7950               366.3608               379.1218
 Red. masses --      3.8185                 5.5232                 5.5696
 Frc consts  --      0.2832                 0.4368                 0.4717
 IR Inten    --      0.0630                 3.6774                 6.8696

                     19                     20                     21
                      A                      A                      A
 Frequencies --    403.4533               408.2940               440.7983
 Red. masses --      5.4693                 5.2556                 4.1515
 Frc consts  --      0.5245                 0.5162                 0.4753
 IR Inten    --     35.9796                28.9409                27.0374

                     22                     23                     24
                      A                      A                      A
 Frequencies --    459.8848               464.3346               506.5946
 Red. masses --      3.2189                 6.7943                 3.8206
 Frc consts  --      0.4011                 0.8631                 0.5777
 IR Inten    --     12.4041                16.5739                 2.2773

                     25                     26                     27
                      A                      A                      A
 Frequencies --    537.6343               558.2691               570.1020
 Red. masses --      4.0781                 5.4553                 3.9215
 Frc consts  --      0.6945                 1.0017                 0.7509
 IR Inten    --      2.7747                 9.2755                11.8080

                     28                     29                     30
                      A                      A                      A
 Frequencies --    589.0644               634.0373               638.4897
 Red. masses --      3.1956                 3.8152                 5.3338
 Frc consts  --      0.6533                 0.9037                 1.2811
 IR Inten    --      0.7494                 2.6579                13.0628

                     31                     32                     33
                      A                      A                      A
 Frequencies --    684.4301               710.1405               719.4788
 Red. masses --      7.2603                 3.2008                 4.9610
 Frc consts  --      2.0038                 0.9510                 1.5131
 IR Inten    --     41.4509                31.7857                28.1487

                     34                     35                     36
                      A                      A                      A
 Frequencies --    730.0049               743.1915               756.3570
 Red. masses --      4.0551                 6.1539                 1.7600
 Frc consts  --      1.2732                 2.0026                 0.5932
 IR Inten    --     21.5514                 5.4571                71.3945

                     37                     38                     39
                      A                      A                      A
 Frequencies --    789.9853               809.0376               861.5908
 Red. masses --      1.5613                 5.0467                 6.0368
 Frc consts  --      0.5741                 1.9462                 2.6403
 IR Inten    --     35.9677                 4.1728               164.2624

                     40                     41                     42
                      A                      A                      A
 Frequencies --    874.4406               890.8639               908.7179
 Red. masses --      1.3357                 2.8990                 1.3928
 Frc consts  --      0.6017                 1.3555                 0.6776
 IR Inten    --      0.5883                10.4866                24.9902

                     43                     44                     45
                      A                      A                      A
 Frequencies --    927.0690               933.2933               947.2503
 Red. masses --      1.1873                 1.3195                 1.2928
 Frc consts  --      0.6012                 0.6772                 0.6835
 IR Inten    --      2.8826                 0.2160                 1.8844

                     46                     47                     48
                      A                      A                      A
 Frequencies --    955.8455               959.4430              1008.8700
 Red. masses --      1.4991                 3.5322                 1.8265
 Frc consts  --      0.8070                 1.9158                 1.0953
 IR Inten    --      0.1954                42.4681                 7.3136

                     49                     50                     51
                      A                      A                      A
 Frequencies --   1048.1609              1048.8992              1060.8641
 Red. masses --      1.5725                 2.0326                 2.5869
 Frc consts  --      1.0179                 1.3176                 1.7153
 IR Inten    --      7.7332                23.9743               177.1905

                     52                     53                     54
                      A                      A                      A
 Frequencies --   1066.7868              1112.8058              1114.1317
 Red. masses --      3.1424                 2.3212                 1.8570
 Frc consts  --      2.1070                 1.6936                 1.3581
 IR Inten    --     72.7203                 3.4250                59.0126

                     55                     56                     57
                      A                      A                      A
 Frequencies --   1149.7710              1167.9077              1178.6716
 Red. masses --      1.8549                 1.4920                 1.6311
 Frc consts  --      1.4448                 1.1990                 1.3351
 IR Inten    --     12.1564                 5.7942               138.2866

                     58                     59                     60
                      A                      A                      A
 Frequencies --   1199.3759              1215.4106              1224.8556
 Red. masses --      2.2422                 3.2330                 2.4538
 Frc consts  --      1.9004                 2.8138                 2.1690
 IR Inten    --     57.6674               115.2013               323.0221

                     61                     62                     63
                      A                      A                      A
 Frequencies --   1250.5357              1272.0530              1312.0101
 Red. masses --      2.3072                 3.3663                 4.7351
 Frc consts  --      2.1258                 3.2093                 4.8024
 IR Inten    --    224.8069               209.0823              1248.4332

                     64                     65                     66
                      A                      A                      A
 Frequencies --   1322.9495              1330.4690              1341.2829
 Red. masses --      2.0989                 3.2290                 1.3134
 Frc consts  --      2.1643                 3.3677                 1.3922
 IR Inten    --     40.1390               148.5626                 4.1950

                     67                     68                     69
                      A                      A                      A
 Frequencies --   1354.9546              1376.3049              1387.4425
 Red. masses --      1.9101                 6.4074                 1.2231
 Frc consts  --      2.0661                 7.1509                 1.3872
 IR Inten    --    294.6054              1554.9865                 7.6200

                     70                     71                     72
                      A                      A                      A
 Frequencies --   1402.9394              1405.9853              1407.7886
 Red. masses --      2.2119                 1.2519                 1.5143
 Frc consts  --      2.5651                 1.4581                 1.7682
 IR Inten    --    127.3273                 5.7518                92.2416

                     73                     74                     75
                      A                      A                      A
 Frequencies --   1427.0920              1442.3509              1455.0152
 Red. masses --      4.4278                 3.5811                 1.0574
 Frc consts  --      5.3130                 4.3894                 1.3190
 IR Inten    --    796.1354               157.6397                 6.3926

                     76                     77                     78
                      A                      A                      A
 Frequencies --   1472.0427              1477.6060              1482.4367
 Red. masses --      1.2731                 1.0433                 1.0492
 Frc consts  --      1.6254                 1.3421                 1.3585
 IR Inten    --     20.3039                 0.0034                 3.9741

                     79                     80                     81
                      A                      A                      A
 Frequencies --   1484.5802              1490.0635              1496.8469
 Red. masses --      1.9224                 1.0568                 1.1141
 Frc consts  --      2.4963                 1.3825                 1.4707
 IR Inten    --     17.5484                30.6644                 2.9056

                     82                     83                     84
                      A                      A                      A
 Frequencies --   1524.4042              1543.2536              1567.5787
 Red. masses --      3.4518                 4.6774                 6.5189
 Frc consts  --      4.7260                 6.5634                 9.4380
 IR Inten    --    209.7062                71.3524               257.8104

                     85                     86                     87
                      A                      A                      A
 Frequencies --   1609.2051              1620.4940              3009.9801
 Red. masses --      4.7514                 5.8987                 1.0836
 Frc consts  --      7.2493                 9.1264                 5.7841
 IR Inten    --     99.8227               101.7100                34.5109

                     88                     89                     90
                      A                      A                      A
 Frequencies --   3010.4315              3015.1483              3015.2991
 Red. masses --      1.0344                 1.0431                 1.0381
 Frc consts  --      5.5234                 5.5873                 5.5611
 IR Inten    --     54.8837               227.6677                 6.8704

                     91                     92                     93
                      A                      A                      A
 Frequencies --   3069.5796              3074.1918              3080.8843
 Red. masses --      1.1017                 1.1008                 1.1022
 Frc consts  --      6.1162                 6.1295                 6.1638
 IR Inten    --      1.7110               181.6016                44.4238

                     94                     95                     96
                      A                      A                      A
 Frequencies --   3082.8401              3082.9446              3105.3650
 Red. masses --      1.0935                 1.1013                 1.0959
 Frc consts  --      6.1230                 6.1670                 6.2263
 IR Inten    --     39.6493                76.5444                28.6839

                     97                     98                     99
                      A                      A                      A
 Frequencies --   3133.2693              3147.1387              3155.8068
 Red. masses --      1.0862                 1.0856                 1.0895
 Frc consts  --      6.2827                 6.3349                 6.3927
 IR Inten    --     66.9536                22.0737                44.0182

                    100                    101                    102
                      A                      A                      A
 Frequencies --   3162.4299              3168.7464              3186.4805
 Red. masses --      1.0878                 1.0944                 1.0894
 Frc consts  --      6.4097                 6.4746                 6.5173
 IR Inten    --     25.8086                17.3426               107.3553

 - Thermochemistry -
 -------------------
 Temperature   298.150 Kelvin.  Pressure   1.00000 Atm.
 Atom     1 has atomic number  6 and mass  12.00000

 Molecular mass:   264.11503 amu.
 Principal axes and moments of inertia in atomic units:
                           1         2         3
     Eigenvalues --  2485.665208915.87516**********
           X            0.99815   0.00545   0.06054
           Y           -0.02318   0.95482   0.29627
           Z           -0.05619  -0.29712   0.95318
 This molecule is an asymmetric top.
 Rotational symmetry number  1.
 Warning -- assumption of classical behavior for rotation
           may cause significant error
 Rotational temperatures (Kelvin)      0.03485     0.00971     0.00788
 Rotational constants (GHZ):           0.72606     0.20242     0.16409
 Zero-point vibrational energy     750475.9 (Joules/Mol)
                                  179.36804 (Kcal/Mol)
 Warning -- explicit consideration of  28 degrees of freedom as
           vibrations may cause significant error
 Vibrational temperatures:     46.48    57.77    76.87    89.65   183.02
          (Kelvin)            210.86   223.01   265.52   320.22   329.34
                              333.24   353.51   394.95   400.50   459.71
                              510.47   527.11   545.47   580.48   587.44
                              634.21   661.67   668.07   728.88   773.54
                              803.22   820.25   847.53   912.24   918.64
                              984.74  1021.73  1035.17  1050.31  1069.29
                             1088.23  1136.61  1164.02  1239.64  1258.13
                             1281.75  1307.44  1333.85  1342.80  1362.88
                             1375.25  1380.42  1451.54  1508.07  1509.13
                             1526.35  1534.87  1601.08  1602.99  1654.26
                             1680.36  1695.85  1725.63  1748.70  1762.29
                             1799.24  1830.20  1887.69  1903.43  1914.25
                             1929.81  1949.48  1980.20  1996.22  2018.52
                             2022.90  2025.49  2053.27  2075.22  2093.44
                             2117.94  2125.95  2132.90  2135.98  2143.87
                             2153.63  2193.28  2220.40  2255.40  2315.29
                             2331.53  4330.69  4331.34  4338.13  4338.34
                             4416.44  4423.08  4432.71  4435.52  4435.67
                             4467.93  4508.08  4528.03  4540.50  4550.03
                             4559.12  4584.63

 Zero-point correction=                           0.285841 (Hartree/Particle)
 Thermal correction to Energy=                    0.303307
 Thermal correction to Enthalpy=                  0.304252
 Thermal correction to Gibbs Free Energy=         0.240378
 Sum of electronic and zero-point Energies=           -846.194034
 Sum of electronic and thermal Energies=              -846.176568
 Sum of electronic and thermal Enthalpies=            -846.175624
 Sum of electronic and thermal Free Energies=         -846.239498

                     E (Thermal)             CV                S
                      KCal/Mol        Cal/Mol-Kelvin    Cal/Mol-Kelvin
 Total                  190.328             69.231            134.434
 Electronic               0.000              0.000              0.000
 Translational            0.889              2.981             42.613
 Rotational               0.889              2.981             33.855
 Vibrational            188.551             63.269             57.966
 Vibration     1          0.594              1.983              5.683
 Vibration     2          0.594              1.981              5.252
 Vibration     3          0.596              1.976              4.686
 Vibration     4          0.597              1.972              4.383
 Vibration     5          0.611              1.926              2.988
 Vibration     6          0.617              1.906              2.716
 Vibration     7          0.620              1.897              2.610
 Vibration     8          0.631              1.861              2.282
 Vibration     9          0.648              1.807              1.938
 Vibration    10          0.652              1.797              1.888
 Vibration    11          0.653              1.793              1.866
 Vibration    12          0.660              1.770              1.761
 Vibration    13          0.677              1.720              1.568
 Vibration    14          0.679              1.714              1.544
 Vibration    15          0.705              1.636              1.313
 Vibration    16          0.731              1.565              1.145
 Vibration    17          0.739              1.541              1.095
 Vibration    18          0.749              1.515              1.043
 Vibration    19          0.769              1.463              0.950
 Vibration    20          0.773              1.452              0.933
 Vibration    21          0.801              1.381              0.824
 Vibration    22          0.818              1.339              0.766
 Vibration    23          0.822              1.329              0.754
 Vibration    24          0.862              1.235              0.642
 Vibration    25          0.893              1.167              0.570
 Vibration    26          0.914              1.122              0.527
 Vibration    27          0.926              1.096              0.504
 Vibration    28          0.946              1.055              0.469

 Optimization completed.
    -- Stationary point found.
 Normal termination of Gaussian 16 at Sun Feb 11 20:25:13 2024.
