 Q-Chem 5.4, Q-Chem, Inc., Pleasanton, CA (2021)
 Q-Chem 5.4.0 for Intel X86 EM64T Linux

User input:
--------------------------------------------------------------
$molecule
-1 2
C                 -0.5301840000     -2.1509690000      1.4827320000
C                  0.8617510000     -2.4490350000      1.3458100000
C                  1.8243950000     -1.4672610000      1.2112920000
C                  1.4383500000     -0.0456590000      1.2037690000
C                  0.0513000000      0.2533830000      1.3821340000
C                 -0.9111310000     -0.7283460000      1.5185250000
O                 -1.4334420000     -3.0431510000      1.5709820000
O                  2.3326950000      0.8449230000      1.0404550000
N                 -2.2772910000     -0.5455200000      1.7286710000
N                  3.2029380000     -1.6481540000      1.1045740000
C                 -3.1129700000      0.5454270000      1.2111490000
C                 -4.5705890000      0.0724740000      1.3563000000
C                 -2.9334250000      1.8226700000      2.0593450000
C                 -2.8284050000      0.8482240000     -0.2769090000
C                  3.8992620000     -2.7624510000      0.4485580000
C                  3.9289950000     -4.0050590000      1.3639410000
C                  5.3482260000     -2.2910710000      0.2302080000
C                  3.2756460000     -3.1213100000     -0.9186550000
H                  1.1117290000     -3.5025370000      1.3534540000
H                 -0.1952430000      1.3075420000      1.4018800000
H                 -2.7081200000     -1.4683170000      1.6817660000
H                  3.6059280000     -0.7301050000      0.9195790000
H                 -4.7478310000     -0.8260910000      0.7570000000
H                 -5.2645730000      0.8488620000      1.0212390000
H                 -4.7927720000     -0.1645280000      2.4009760000
H                 -3.1300670000      1.5999280000      3.1114100000
H                 -3.6279800000      2.6033830000      1.7292060000
H                 -1.9210020000      2.2198320000      1.9854150000
H                 -3.0192580000     -0.0407430000     -0.8850250000
H                 -1.7869840000      1.1368200000     -0.4272570000
H                 -3.4692440000      1.6604530000     -0.6379760000
H                  2.9293830000     -4.4012010000      1.5429770000
H                  4.3638540000     -3.7423650000      2.3319350000
H                  4.5319230000     -4.8005320000      0.9115960000
H                  5.8077850000     -2.0154380000      1.1839960000
H                  5.3762110000     -1.4168800000     -0.4278120000
H                  5.9478810000     -3.0829010000     -0.2281520000
H                  2.2290650000     -3.4098890000     -0.8096150000
H                  3.8172720000     -3.9504110000     -1.3876980000
H                  3.3154000000     -2.2576970000     -1.5888030000
$end
$rem
MAX_SCF_CYCLES=200
BASIS  =  6-311++G(d,p)
GUI  =  2
JOB_TYPE  =  SP
METHOD  =  B3LYP
SOLVENT_METHOD = PCM
$end
$pcm
theory = CPCM
$end
$solvent
dielectric 37.219
opticaldielectric 1.43
$end

--------------------------------------------------------------

             Standard Nuclear Orientation (Angstroms)
    I     Atom           X                Y                Z
 ----------------------------------------------------------------
    1      C      -0.5301840000    -2.1509690000     1.4827320000
    2      C       0.8617510000    -2.4490350000     1.3458100000
    3      C       1.8243950000    -1.4672610000     1.2112920000
    4      C       1.4383500000    -0.0456590000     1.2037690000
    5      C       0.0513000000     0.2533830000     1.3821340000
    6      C      -0.9111310000    -0.7283460000     1.5185250000
    7      O      -1.4334420000    -3.0431510000     1.5709820000
    8      O       2.3326950000     0.8449230000     1.0404550000
    9      N      -2.2772910000    -0.5455200000     1.7286710000
   10      N       3.2029380000    -1.6481540000     1.1045740000
   11      C      -3.1129700000     0.5454270000     1.2111490000
   12      C      -4.5705890000     0.0724740000     1.3563000000
   13      C      -2.9334250000     1.8226700000     2.0593450000
   14      C      -2.8284050000     0.8482240000    -0.2769090000
   15      C       3.8992620000    -2.7624510000     0.4485580000
   16      C       3.9289950000    -4.0050590000     1.3639410000
   17      C       5.3482260000    -2.2910710000     0.2302080000
   18      C       3.2756460000    -3.1213100000    -0.9186550000
   19      H       1.1117290000    -3.5025370000     1.3534540000
   20      H      -0.1952430000     1.3075420000     1.4018800000
   21      H      -2.7081200000    -1.4683170000     1.6817660000
   22      H       3.6059280000    -0.7301050000     0.9195790000
   23      H      -4.7478310000    -0.8260910000     0.7570000000
   24      H      -5.2645730000     0.8488620000     1.0212390000
   25      H      -4.7927720000    -0.1645280000     2.4009760000
   26      H      -3.1300670000     1.5999280000     3.1114100000
   27      H      -3.6279800000     2.6033830000     1.7292060000
   28      H      -1.9210020000     2.2198320000     1.9854150000
   29      H      -3.0192580000    -0.0407430000    -0.8850250000
   30      H      -1.7869840000     1.1368200000    -0.4272570000
   31      H      -3.4692440000     1.6604530000    -0.6379760000
   32      H       2.9293830000    -4.4012010000     1.5429770000
   33      H       4.3638540000    -3.7423650000     2.3319350000
   34      H       4.5319230000    -4.8005320000     0.9115960000
   35      H       5.8077850000    -2.0154380000     1.1839960000
   36      H       5.3762110000    -1.4168800000    -0.4278120000
   37      H       5.9478810000    -3.0829010000    -0.2281520000
   38      H       2.2290650000    -3.4098890000    -0.8096150000
   39      H       3.8172720000    -3.9504110000    -1.3876980000
   40      H       3.3154000000    -2.2576970000    -1.5888030000
 ----------------------------------------------------------------

    8    -807.0715440457      5.98e-06  Convergence criterion met
 Total energy in the final basis set =     -807.0715440457

                    Orbital Energies (a.u.)
 --------------------------------------------------------------

 Alpha MOs
 -- Occupied --
-19.0677 -19.0676 -14.3067 -14.3066 -10.2120 -10.2119 -10.2108 -10.2108
-10.1963 -10.1963 -10.1529 -10.1529 -10.1496 -10.1495 -10.1490 -10.1490
-10.1407 -10.1407  -0.9944  -0.9909  -0.9183  -0.9182  -0.8121  -0.7901
 -0.7659  -0.7130  -0.6842  -0.6822  -0.6819  -0.6817  -0.6615  -0.6078
 -0.5687  -0.5630  -0.5346  -0.5030  -0.4795  -0.4780  -0.4633  -0.4441
 -0.4439  -0.4406  -0.4223  -0.4211  -0.4132  -0.4111  -0.4069  -0.3981
 -0.3919  -0.3835  -0.3816  -0.3754  -0.3704  -0.3703  -0.3614  -0.3611
 -0.3607  -0.3403  -0.3382  -0.3359  -0.3235  -0.3233  -0.3017  -0.2917
 -0.2448  -0.2358  -0.2308  -0.1964  -0.1395

 Beta MOs
 -- Occupied --
-19.0629 -19.0629 -14.3050 -14.3049 -10.2108 -10.2107 -10.2096 -10.2096
-10.1940 -10.1939 -10.1529 -10.1529 -10.1495 -10.1495 -10.1489 -10.1489
-10.1414 -10.1414  -0.9861  -0.9823  -0.9149  -0.9144  -0.8080  -0.7887
 -0.7641  -0.7118  -0.6840  -0.6817  -0.6817  -0.6814  -0.6524  -0.6055
 -0.5651  -0.5615  -0.5328  -0.5007  -0.4768  -0.4765  -0.4623  -0.4430
 -0.4418  -0.4396  -0.4217  -0.4196  -0.4091  -0.4058  -0.4025  -0.3945
 -0.3901  -0.3808  -0.3777  -0.3751  -0.3683  -0.3620  -0.3610  -0.3605
 -0.3496  -0.3363  -0.3349  -0.3334  -0.3231  -0.3231  -0.2944  -0.2740
 -0.2403  -0.2310  -0.2149  -0.1886

          Ground-State Mulliken Net Atomic Charges

     Atom                 Charge (a.u.)    Spin (a.u.)
  --------------------------------------------------------
      1 C                    -0.303021       0.140076
      2 C                    -0.047613      -0.094426
      3 C                    -0.102830       0.205536
      4 C                    -0.304194       0.140260
      5 C                    -0.051731      -0.093763
      6 C                    -0.103437       0.203779
      7 O                    -0.547505       0.179062
      8 O                    -0.546802       0.178968
      9 N                     0.041540       0.070015
     10 N                     0.043739       0.069706
     11 C                    -0.003646      -0.004192
     12 C                    -0.526871       0.000389
     13 C                    -0.479758       0.002697
     14 C                    -0.503847       0.004780
     15 C                     0.000995      -0.004318
     16 C                    -0.482225       0.002755
     17 C                    -0.526525       0.000284
     18 C                    -0.507332       0.004712
     19 H                     0.243982      -0.001906
     20 H                     0.245209      -0.001775
     21 H                     0.337975      -0.002251
     22 H                     0.338044      -0.002251
     23 H                     0.158855      -0.000171
     24 H                     0.155499      -0.000148
     25 H                     0.159323       0.000966
     26 H                     0.160065       0.000229
     27 H                     0.158100       0.000070
     28 H                     0.124050       0.000319
     29 H                     0.163615       0.000408
     30 H                     0.154975      -0.001384
     31 H                     0.158208       0.000563
     32 H                     0.124838       0.000437
     33 H                     0.160127       0.000243
     34 H                     0.157938       0.000057
     35 H                     0.159127       0.000982
     36 H                     0.158430      -0.000168
     37 H                     0.155165      -0.000148
     38 H                     0.155636      -0.001372
     39 H                     0.158338       0.000575
     40 H                     0.163563       0.000404
  --------------------------------------------------------
  Sum of atomic charges =    -1.000000

                    Cartesian Multipole Moments
 -----------------------------------------------------------------
    Charge (ESU x 10^10)
                -4.8032
    Dipole Moment (Debye)
         X      -2.4145      Y       5.2387      Z      -8.3308
       Tot      10.1330
    Quadrupole Moments (Debye-Ang)
        XX    -121.4091     XY     -23.0782     YY    -140.1853
        XZ      -3.3496     YZ      12.5016     ZZ    -132.4402

 Total job time:  100.24s(wall), 671.15s(cpu)
        *  Thank you very much for using Q-Chem.  Have a nice day.  *
