 Q-Chem 5.4, Q-Chem, Inc., Pleasanton, CA (2021)
 Q-Chem 5.4.0 for Intel X86 EM64T Linux

User input:
--------------------------------------------------------------
$molecule
0 1
C                 -3.2062390000      3.0237620000     -0.2419030000
O                 -1.9031900000      2.5020270000     -0.0211410000
C                 -1.7247970000      1.1622720000      0.0274260000
C                 -2.7838970000      0.2615630000     -0.1103800000
C                 -2.5687440000     -1.1072990000     -0.0826550000
C                 -1.2853240000     -1.6337290000      0.0837750000
O                 -1.0441340000     -2.9644590000      0.0893280000
C                 -2.1231350000     -3.8689170000     -0.1019380000
C                 -0.1911470000     -0.7447730000      0.2271110000
C                  1.1967490000     -1.2836570000      0.4017490000
O                  1.4264070000     -2.4425510000      0.6995510000
C                  2.3299190000     -0.3374850000      0.1834030000
C                  3.6283510000     -0.8422040000      0.0518220000
C                  4.6952710000      0.0279300000     -0.1310180000
C                  4.4778410000      1.4098630000     -0.1577220000
C                  3.1942560000      1.9166870000     -0.0015000000
C                  2.1127310000      1.0430500000      0.1566540000
C                  0.7425570000      1.6030770000      0.3458900000
O                  0.6034420000      2.7866450000      0.5994220000
C                 -0.4117480000      0.6580120000      0.1992050000
H                 -3.0846460000      4.1052620000     -0.2545880000
H                 -3.8925510000      2.7476610000      0.5659770000
H                 -3.6165220000      2.6931460000     -1.2025840000
H                 -3.7939700000      0.6226200000     -0.2431000000
H                 -3.4186170000     -1.7656130000     -0.1946950000
H                 -2.8659450000     -3.7844430000      0.6987050000
H                 -1.6757480000     -4.8606580000     -0.0722210000
H                 -2.6091750000     -3.7187530000     -1.0723870000
H                  3.7748030000     -1.9141450000      0.0971310000
H                  5.6993230000     -0.3644530000     -0.2471780000
H                  5.3136370000      2.0868370000     -0.2945800000
H                  3.0042420000      2.9827250000      0.0024420000
$end

$rem
BASIS  =  6-311++G(d,p)
GUI  =  2
JOB_TYPE  =  SP
METHOD  =  B3LYP
SCF_CONVERGENCE  = 8
SOLVENT_METHOD = sm12
$end

$smx
solvent dimethylformamide
charges CM5
$end

--------------------------------------------------------------

             Standard Nuclear Orientation (Angstroms)
    I     Atom           X                Y                Z
 ----------------------------------------------------------------
    1      C      -3.2062390000     3.0237620000    -0.2419030000
    2      O      -1.9031900000     2.5020270000    -0.0211410000
    3      C      -1.7247970000     1.1622720000     0.0274260000
    4      C      -2.7838970000     0.2615630000    -0.1103800000
    5      C      -2.5687440000    -1.1072990000    -0.0826550000
    6      C      -1.2853240000    -1.6337290000     0.0837750000
    7      O      -1.0441340000    -2.9644590000     0.0893280000
    8      C      -2.1231350000    -3.8689170000    -0.1019380000
    9      C      -0.1911470000    -0.7447730000     0.2271110000
   10      C       1.1967490000    -1.2836570000     0.4017490000
   11      O       1.4264070000    -2.4425510000     0.6995510000
   12      C       2.3299190000    -0.3374850000     0.1834030000
   13      C       3.6283510000    -0.8422040000     0.0518220000
   14      C       4.6952710000     0.0279300000    -0.1310180000
   15      C       4.4778410000     1.4098630000    -0.1577220000
   16      C       3.1942560000     1.9166870000    -0.0015000000
   17      C       2.1127310000     1.0430500000     0.1566540000
   18      C       0.7425570000     1.6030770000     0.3458900000
   19      O       0.6034420000     2.7866450000     0.5994220000
   20      C      -0.4117480000     0.6580120000     0.1992050000
   21      H      -3.0846460000     4.1052620000    -0.2545880000
   22      H      -3.8925510000     2.7476610000     0.5659770000
   23      H      -3.6165220000     2.6931460000    -1.2025840000
   24      H      -3.7939700000     0.6226200000    -0.2431000000
   25      H      -3.4186170000    -1.7656130000    -0.1946950000
   26      H      -2.8659450000    -3.7844430000     0.6987050000
   27      H      -1.6757480000    -4.8606580000    -0.0722210000
   28      H      -2.6091750000    -3.7187530000    -1.0723870000
   29      H       3.7748030000    -1.9141450000     0.0971310000
   30      H       5.6993230000    -0.3644530000    -0.2471780000
   31      H       5.3136370000     2.0868370000    -0.2945800000
   32      H       3.0042420000     2.9827250000     0.0024420000
 ----------------------------------------------------------------

   15    -918.0395635233      2.63e-09  Convergence criterion met
 Total energy in the final basis set =     -918.0661257792

                    Orbital Energies (a.u.)
 --------------------------------------------------------------

 Alpha MOs
 -- Occupied --
-19.1585 -19.1585 -19.1169 -19.1169 -10.2737 -10.2737 -10.2557 -10.2557
-10.2179 -10.2179 -10.2079 -10.2075 -10.2020 -10.2015 -10.1952 -10.1946
-10.1945 -10.1940 -10.1930 -10.1930  -1.0807  -1.0797  -1.0531  -1.0515
 -0.8875  -0.8750  -0.8097  -0.7797  -0.7729  -0.7709  -0.7236  -0.6914
 -0.6855  -0.6573  -0.6420  -0.6038  -0.5774  -0.5597  -0.5577  -0.5230
 -0.5193  -0.5033  -0.4877  -0.4840  -0.4780  -0.4697  -0.4552  -0.4494
 -0.4462  -0.4462  -0.4390  -0.4366  -0.4194  -0.4094  -0.4091  -0.4026
 -0.3939  -0.3771  -0.3680  -0.3650  -0.3550  -0.3457  -0.3392  -0.3069
 -0.2852  -0.2747  -0.2744  -0.2674  -0.2553  -0.2231

          Ground-State Mulliken Net Atomic Charges

     Atom                 Charge (a.u.)
  ----------------------------------------
      1 C                    -0.195902
      2 O                    -0.180587
      3 C                    -1.098401
      4 C                     1.725774
      5 C                     1.723108
      6 C                    -1.096999
      7 O                    -0.180537
      8 C                    -0.196520
      9 C                    -0.309598
     10 C                    -1.376975
     11 O                    -0.263757
     12 C                    -0.413491
     13 C                     0.175551
     14 C                     0.359421
     15 C                     0.360793
     16 C                     0.172287
     17 C                    -0.417891
     18 C                    -1.384537
     19 O                    -0.263928
     20 C                    -0.305706
     21 H                     0.212493
     22 H                     0.228657
     23 H                     0.228380
     24 H                     0.406028
     25 H                     0.405932
     26 H                     0.228801
     27 H                     0.212489
     28 H                     0.228439
     29 H                     0.181341
     30 H                     0.326957
     31 H                     0.327037
     32 H                     0.181343
  ----------------------------------------
  Sum of atomic charges =     0.000000

                    Cartesian Multipole Moments
 -----------------------------------------------------------------
    Charge (ESU x 10^10)
                 0.0000
    Dipole Moment (Debye)
         X      -4.8368      Y      -0.8049      Z      -2.2848
       Tot       5.4095
    Quadrupole Moments (Debye-Ang)
        XX     -77.2640     XY       6.0729     YY    -114.9855
        XZ      -0.8648     YZ      -0.2223     ZZ    -119.0637

 Total job time:  862.04s(wall), 6730.02s(cpu)
        *  Thank you very much for using Q-Chem.  Have a nice day.  *
