 Gaussian 16, Revision A.03,
 Gaussian 16:  ES64L-G16RevA.03 25-Dec-2016

 --------------------------------------
 #P UB3LYP/6-311++G(d,p) nosym opt freq
 --------------------------------------

 --------
 Oxidized
 --------
 Symbolic Z-matrix:
 Charge =  0 Multiplicity = 1

 SCF Done:  E(UB3LYP) =  -918.043394750     A.U. after   16 cycles
 Optimization completed.
    -- Stationary point found.
 Normal termination of Gaussian 16 at Wed Dec 27 19:55:54 2023.

 ----------------------------------------------------------------------
 #P Geom=AllCheck Guess=TCheck SCRF=Check GenChk UB3LYP/6-311++G(d,p) F
 req
 ----------------------------------------------------------------------

 Structure from the checkpoint file:  "139.chk"
 --------
 Oxidized
 --------
 Charge =  0 Multiplicity = 1

                          Input orientation:
 ---------------------------------------------------------------------
 Center     Atomic      Atomic             Coordinates (Angstroms)
 Number     Number       Type             X           Y           Z
 ---------------------------------------------------------------------
      1          6           0       -3.206239    3.023762   -0.241903
      2          8           0       -1.903190    2.502027   -0.021141
      3          6           0       -1.724797    1.162272    0.027426
      4          6           0       -2.783897    0.261563   -0.110380
      5          6           0       -2.568744   -1.107299   -0.082655
      6          6           0       -1.285324   -1.633729    0.083775
      7          8           0       -1.044134   -2.964459    0.089328
      8          6           0       -2.123135   -3.868917   -0.101938
      9          6           0       -0.191147   -0.744773    0.227111
     10          6           0        1.196749   -1.283657    0.401749
     11          8           0        1.426407   -2.442551    0.699551
     12          6           0        2.329919   -0.337485    0.183403
     13          6           0        3.628351   -0.842204    0.051822
     14          6           0        4.695271    0.027930   -0.131018
     15          6           0        4.477841    1.409863   -0.157722
     16          6           0        3.194256    1.916687   -0.001500
     17          6           0        2.112731    1.043050    0.156654
     18          6           0        0.742557    1.603077    0.345890
     19          8           0        0.603442    2.786645    0.599422
     20          6           0       -0.411748    0.658012    0.199205
     21          1           0       -3.084646    4.105262   -0.254588
     22          1           0       -3.892551    2.747661    0.565977
     23          1           0       -3.616522    2.693146   -1.202584
     24          1           0       -3.793970    0.622620   -0.243100
     25          1           0       -3.418617   -1.765613   -0.194695
     26          1           0       -2.865945   -3.784443    0.698705
     27          1           0       -1.675748   -4.860658   -0.072221
     28          1           0       -2.609175   -3.718753   -1.072387
     29          1           0        3.774803   -1.914145    0.097131
     30          1           0        5.699323   -0.364453   -0.247178
     31          1           0        5.313637    2.086837   -0.294580
     32          1           0        3.004242    2.982725    0.002442
 ---------------------------------------------------------------------

 SCF Done:  E(UB3LYP) =  -918.043394750     A.U. after    2 cycles

 Alpha  occ. eigenvalues --  -19.16442 -19.16441 -19.11033 -19.11031 -10.26710
 Alpha  occ. eigenvalues --  -10.26709 -10.25705 -10.25703 -10.23515 -10.23515
 Alpha  occ. eigenvalues --  -10.20744 -10.20699 -10.19943 -10.19885 -10.19560
 Alpha  occ. eigenvalues --  -10.19506 -10.19127 -10.19075 -10.18748 -10.18747
 Alpha  occ. eigenvalues --   -1.08633  -1.08527  -1.04618  -1.04434  -0.88495
 Alpha  occ. eigenvalues --   -0.87360  -0.80790  -0.78458  -0.77013  -0.76748
 Alpha  occ. eigenvalues --   -0.73358  -0.70090  -0.68364  -0.65637  -0.64047
 Alpha  occ. eigenvalues --   -0.60349  -0.57992  -0.56090  -0.55859  -0.53068
 Alpha  occ. eigenvalues --   -0.52215  -0.50255  -0.48790  -0.48460  -0.48283
 Alpha  occ. eigenvalues --   -0.48208  -0.45484  -0.45451  -0.44248  -0.44133
 Alpha  occ. eigenvalues --   -0.43728  -0.43617  -0.43013  -0.41079  -0.41036
 Alpha  occ. eigenvalues --   -0.40004  -0.39754  -0.37500  -0.36396  -0.36318
 Alpha  occ. eigenvalues --   -0.36032  -0.35281  -0.34670  -0.31330  -0.28266
 Alpha  occ. eigenvalues --   -0.27024  -0.26842  -0.26032  -0.24866  -0.22564
 Alpha virt. eigenvalues --   -0.10218  -0.05662  -0.03184  -0.01841  -0.00860
 Alpha virt. eigenvalues --   -0.00558  -0.00169   0.01266   0.01865   0.01936
 Alpha virt. eigenvalues --    0.02043   0.03014   0.03363   0.03555   0.04000

  Beta  occ. eigenvalues --  -19.16442 -19.16441 -19.11033 -19.11031 -10.26710
  Beta  occ. eigenvalues --  -10.26709 -10.25705 -10.25703 -10.23515 -10.23515
  Beta  occ. eigenvalues --  -10.20744 -10.20699 -10.19943 -10.19885 -10.19560
  Beta  occ. eigenvalues --  -10.19506 -10.19127 -10.19075 -10.18748 -10.18747
  Beta  occ. eigenvalues --   -1.08633  -1.08527  -1.04618  -1.04434  -0.88495
  Beta  occ. eigenvalues --   -0.87360  -0.80790  -0.78458  -0.77013  -0.76748
  Beta  occ. eigenvalues --   -0.73358  -0.70090  -0.68364  -0.65637  -0.64047
  Beta  occ. eigenvalues --   -0.60349  -0.57992  -0.56090  -0.55859  -0.53068
  Beta  occ. eigenvalues --   -0.52215  -0.50255  -0.48790  -0.48460  -0.48283
  Beta  occ. eigenvalues --   -0.48208  -0.45484  -0.45451  -0.44248  -0.44133
  Beta  occ. eigenvalues --   -0.43728  -0.43617  -0.43013  -0.41079  -0.41036
  Beta  occ. eigenvalues --   -0.40004  -0.39754  -0.37500  -0.36396  -0.36318
  Beta  occ. eigenvalues --   -0.36032  -0.35281  -0.34670  -0.31330  -0.28266
  Beta  occ. eigenvalues --   -0.27024  -0.26842  -0.26032  -0.24866  -0.22564
  Beta virt. eigenvalues --   -0.10218  -0.05662  -0.03184  -0.01841  -0.00860
  Beta virt. eigenvalues --   -0.00558  -0.00169   0.01266   0.01865   0.01936
  Beta virt. eigenvalues --    0.02043   0.03014   0.03363   0.03555   0.04000

 Mulliken charges and spin densities:
               1          2
     1  C   -0.306980  -0.000000
     2  O   -0.093806  -0.000000
     3  C   -0.383771   0.000000
     4  C   -0.070218  -0.000000
     5  C   -0.071238  -0.000000
     6  C   -0.381799   0.000000
     7  O   -0.093782  -0.000000
     8  C   -0.306937   0.000000
     9  C    0.135383  -0.000000
    10  C   -0.387604   0.000000
    11  O   -0.215861  -0.000000
    12  C    0.459901   0.000000
    13  C    0.162547  -0.000000
    14  C   -0.336297   0.000000
    15  C   -0.335790   0.000000
    16  C    0.161248  -0.000000
    17  C    0.459794  -0.000000
    18  C   -0.390946   0.000000
    19  O   -0.215899  -0.000000
    20  C    0.135070  -0.000000
    21  H    0.203970  -0.000000
    22  H    0.149603  -0.000000
    23  H    0.144489  -0.000000
    24  H    0.183559   0.000000
    25  H    0.183555  -0.000000
    26  H    0.149521  -0.000000
    27  H    0.204040   0.000000
    28  H    0.144484  -0.000000
    29  H    0.183995   0.000000
    30  H    0.172862  -0.000000
    31  H    0.172904  -0.000000
    32  H    0.184002   0.000000
 Sum of Mulliken charges =  -0.00000  -0.00000

 Dipole moment (field-independent basis, Debye):
    X=             -3.5918    Y=             -0.6027    Z=             -1.9504  Tot=              4.1314
 Quadrupole moment (field-independent basis, Debye-Ang):
   XX=            -84.9531   YY=           -116.1758   ZZ=           -118.9297
   XY=              5.0254   XZ=             -0.8373   YZ=             -0.1904

  Exact polarizability: 288.557   7.389 243.101   2.624  -2.237 107.966
 Approx polarizability: 415.384  -1.282 423.915   5.194  -4.066 175.337

                      1                      2                      3
                      A                      A                      A
 Frequencies --     31.6179                31.9527                70.1974
 Red. masses --      6.5536                 6.6585                 3.2522
 Frc consts  --      0.0039                 0.0040                 0.0094
 IR Inten    --      3.3057                 5.7792                 1.0721

                      4                      5                      6
                      A                      A                      A
 Frequencies --     88.3995               102.4491               108.3716
 Red. masses --      3.5271                 4.1584                 4.5593
 Frc consts  --      0.0162                 0.0257                 0.0315
 IR Inten    --      0.0657                 2.0942                 0.3662

                      7                      8                      9
                      A                      A                      A
 Frequencies --    162.9137               165.6190               191.9726
 Red. masses --      6.5914                 4.9696                 3.4028
 Frc consts  --      0.1031                 0.0803                 0.0739
 IR Inten    --      2.8688                 2.4912                 0.4930

                     10                     11                     12
                      A                      A                      A
 Frequencies --    240.7473               248.2083               264.5292
 Red. masses --      1.0752                 4.8204                 1.1868
 Frc consts  --      0.0367                 0.1750                 0.0489
 IR Inten    --      0.0051                 1.0503                 1.0779

                     13                     14                     15
                      A                      A                      A
 Frequencies --    277.2237               325.6209               328.6946
 Red. masses --      5.6715                 5.2525                 3.9921
 Frc consts  --      0.2568                 0.3281                 0.2541
 IR Inten    --      0.0731                 0.0413                 5.3464

                     16                     17                     18
                      A                      A                      A
 Frequencies --    356.9062               383.7682               391.5903
 Red. masses --      8.8766                 4.8517                 7.5704
 Frc consts  --      0.6662                 0.4210                 0.6840
 IR Inten    --      1.0771                 0.0100                12.2225

                     19                     20                     21
                      A                      A                      A
 Frequencies --    396.8029               425.0853               427.9054
 Red. masses --     10.5171                 3.6816                 5.5404
 Frc consts  --      0.9757                 0.3920                 0.5977
 IR Inten    --     11.9809                 0.7310                 0.5172

                     22                     23                     24
                      A                      A                      A
 Frequencies --    481.3968               502.9971               513.5425
 Red. masses --      8.9807                 4.7592                 6.3597
 Frc consts  --      1.2262                 0.7094                 0.9882
 IR Inten    --      0.1221                 0.1305                 0.7026

                     25                     26                     27
                      A                      A                      A
 Frequencies --    571.1268               593.5037               633.5545
 Red. masses --      5.5321                 3.3616                 5.1923
 Frc consts  --      1.0632                 0.6977                 1.2279
 IR Inten    --      0.8169                15.4050                 0.0007

                     28                     29                     30
                      A                      A                      A
 Frequencies --    670.1853               682.9815               717.1644
 Red. masses --      6.5023                 5.2316                 5.7352
 Frc consts  --      1.7207                 1.4378                 1.7379
 IR Inten    --     14.6237                 0.0117                 7.8329

                     31                     32                     33
                      A                      A                      A
 Frequencies --    740.2199               742.9197               756.3240
 Red. masses --      6.0836                 1.8546                 5.9371
 Frc consts  --      1.9640                 0.6031                 2.0010
 IR Inten    --     12.8232                45.1755                 2.6273

                     34                     35                     36
                      A                      A                      A
 Frequencies --    811.1141               828.2933               830.6472
 Red. masses --      1.8363                 2.0967                 5.9356
 Frc consts  --      0.7118                 0.8475                 2.4129
 IR Inten    --     39.3024                21.2687                 0.4568

                     37                     38                     39
                      A                      A                      A
 Frequencies --    863.0184               871.0595               912.0228
 Red. masses --      7.0548                 8.4373                 1.4547
 Frc consts  --      3.0958                 3.7718                 0.7129
 IR Inten    --     47.5578                 3.0477                 0.0002

                     40                     41                     42
                      A                      A                      A
 Frequencies --    928.9150               931.3680               996.5587
 Red. masses --      4.4526                 1.4497                 1.4100
 Frc consts  --      2.2637                 0.7409                 0.8250
 IR Inten    --      0.1812                 0.0006                 3.9319

                     43                     44                     45
                      A                      A                      A
 Frequencies --   1006.6934              1013.4051              1055.0302
 Red. masses --      6.6369                 1.3205                 2.2079
 Frc consts  --      3.9629                 0.7990                 1.4480
 IR Inten    --    215.1199                 0.0032                 3.8281

                     46                     47                     48
                      A                      A                      A
 Frequencies --   1092.0447              1113.2051              1117.3910
 Red. masses --      9.0322                 2.4234                 4.0653
 Frc consts  --      6.3464                 1.7694                 2.9906
 IR Inten    --    127.1582                 2.5665                 0.0807

                     49                     50                     51
                      A                      A                      A
 Frequencies --   1164.7981              1165.3285              1180.7840
 Red. masses --      1.2727                 1.2734                 1.1423
 Frc consts  --      1.0174                 1.0188                 0.9383
 IR Inten    --      0.2024                 1.7310                10.1289

                     52                     53                     54
                      A                      A                      A
 Frequencies --   1185.2279              1189.3083              1205.2659
 Red. masses --      2.4241                 1.4352                 1.3582
 Frc consts  --      2.0063                 1.1961                 1.1624
 IR Inten    --     16.5362                 0.0366                 1.8548

                     55                     56                     57
                      A                      A                      A
 Frequencies --   1210.9813              1256.3120              1266.0981
 Red. masses --      1.3373                 1.9721                 5.0749
 Frc consts  --      1.1554                 1.8339                 4.7930
 IR Inten    --     74.6654                 0.2524               587.5597

                     58                     59                     60
                      A                      A                      A
 Frequencies --   1291.2911              1306.1316              1319.9830
 Red. masses --      2.3530                 5.7228                 3.3021
 Frc consts  --      2.3117                 5.7522                 3.3898
 IR Inten    --    317.2181               179.4927                92.4200

                     61                     62                     63
                      A                      A                      A
 Frequencies --   1337.5788              1359.1190              1423.8073
 Red. masses --      8.2861                 7.6556                 5.3541
 Frc consts  --      8.7345                 8.3319                 6.3950
 IR Inten    --     63.6111                 0.2993                66.0157

                     64                     65                     66
                      A                      A                      A
 Frequencies --   1460.4714              1479.0966              1480.1343
 Red. masses --      1.5408                 1.2075                 2.3660
 Frc consts  --      1.9364                 1.5564                 3.0539
 IR Inten    --     80.4491                 0.6310                 0.1130

                     67                     68                     69
                      A                      A                      A
 Frequencies --   1495.0190              1495.9542              1496.1168
 Red. masses --      1.3147                 1.0485                 1.1253
 Frc consts  --      1.7313                 1.3825                 1.4840
 IR Inten    --     74.9111                18.9661                23.1444

                     70                     71                     72
                      A                      A                      A
 Frequencies --   1502.3855              1505.4659              1508.3321
 Red. masses --      1.0683                 1.2770                 2.5327
 Frc consts  --      1.4207                 1.7052                 3.3950
 IR Inten    --      6.6612                 0.3305                 0.2582

                     73                     74                     75
                      A                      A                      A
 Frequencies --   1598.8238              1618.5239              1626.0157
 Red. masses --      5.6765                 6.5838                 7.0797
 Frc consts  --      8.5493                10.1617                11.0285
 IR Inten    --    134.3968                23.6408                50.1818

                     76                     77                     78
                      A                      A                      A
 Frequencies --   1630.9599              1721.5524              1726.8829
 Red. masses --      5.8175                12.1719                12.5210
 Frc consts  --      9.1175                21.2543                21.9997
 IR Inten    --     52.8075                24.5791               390.1440

                     79                     80                     81
                      A                      A                      A
 Frequencies --   3001.0975              3001.9800              3061.3257
 Red. masses --      1.0351                 1.0353                 1.1061
 Frc consts  --      5.4929                 5.4969                 6.1076
 IR Inten    --     40.1642               107.1870                 6.8250

                     82                     83                     84
                      A                      A                      A
 Frequencies --   3061.4431              3137.6613              3137.7800
 Red. masses --      1.1061                 1.0984                 1.0984
 Frc consts  --      6.1082                 6.3710                 6.3716
 IR Inten    --     66.2779                31.6909                 0.2331

                     85                     86                     87
                      A                      A                      A
 Frequencies --   3167.2827              3182.2041              3200.1159
 Red. masses --      1.0868                 1.0920                 1.0924
 Frc consts  --      6.4237                 6.5149                 6.5910
 IR Inten    --      3.7101                14.4484                 0.8243

                     88                     89                     90
                      A                      A                      A
 Frequencies --   3202.5146              3204.8397              3219.5583
 Red. masses --      1.0945                 1.0867                 1.0932
 Frc consts  --      6.6138                 6.5764                 6.6762
 IR Inten    --     12.8548                 6.5392                 4.7691

 - Thermochemistry -
 -------------------
 Temperature   298.150 Kelvin.  Pressure   1.00000 Atm.
 Atom     1 has atomic number  6 and mass  12.00000

 Molecular mass:   268.07356 amu.
 Principal axes and moments of inertia in atomic units:
                           1         2         3
     Eigenvalues --  3849.023235819.078989525.50725
           X            0.98756  -0.15557  -0.02275
           Y            0.15596   0.98763   0.01633
           Z            0.01993  -0.01967   0.99961
 This molecule is an asymmetric top.
 Rotational symmetry number  1.
 Warning -- assumption of classical behavior for rotation
           may cause significant error
 Rotational temperatures (Kelvin)      0.02250     0.01488     0.00909
 Rotational constants (GHZ):           0.46888     0.31014     0.18946
 Zero-point vibrational energy     638703.0 (Joules/Mol)
                                  152.65369 (Kcal/Mol)
 Warning -- explicit consideration of  26 degrees of freedom as
           vibrations may cause significant error
 Vibrational temperatures:     45.49    45.97   101.00   127.19   147.40
          (Kelvin)            155.92   234.40   238.29   276.21   346.38
                              357.12   380.60   398.86   468.50   472.92
                              513.51   552.16   563.41   570.91   611.60
                              615.66   692.62   723.70   738.87   821.72
                              853.92   911.54   964.25   982.66  1031.84
                             1065.01  1068.90  1088.18  1167.01  1191.73
                             1195.12  1241.69  1253.26  1312.20  1336.50
                             1340.03  1433.83  1448.41  1458.06  1517.95
                             1571.21  1601.65  1607.68  1675.88  1676.65
                             1698.88  1705.28  1711.15  1734.11  1742.33
                             1807.55  1821.63  1857.88  1879.23  1899.16
                             1924.48  1955.47  2048.54  2101.29  2128.09
                             2129.58  2151.00  2152.34  2152.58  2161.60
                             2166.03  2170.15  2300.35  2328.69  2339.47
                             2346.59  2476.93  2484.60  4317.91  4319.18
                             4404.56  4404.73  4514.39  4514.57  4557.01
                             4578.48  4604.25  4607.70  4611.05  4632.23

 Zero-point correction=                           0.243269 (Hartree/Particle)
 Thermal correction to Energy=                    0.259977
 Thermal correction to Enthalpy=                  0.260921
 Thermal correction to Gibbs Free Energy=         0.198095
 Sum of electronic and zero-point Energies=           -917.800126
 Sum of electronic and thermal Energies=              -917.783418
 Sum of electronic and thermal Enthalpies=            -917.782473
 Sum of electronic and thermal Free Energies=         -917.845299

                     E (Thermal)             CV                S
                      KCal/Mol        Cal/Mol-Kelvin    Cal/Mol-Kelvin
 Total                  163.138             64.271            132.228
 Electronic               0.000              0.000              0.000
 Translational            0.889              2.981             42.657
 Rotational               0.889              2.981             33.722
 Vibrational            161.361             58.309             55.849
 Vibration     1          0.594              1.983              5.725
 Vibration     2          0.594              1.983              5.704
 Vibration     3          0.598              1.968              4.148
 Vibration     4          0.601              1.957              3.695
 Vibration     5          0.605              1.947              3.407
 Vibration     6          0.606              1.943              3.298
 Vibration     7          0.623              1.888              2.516
 Vibration     8          0.624              1.885              2.485
 Vibration     9          0.634              1.851              2.209
 Vibration    10          0.658              1.778              1.797
 Vibration    11          0.662              1.766              1.743
 Vibration    12          0.671              1.738              1.632
 Vibration    13          0.678              1.716              1.551
 Vibration    14          0.710              1.624              1.282
 Vibration    15          0.712              1.618              1.266
 Vibration    16          0.732              1.561              1.136
 Vibration    17          0.753              1.505              1.024
 Vibration    18          0.759              1.488              0.994
 Vibration    19          0.763              1.477              0.974
 Vibration    20          0.787              1.416              0.875
 Vibration    21          0.789              1.409              0.866
 Vibration    22          0.838              1.291              0.706
 Vibration    23          0.858              1.243              0.651
 Vibration    24          0.869              1.220              0.625
 Vibration    25          0.927              1.094              0.502
 Vibration    26          0.951              1.046              0.461

                           ! Non-Optimized Parameters !
 Normal termination of Gaussian 16 at Wed Dec 27 21:32:31 2023.
