 Q-Chem 5.4, Q-Chem, Inc., Pleasanton, CA (2021)
 Q-Chem 5.4.0 for Intel X86 EM64T Linux

User input:
--------------------------------------------------------------
$molecule
0 1
C                  1.3491530000      1.4895290000     -2.4702500000
C                 -0.0883360000      1.7427850000     -2.7019630000
C                 -1.0633830000      0.9765630000     -2.1812580000
C                 -0.6829530000     -0.1922050000     -1.3238680000
C                  0.7569820000     -0.4424440000     -1.0734570000
O                  2.2048090000      2.2186620000     -2.9444120000
O                 -1.5329430000     -0.9234560000     -0.8433630000
H                 -0.3068470000      2.6060880000     -3.3224120000
C                  1.7191440000      0.3175480000     -1.6168360000
C                  3.1843380000      0.0808760000     -1.3017940000
C                  4.0840360000     -0.4253660000     -2.3725110000
C                  5.4615680000     -0.4846560000     -2.1164890000
C                  3.5936340000     -0.8643530000     -3.6082770000
C                  6.3311770000     -0.9694520000     -3.0842200000
C                  5.8344000000     -1.4078510000     -4.3139620000
C                  4.4660520000     -1.3576700000     -4.5740990000
O                  3.5692080000      0.2946520000     -0.1686760000
H                  5.8261430000     -0.1432250000     -1.1555200000
H                  2.5307940000     -0.8309270000     -3.8168820000
H                  7.3959510000     -1.0074590000     -2.8848910000
H                  6.5145660000     -1.7873290000     -5.0683000000
H                  4.0803570000     -1.6999520000     -5.5273320000
C                 -2.5251830000      1.2163880000     -2.3977850000
H                  0.9808170000     -1.2843110000     -0.4267530000
H                 -2.6899200000      2.0836680000     -3.0378680000
H                 -3.0330790000      1.3745740000     -1.4423500000
H                 -2.9948350000      0.3395950000     -2.8519840000
$end
$rem
MAX_SCF_CYCLES=200
BASIS  =  6-311++G(d,p)
GUI  =  2
JOB_TYPE  =  SP
METHOD  =  B3LYP
SOLVENT_METHOD = PCM
$end
$pcm
theory = CPCM
$end
$solvent
dielectric 37.219
opticaldielectric 1.43
$end

--------------------------------------------------------------

             Standard Nuclear Orientation (Angstroms)
    I     Atom           X                Y                Z
 ----------------------------------------------------------------
    1      C       1.3491530000     1.4895290000    -2.4702500000
    2      C      -0.0883360000     1.7427850000    -2.7019630000
    3      C      -1.0633830000     0.9765630000    -2.1812580000
    4      C      -0.6829530000    -0.1922050000    -1.3238680000
    5      C       0.7569820000    -0.4424440000    -1.0734570000
    6      O       2.2048090000     2.2186620000    -2.9444120000
    7      O      -1.5329430000    -0.9234560000    -0.8433630000
    8      H      -0.3068470000     2.6060880000    -3.3224120000
    9      C       1.7191440000     0.3175480000    -1.6168360000
   10      C       3.1843380000     0.0808760000    -1.3017940000
   11      C       4.0840360000    -0.4253660000    -2.3725110000
   12      C       5.4615680000    -0.4846560000    -2.1164890000
   13      C       3.5936340000    -0.8643530000    -3.6082770000
   14      C       6.3311770000    -0.9694520000    -3.0842200000
   15      C       5.8344000000    -1.4078510000    -4.3139620000
   16      C       4.4660520000    -1.3576700000    -4.5740990000
   17      O       3.5692080000     0.2946520000    -0.1686760000
   18      H       5.8261430000    -0.1432250000    -1.1555200000
   19      H       2.5307940000    -0.8309270000    -3.8168820000
   20      H       7.3959510000    -1.0074590000    -2.8848910000
   21      H       6.5145660000    -1.7873290000    -5.0683000000
   22      H       4.0803570000    -1.6999520000    -5.5273320000
   23      C      -2.5251830000     1.2163880000    -2.3977850000
   24      H       0.9808170000    -1.2843110000    -0.4267530000
   25      H      -2.6899200000     2.0836680000    -3.0378680000
   26      H      -3.0330790000     1.3745740000    -1.4423500000
   27      H      -2.9948350000     0.3395950000    -2.8519840000
 ----------------------------------------------------------------

    9    -765.3783404220      3.05e-06  Convergence criterion met
 Total energy in the final basis set =     -765.3783404220

                    Orbital Energies (a.u.)
 --------------------------------------------------------------

 Alpha MOs
 -- Occupied --
-19.1494 -19.1482 -19.1405 -10.2954 -10.2926 -10.2924 -10.2279 -10.2238
-10.2198 -10.2062 -10.2013 -10.1966 -10.1931 -10.1928 -10.1887 -10.1884
-10.1767  -1.0821  -1.0793  -1.0740  -0.8796  -0.8727  -0.8212  -0.7806
 -0.7657  -0.7340  -0.7139  -0.6581  -0.6347  -0.6253  -0.6084  -0.5686
 -0.5391  -0.5368  -0.5051  -0.4914  -0.4792  -0.4773  -0.4649  -0.4570
 -0.4515  -0.4497  -0.4413  -0.4390  -0.4290  -0.4178  -0.4110  -0.4107
 -0.3930  -0.3797  -0.3753  -0.3596  -0.3215  -0.3023  -0.2994  -0.2933
 -0.2773  -0.2742  -0.2724

          Ground-State Mulliken Net Atomic Charges

     Atom                 Charge (a.u.)
  ----------------------------------------
      1 C                    -0.846924
      2 C                    -0.451706
      3 C                     0.988640
      4 C                    -0.922933
      5 C                     0.453027
      6 O                    -0.276025
      7 O                    -0.273387
      8 H                     0.251951
      9 C                     1.129357
     10 C                    -0.596510
     11 C                     0.929410
     12 C                     0.332408
     13 C                    -0.799499
     14 C                    -0.481105
     15 C                    -0.283241
     16 C                    -0.335135
     17 O                    -0.266509
     18 H                     0.227583
     19 H                     0.199998
     20 H                     0.219862
     21 H                     0.205685
     22 H                     0.233366
     23 C                    -0.514678
     24 H                     0.295746
     25 H                     0.179752
     26 H                     0.200617
     27 H                     0.200251
  ----------------------------------------
  Sum of atomic charges =     0.000000

                    Cartesian Multipole Moments
 -----------------------------------------------------------------
    Charge (ESU x 10^10)
                 0.0000
    Dipole Moment (Debye)
         X      -1.0518      Y      -1.3770      Z      -4.5083
       Tot       4.8299
    Quadrupole Moments (Debye-Ang)
        XX     -88.8562     XY     -20.9187     YY    -102.3047
        XZ      -7.1256     YZ       8.8354     ZZ     -80.4997

 Total job time:  42.37s(wall), 308.89s(cpu)
        *  Thank you very much for using Q-Chem.  Have a nice day.  *
