 Gaussian 16, Revision A.03,
 Gaussian 16:  ES64L-G16RevA.03 25-Dec-2016

 ----------------------------------------------------------------------
 #P UB3LYP/6-311++G(d,p) nosym opt freq SCRF=(PCM,Solvent=n,n-DiMethylF
 ormamide)
 ----------------------------------------------------------------------

 --------
 Oxidized
 --------
 Symbolic Z-matrix:
 Charge =  0 Multiplicity = 1

 SCF Done:  E(UB3LYP) =  -767.620303881     A.U. after   15 cycles
 SCF Done:  E(UB3LYP) =  -767.620408154     A.U. after   11 cycles
 SCF Done:  E(UB3LYP) =  -767.620420361     A.U. after   10 cycles
 SCF Done:  E(UB3LYP) =  -767.620420998     A.U. after    9 cycles
 Optimization completed.
    -- Stationary point found.
 Normal termination of Gaussian 16 at Sat Feb 10 16:03:00 2024.

 ----------------------------------------------------------------------
 #P Geom=AllCheck Guess=TCheck SCRF=Check GenChk UB3LYP/6-311++G(d,p) F
 req
 ----------------------------------------------------------------------

 Structure from the checkpoint file:  "129.chk"
 --------
 Oxidized
 --------
 Charge =  0 Multiplicity = 1

                          Input orientation:
 ---------------------------------------------------------------------
 Center     Atomic      Atomic             Coordinates (Angstroms)
 Number     Number       Type             X           Y           Z
 ---------------------------------------------------------------------
      1          6           0       -3.771663    1.767595   -0.348250
      2          6           0       -2.546326    0.917742   -0.137507
      3          6           0       -1.280421    1.432097   -0.414174
      4          6           0       -0.120107    0.675361   -0.232447
      5          6           0        1.202444    1.276978   -0.543326
      6          8           0        1.301528    2.426043   -0.958571
      7          6           0        2.411750    0.430081   -0.330876
      8          6           0        3.674863    0.960380   -0.611166
      9          6           0        4.817821    0.190626   -0.422434
     10          6           0        4.708391   -1.120095    0.049230
     11          6           0        3.456367   -1.656378    0.330881
     12          6           0        2.301513   -0.890288    0.144769
     13          6           0        0.971570   -1.490333    0.454682
     14          8           0        0.879073   -2.640210    0.869192
     15          6           0       -0.230111   -0.642554    0.242845
     16          6           0       -1.496919   -1.161682    0.521593
     17          6           0       -2.657079   -0.409771    0.341922
     18          6           0       -4.003042   -1.007840    0.656182
     19          1           0       -3.504125    2.757776   -0.718134
     20          1           0       -4.453792    1.306509   -1.069397
     21          1           0       -4.333127    1.891035    0.583115
     22          1           0       -1.179800    2.446636   -0.780762
     23          1           0        3.745051    1.977115   -0.976341
     24          1           0        5.793304    0.608474   -0.641757
     25          1           0        5.598889   -1.719876    0.195926
     26          1           0        3.356917   -2.670488    0.696529
     27          1           0       -1.566129   -2.179071    0.887627
     28          1           0       -4.522689   -0.429715    1.426727
     29          1           0       -4.650497   -1.011813   -0.226207
     30          1           0       -3.903651   -2.034337    1.010129
 ---------------------------------------------------------------------

 SCF Done:  E(UB3LYP) =  -767.620420998     A.U. after    1 cycles

 Alpha  occ. eigenvalues --  -19.12979 -19.12978 -10.28218 -10.28217 -10.20923
 Alpha  occ. eigenvalues --  -10.20873 -10.20566 -10.20519 -10.20477 -10.20426
 Alpha  occ. eigenvalues --  -10.19916 -10.19870 -10.19804 -10.19799 -10.19277
 Alpha  occ. eigenvalues --  -10.19275 -10.17423 -10.17421  -1.06294  -1.06110
 Alpha  occ. eigenvalues --   -0.89502  -0.88402  -0.82408  -0.78785  -0.78348
 Alpha  occ. eigenvalues --   -0.77865  -0.72715  -0.70884  -0.67841  -0.64833
 Alpha  occ. eigenvalues --   -0.62528  -0.61515  -0.58648  -0.54986  -0.54619
 Alpha  occ. eigenvalues --   -0.50737  -0.49536  -0.47711  -0.46953  -0.45734
 Alpha  occ. eigenvalues --   -0.45669  -0.45193  -0.45011  -0.44800  -0.44242
 Alpha  occ. eigenvalues --   -0.42887  -0.41803  -0.40894  -0.39915  -0.39714
 Alpha  occ. eigenvalues --   -0.38817  -0.38611  -0.37100  -0.36621  -0.35808
 Alpha  occ. eigenvalues --   -0.35742  -0.28738  -0.28646  -0.27958  -0.27498
 Alpha  occ. eigenvalues --   -0.27188  -0.26409
 Alpha virt. eigenvalues --   -0.11819  -0.07267  -0.03472  -0.02531  -0.00877
 Alpha virt. eigenvalues --   -0.00167   0.00862   0.01464   0.01812   0.02898
 Alpha virt. eigenvalues --    0.03253   0.03333   0.03712   0.03730   0.03735

  Beta  occ. eigenvalues --  -19.12979 -19.12978 -10.28218 -10.28217 -10.20923
  Beta  occ. eigenvalues --  -10.20873 -10.20566 -10.20519 -10.20477 -10.20426
  Beta  occ. eigenvalues --  -10.19916 -10.19870 -10.19804 -10.19799 -10.19277
  Beta  occ. eigenvalues --  -10.19275 -10.17423 -10.17421  -1.06294  -1.06110
  Beta  occ. eigenvalues --   -0.89502  -0.88402  -0.82408  -0.78785  -0.78348
  Beta  occ. eigenvalues --   -0.77865  -0.72715  -0.70884  -0.67841  -0.64833
  Beta  occ. eigenvalues --   -0.62528  -0.61515  -0.58648  -0.54986  -0.54619
  Beta  occ. eigenvalues --   -0.50737  -0.49536  -0.47711  -0.46953  -0.45734
  Beta  occ. eigenvalues --   -0.45669  -0.45193  -0.45011  -0.44800  -0.44242
  Beta  occ. eigenvalues --   -0.42887  -0.41803  -0.40894  -0.39915  -0.39714
  Beta  occ. eigenvalues --   -0.38817  -0.38611  -0.37100  -0.36621  -0.35808
  Beta  occ. eigenvalues --   -0.35742  -0.28738  -0.28646  -0.27958  -0.27498
  Beta  occ. eigenvalues --   -0.27188  -0.26409
  Beta virt. eigenvalues --   -0.11819  -0.07267  -0.03472  -0.02531  -0.00877
  Beta virt. eigenvalues --   -0.00167   0.00862   0.01464   0.01812   0.02898
  Beta virt. eigenvalues --    0.03253   0.03333   0.03712   0.03730   0.03735

 Mulliken charges and spin densities:
               1          2
     1  C   -0.478470  -0.000000
     2  C    0.411103   0.000000
     3  C   -0.074680   0.000000
     4  C   -0.003418  -0.000000
     5  C   -0.611168  -0.000000
     6  O   -0.280640   0.000000
     7  C    0.218831  -0.000000
     8  C    0.136400   0.000000
     9  C   -0.379963   0.000000
    10  C   -0.379889  -0.000000
    11  C    0.136487   0.000000
    12  C    0.219540  -0.000000
    13  C   -0.610974   0.000000
    14  O   -0.280642   0.000000
    15  C   -0.003594  -0.000000
    16  C   -0.075022   0.000000
    17  C    0.410536   0.000000
    18  C   -0.478092   0.000000
    19  H    0.184863   0.000000
    20  H    0.170284  -0.000000
    21  H    0.169923  -0.000000
    22  H    0.143373  -0.000000
    23  H    0.184425  -0.000000
    24  H    0.208897  -0.000000
    25  H    0.208876   0.000000
    26  H    0.184483  -0.000000
    27  H    0.143455  -0.000000
    28  H    0.170321  -0.000000
    29  H    0.169856  -0.000000
    30  H    0.184901   0.000000
 Sum of Mulliken charges =  -0.00000   0.00000

 Dipole moment (field-independent basis, Debye):
    X=             -1.7311    Y=              0.1706    Z=              0.0738  Tot=              1.7410
 Quadrupole moment (field-independent basis, Debye-Ang):
   XX=            -67.8630   YY=           -116.9674   ZZ=           -108.2782
   XY=             -4.6893   XZ=             -1.2301   YZ=              3.8896

  Exact polarizability: 398.131 -12.816 290.754 -14.991 -54.652 154.413
 Approx polarizability: 415.906  -7.446 371.272 -16.393 -74.780 186.468

                      1                      2                      3
                      A                      A                      A
 Frequencies --     34.0745                73.2656               112.8056
 Red. masses --      6.4342                 3.6630                 4.8409
 Frc consts  --      0.0044                 0.0116                 0.0363
 IR Inten    --     10.7353                 0.0016                 0.0016

                      4                      5                      6
                      A                      A                      A
 Frequencies --    118.4994               129.6547               168.9776
 Red. masses --      4.1044                 1.0459                 1.3380
 Frc consts  --      0.0340                 0.0104                 0.0225
 IR Inten    --      1.2207                 0.0021                 2.6825

                      7                      8                      9
                      A                      A                      A
 Frequencies --    172.8308               194.9239               219.1712
 Red. masses --      4.3444                 2.9962                 3.5176
 Frc consts  --      0.0765                 0.0671                 0.0996
 IR Inten    --      1.9954                 0.1842                 0.0003

                     10                     11                     12
                      A                      A                      A
 Frequencies --    279.0533               291.5947               326.4761
 Red. masses --      5.7461                 2.9814                 4.2592
 Frc consts  --      0.2636                 0.1494                 0.2675
 IR Inten    --      0.2671                 1.7367                 6.2574

                     13                     14                     15
                      A                      A                      A
 Frequencies --    333.7920               369.3439               388.2510
 Red. masses --      4.5806                 5.9829                11.4276
 Frc consts  --      0.3007                 0.4809                 1.0149
 IR Inten    --      0.4194                 0.0422                47.3970

                     16                     17                     18
                      A                      A                      A
 Frequencies --    424.9894               448.3790               453.7844
 Red. masses --      3.1975                 2.9354                 4.7505
 Frc consts  --      0.3403                 0.3477                 0.5764
 IR Inten    --      5.5222                 2.1649                 0.0012

                     19                     20                     21
                      A                      A                      A
 Frequencies --    465.4198               475.1666               566.9460
 Red. masses --      4.2069                12.4178                 4.7638
 Frc consts  --      0.5369                 1.6519                 0.9022
 IR Inten    --      0.1636                 0.2034                 0.0009

                     22                     23                     24
                      A                      A                      A
 Frequencies --    569.1116               624.6084               673.2968
 Red. masses --      4.4554                 6.7592                 6.0794
 Frc consts  --      0.8502                 1.5537                 1.6238
 IR Inten    --      0.8328                32.6621                 0.8703

                     25                     26                     27
                      A                      A                      A
 Frequencies --    681.6321               700.8276               726.1878
 Red. masses --      4.0002                 6.2793                 4.0169
 Frc consts  --      1.0950                 1.8171                 1.2481
 IR Inten    --      0.0001                 0.5372                 0.1101

                     28                     29                     30
                      A                      A                      A
 Frequencies --    730.8944               742.5753               761.1687
 Red. masses --      2.0867                 6.8281                 4.5307
 Frc consts  --      0.6568                 2.2184                 1.5466
 IR Inten    --    131.4617                 0.4019                 9.2470

                     31                     32                     33
                      A                      A                      A
 Frequencies --    805.8337               810.8613               873.7170
 Red. masses --      4.9044                 1.9259                 6.0458
 Frc consts  --      1.8764                 0.7461                 2.7192
 IR Inten    --      0.0113                10.9656                 0.2477

                     34                     35                     36
                      A                      A                      A
 Frequencies --    914.1133               928.5711               929.6885
 Red. masses --      1.3695                 1.3953                 1.3894
 Frc consts  --      0.6743                 0.7088                 0.7075
 IR Inten    --      0.0030                15.3521                 4.2418

                     37                     38                     39
                      A                      A                      A
 Frequencies --    967.1326              1002.4532              1019.2786
 Red. masses --      3.6571                 1.3880                 1.5354
 Frc consts  --      2.0154                 0.8218                 0.9399
 IR Inten    --    211.9586                 2.3232                 0.5448

                     40                     41                     42
                      A                      A                      A
 Frequencies --   1023.8910              1033.4974              1046.0652
 Red. masses --      1.3348                 1.5946                 1.4759
 Frc consts  --      0.8245                 1.0035                 0.9515
 IR Inten    --      0.0006                 0.2824                15.8709

                     43                     44                     45
                      A                      A                      A
 Frequencies --   1057.2260              1067.9686              1085.3394
 Red. masses --      1.9169                 1.6506                 5.8466
 Frc consts  --      1.2623                 1.1092                 4.0577
 IR Inten    --      0.5644                 0.0032                14.5880

                     46                     47                     48
                      A                      A                      A
 Frequencies --   1118.3180              1173.0512              1185.2221
 Red. masses --      2.0122                 1.3811                 1.3564
 Frc consts  --      1.4827                 1.1197                 1.1226
 IR Inten    --      7.5139                 1.7718                19.0049

                     49                     50                     51
                      A                      A                      A
 Frequencies --   1200.5073              1229.3404              1239.4685
 Red. masses --      4.4989                 2.1070                 3.1978
 Frc consts  --      3.8202                 1.8761                 2.8945
 IR Inten    --      2.2266                 0.0571               130.5929

                     52                     53                     54
                      A                      A                      A
 Frequencies --   1274.0705              1302.5106              1308.8895
 Red. masses --      1.3318                 2.1541                 7.7075
 Frc consts  --      1.2737                 2.1532                 7.7798
 IR Inten    --     21.6174                20.5534              1344.1105

                     55                     56                     57
                      A                      A                      A
 Frequencies --   1349.7165              1360.5212              1406.6176
 Red. masses --      6.6815                 7.6090                 1.2600
 Frc consts  --      7.1715                 8.2983                 1.4689
 IR Inten    --    105.7155                22.2437                 2.4431

                     58                     59                     60
                      A                      A                      A
 Frequencies --   1414.8692              1423.8413              1468.4150
 Red. masses --      1.2489                 3.5468                 1.0437
 Frc consts  --      1.4731                 4.2365                 1.3259
 IR Inten    --     12.3839                23.2088                 0.0002

                     61                     62                     63
                      A                      A                      A
 Frequencies --   1479.2564              1482.1432              1485.9812
 Red. masses --      1.9762                 1.0424                 1.1418
 Frc consts  --      2.5478                 1.3492                 1.4855
 IR Inten    --      2.7171                30.2685                 1.4588

                     64                     65                     66
                      A                      A                      A
 Frequencies --   1487.3679              1501.5679              1518.4621
 Red. masses --      1.3969                 2.6584                 2.9485
 Frc consts  --      1.8207                 3.5315                 4.0055
 IR Inten    --      1.7115                16.8938                 0.2142

                     67                     68                     69
                      A                      A                      A
 Frequencies --   1588.3053              1610.5859              1614.1555
 Red. masses --      7.6047                 7.0627                 6.2026
 Frc consts  --     11.3031                10.7941                 9.5217
 IR Inten    --     15.9458                 0.5402               693.8694

                     70                     71                     72
                      A                      A                      A
 Frequencies --   1628.0104              1687.6726              1699.2187
 Red. masses --      5.8174                12.2959                11.1314
 Frc consts  --      9.0844                20.6342                18.9364
 IR Inten    --     22.2944                10.9644               649.6543

                     73                     74                     75
                      A                      A                      A
 Frequencies --   3025.1919              3025.9975              3070.1436
 Red. masses --      1.0379                 1.0386                 1.0995
 Frc consts  --      5.5966                 5.6030                 6.1058
 IR Inten    --     55.1032                 6.8553                37.4907

                     76                     77                     78
                      A                      A                      A
 Frequencies --   3073.4325              3114.9916              3115.8992
 Red. masses --      1.0996                 1.1006                 1.1000
 Frc consts  --      6.1200                 6.2919                 6.2926
 IR Inten    --      0.0466                49.3020                 4.2924

                     79                     80                     81
                      A                      A                      A
 Frequencies --   3178.3552              3188.0339              3190.0085
 Red. masses --      1.0874                 1.0902                 1.0903
 Frc consts  --      6.4721                 6.5281                 6.5372
 IR Inten    --      3.2612                 6.3842                 7.0657

                     82                     83                     84
                      A                      A                      A
 Frequencies --   3190.6177              3202.4933              3205.6710
 Red. masses --      1.0913                 1.0925                 1.0955
 Frc consts  --      6.5454                 6.6018                 6.6330
 IR Inten    --     12.4860                 3.9621                21.6380

 - Thermochemistry -
 -------------------
 Temperature   298.150 Kelvin.  Pressure   1.00000 Atm.
 Atom     1 has atomic number  6 and mass  12.00000

 Molecular mass:   236.08373 amu.
 Principal axes and moments of inertia in atomic units:
                           1         2         3
     Eigenvalues --  1887.346606400.111848265.23389
           X            0.99450   0.07824   0.06956
           Y           -0.09710   0.93777   0.33342
           Z           -0.03914  -0.33834   0.94021
 This molecule is an asymmetric top.
 Rotational symmetry number  1.
 Warning -- assumption of classical behavior for rotation
           may cause significant error
 Rotational temperatures (Kelvin)      0.04589     0.01353     0.01048
 Rotational constants (GHZ):           0.95623     0.28199     0.21835
 Zero-point vibrational energy     613937.1 (Joules/Mol)
                                  146.73448 (Kcal/Mol)
 Warning -- explicit consideration of  22 degrees of freedom as
           vibrations may cause significant error
 Vibrational temperatures:     49.03   105.41   162.30   170.49   186.54
          (Kelvin)            243.12   248.66   280.45   315.34   401.50
                              419.54   469.73   480.25   531.40   558.61
                              611.46   645.12   652.89   669.64   683.66
                              815.71   818.82   898.67   968.72   980.72
                             1008.33  1044.82  1051.59  1068.40  1095.15
                             1159.41  1166.65  1257.08  1315.21  1336.01
                             1337.61  1391.49  1442.31  1466.51  1473.15
                             1486.97  1505.05  1521.11  1536.57  1561.56
                             1609.01  1687.76  1705.27  1727.26  1768.75
                             1783.32  1833.10  1874.02  1883.20  1941.94
                             1957.49  2023.81  2035.68  2048.59  2112.72
                             2128.32  2132.47  2138.00  2139.99  2160.42
                             2184.73  2285.22  2317.27  2322.41  2342.34
                             2428.18  2444.80  4352.58  4353.74  4417.25
                             4421.98  4481.78  4483.08  4572.94  4586.87
                             4589.71  4590.59  4607.67  4612.25

 Zero-point correction=                           0.233836 (Hartree/Particle)
 Thermal correction to Energy=                    0.248478
 Thermal correction to Enthalpy=                  0.249422
 Thermal correction to Gibbs Free Energy=         0.192207
 Sum of electronic and zero-point Energies=           -767.386585
 Sum of electronic and thermal Energies=              -767.371943
 Sum of electronic and thermal Enthalpies=            -767.370999
 Sum of electronic and thermal Free Energies=         -767.428214

                     E (Thermal)             CV                S
                      KCal/Mol        Cal/Mol-Kelvin    Cal/Mol-Kelvin
 Total                  155.922             57.726            120.418
 Electronic               0.000              0.000              0.000
 Translational            0.889              2.981             42.279
 Rotational               0.889              2.981             32.968
 Vibrational            154.145             51.764             45.172
 Vibration     1          0.594              1.983              5.577
 Vibration     2          0.599              1.967              4.064
 Vibration     3          0.607              1.939              3.220
 Vibration     4          0.609              1.934              3.125
 Vibration     5          0.612              1.924              2.951
 Vibration     6          0.625              1.881              2.447
 Vibration     7          0.626              1.876              2.404
 Vibration     8          0.636              1.847              2.180
 Vibration     9          0.647              1.812              1.966
 Vibration    10          0.679              1.712              1.539
 Vibration    11          0.687              1.689              1.465
 Vibration    12          0.710              1.623              1.277
 Vibration    13          0.715              1.608              1.242
 Vibration    14          0.742              1.535              1.083
 Vibration    15          0.756              1.495              1.007
 Vibration    16          0.787              1.416              0.875
 Vibration    17          0.807              1.364              0.801
 Vibration    18          0.812              1.353              0.784
 Vibration    19          0.823              1.327              0.750
 Vibration    20          0.832              1.305              0.723
 Vibration    21          0.923              1.103              0.510
 Vibration    22          0.925              1.098              0.506

                           ! Non-Optimized Parameters !
 Normal termination of Gaussian 16 at Sat Feb 10 16:47:47 2024.
