 Gaussian 16, Revision A.03,
 Gaussian 16:  ES64L-G16RevA.03 25-Dec-2016

 ----------------------------------------------------------------
 #P UB3LYP/6-311++G(d,p) SCRF=(PCM,Solvent=n,n-DiMethylFormamide)
 ----------------------------------------------------------------

 ------------------
 Quinone PCM in DMF
 ------------------
 Symbolic Z-matrix:
 Charge =  0 Multiplicity = 1

                         Standard orientation:
 ---------------------------------------------------------------------
 Center     Atomic      Atomic             Coordinates (Angstroms)
 Number     Number       Type             X           Y           Z
 ---------------------------------------------------------------------
      1          6           0        2.797891   -0.963904   -0.000046
      2          6           0        1.362875   -0.537385   -0.000044
      3          6           0        0.322138   -1.387878    0.000111
      4          6           0       -1.085553   -0.936932    0.000028
      5          8           0       -2.001960   -1.744440   -0.000052
      6          6           0       -1.362865    0.537404    0.000032
      7          6           0       -0.322128    1.387886   -0.000070
      8          6           0        1.085549    0.936925   -0.000052
      9          8           0        2.001957    1.744446    0.000078
     10          6           0       -2.797908    0.963891    0.000012
     11          1           0        2.884272   -2.051057   -0.000298
     12          1           0        3.317561   -0.562903    0.874565
     13          1           0        3.317708   -0.562503   -0.874387
     14          1           0        0.459901   -2.464435    0.000172
     15          1           0       -0.459859    2.464445   -0.000079
     16          1           0       -3.317676    0.562648    0.874453
     17          1           0       -2.884303    2.051039    0.000037
     18          1           0       -3.317569    0.562673   -0.874505
 ---------------------------------------------------------------------

 SCF Done:  E(UB3LYP) =  -460.235383335     A.U. after   13 cycles

 The electronic state is 1-A.
 Alpha  occ. eigenvalues --  -19.14176 -19.14175 -10.28538 -10.28537 -10.22072
 Alpha  occ. eigenvalues --  -10.22071 -10.20322 -10.20321 -10.17913 -10.17913
 Alpha  occ. eigenvalues --   -1.07310  -1.07128  -0.86816  -0.81983  -0.74007
 Alpha  occ. eigenvalues --   -0.72704  -0.66688  -0.62801  -0.58030  -0.53301
 Alpha  occ. eigenvalues --   -0.49798  -0.48286  -0.46401  -0.45000  -0.43970
 Alpha  occ. eigenvalues --   -0.43878  -0.42820  -0.41042  -0.40682  -0.40267
 Alpha  occ. eigenvalues --   -0.39866  -0.38868  -0.30591  -0.29186  -0.28575
 Alpha  occ. eigenvalues --   -0.27911
 Alpha virt. eigenvalues --   -0.13329  -0.02521  -0.00624  -0.00263   0.00414
 Alpha virt. eigenvalues --    0.01285   0.02714   0.03323   0.03435   0.04312
 Alpha virt. eigenvalues --    0.05183   0.05718   0.06140   0.06987   0.07998

  Beta  occ. eigenvalues --  -19.14176 -19.14175 -10.28538 -10.28537 -10.22072
  Beta  occ. eigenvalues --  -10.22071 -10.20322 -10.20321 -10.17913 -10.17913
  Beta  occ. eigenvalues --   -1.07310  -1.07128  -0.86816  -0.81983  -0.74007
  Beta  occ. eigenvalues --   -0.72704  -0.66688  -0.62801  -0.58030  -0.53301
  Beta  occ. eigenvalues --   -0.49798  -0.48286  -0.46401  -0.45000  -0.43970
  Beta  occ. eigenvalues --   -0.43878  -0.42820  -0.41042  -0.40682  -0.40267
  Beta  occ. eigenvalues --   -0.39866  -0.38868  -0.30591  -0.29186  -0.28575
  Beta  occ. eigenvalues --   -0.27911
  Beta virt. eigenvalues --   -0.13329  -0.02521  -0.00624  -0.00263   0.00414
  Beta virt. eigenvalues --    0.01285   0.02714   0.03323   0.03435   0.04312
  Beta virt. eigenvalues --    0.05183   0.05718   0.06140   0.06987   0.07998

 Mulliken charges and spin densities:
               1          2
     1  C   -0.370194  -0.000000
     2  C    1.239263   0.000000
     3  C   -0.617464   0.000000
     4  C   -0.728315   0.000000
     5  O   -0.279022  -0.000000
     6  C    1.239260  -0.000000
     7  C   -0.617520   0.000000
     8  C   -0.728347  -0.000000
     9  O   -0.279033   0.000000
    10  C   -0.370178   0.000000
    11  H    0.169504  -0.000000
    12  H    0.189277  -0.000000
    13  H    0.189252  -0.000000
    14  H    0.207742  -0.000000
    15  H    0.207743   0.000000
    16  H    0.189268  -0.000000
    17  H    0.169501  -0.000000
    18  H    0.189261  -0.000000
 Sum of Mulliken charges =  -0.00000   0.00000

 Dipole moment (field-independent basis, Debye):
    X=             -0.0000    Y=             -0.0001    Z=             -0.0001  Tot=              0.0001
 Quadrupole moment (field-independent basis, Debye-Ang):
   XX=            -62.1524   YY=            -63.8712   ZZ=            -58.2916
   XY=            -16.4338   XZ=             -0.0008   YZ=             -0.0010

 Normal termination of Gaussian 16 at Sun Jan 21 06:56:24 2024.
