 Gaussian 16, Revision A.03,
 Gaussian 16:  ES64L-G16RevA.03 25-Dec-2016

 ----------------------------------------------------------------
 #P UB3LYP/6-311++G(d,p) SCRF=(PCM,Solvent=n,n-DiMethylFormamide)
 ----------------------------------------------------------------

 ------------------
 Quinone PCM in DMF
 ------------------
 Symbolic Z-matrix:
 Charge =  0 Multiplicity = 1

                         Standard orientation:
 ---------------------------------------------------------------------
 Center     Atomic      Atomic             Coordinates (Angstroms)
 Number     Number       Type             X           Y           Z
 ---------------------------------------------------------------------
      1          7           0        1.351219   -2.809375    0.103619
      2          6           0        1.113342   -1.482248    0.064457
      3          6           0        2.193003   -0.561654   -0.000670
      4         35           0        3.992479   -1.219849   -0.049881
      5          6           0        1.995417    0.794711   -0.034385
      6          6           0        0.701213    1.330674    0.013395
      7         35           0        0.659629    3.243337   -0.059985
      8          6           0       -0.410198    0.487421    0.078455
      9          6           0       -1.806817    1.036547    0.167966
     10          8           0       -2.025745    2.219678    0.353688
     11          6           0       -2.943755    0.086987    0.031034
     12          6           0       -4.246748    0.593072   -0.034319
     13          6           0       -5.323938   -0.275599   -0.149577
     14          6           0       -5.110053   -1.657443   -0.187656
     15          6           0       -3.820116   -2.165940   -0.112637
     16          6           0       -2.729556   -1.294428   -0.007736
     17          6           0       -1.357506   -1.855151    0.075068
     18          8           0       -1.219226   -3.082243    0.113256
     19          6           0       -0.206394   -0.929519    0.082438
     20          1           0        0.553814   -3.434385    0.123834
     21          1           0        2.297777   -3.146763    0.046467
     22          1           0        2.843823    1.461960   -0.093464
     23          1           0       -4.388086    1.665637    0.006722
     24          1           0       -6.332190    0.118438   -0.207256
     25          1           0       -5.952874   -2.333751   -0.274072
     26          1           0       -3.632141   -3.231652   -0.132787
 ---------------------------------------------------------------------

 SCF Done:  E(UB3LYP) =  -5891.41679552     A.U. after   16 cycles

 The electronic state is 1-A.
 Alpha  occ. eigenvalues -- -482.85351-482.84121 -62.50629 -62.49395 -56.32667
 Alpha  occ. eigenvalues --  -56.32277 -56.32263 -56.31445 -56.31054 -56.31006
 Alpha  occ. eigenvalues --  -19.13243 -19.13239 -14.34454 -10.28812 -10.28650
 Alpha  occ. eigenvalues --  -10.26758 -10.25827 -10.25551 -10.22904 -10.22009
 Alpha  occ. eigenvalues --  -10.21915 -10.20935 -10.20856 -10.19936 -10.19884
 Alpha  occ. eigenvalues --  -10.19822 -10.19787  -8.71600  -8.70368  -6.54743
 Alpha  occ. eigenvalues --   -6.53548  -6.53441  -6.53422  -6.52250  -6.52113
 Alpha  occ. eigenvalues --   -2.65835  -2.65460  -2.65450  -2.64634  -2.64415
 Alpha  occ. eigenvalues --   -2.64413  -2.64289  -2.64186  -2.63152  -2.63150
 Alpha  occ. eigenvalues --   -1.07128  -1.06718  -0.96327  -0.90036  -0.88855
 Alpha  occ. eigenvalues --   -0.84529  -0.82692  -0.79336  -0.77982  -0.76627
 Alpha  occ. eigenvalues --   -0.74726  -0.69381  -0.67031  -0.65490  -0.61702
 Alpha  occ. eigenvalues --   -0.59482  -0.58587  -0.55737  -0.54552  -0.51917
 Alpha  occ. eigenvalues --   -0.50656  -0.48587  -0.48400  -0.47586  -0.46558
 Alpha  occ. eigenvalues --   -0.45885  -0.45244  -0.45020  -0.44103  -0.42866
 Alpha  occ. eigenvalues --   -0.42110  -0.40981  -0.39745  -0.38320  -0.38011
 Alpha  occ. eigenvalues --   -0.37041  -0.36735  -0.33890  -0.31837  -0.31490
 Alpha  occ. eigenvalues --   -0.30983  -0.28818  -0.28650  -0.27987  -0.27665
 Alpha  occ. eigenvalues --   -0.26618  -0.23394
 Alpha virt. eigenvalues --   -0.12181  -0.07322  -0.04589  -0.04198  -0.02663
 Alpha virt. eigenvalues --   -0.01431  -0.00739   0.00078   0.00965   0.01765
 Alpha virt. eigenvalues --    0.02087   0.02342   0.03261   0.03296   0.03727

  Beta  occ. eigenvalues -- -482.85351-482.84121 -62.50629 -62.49395 -56.32667
  Beta  occ. eigenvalues --  -56.32277 -56.32263 -56.31445 -56.31054 -56.31006
  Beta  occ. eigenvalues --  -19.13243 -19.13239 -14.34454 -10.28812 -10.28650
  Beta  occ. eigenvalues --  -10.26758 -10.25827 -10.25551 -10.22904 -10.22009
  Beta  occ. eigenvalues --  -10.21915 -10.20935 -10.20856 -10.19936 -10.19884
  Beta  occ. eigenvalues --  -10.19822 -10.19787  -8.71600  -8.70368  -6.54743
  Beta  occ. eigenvalues --   -6.53548  -6.53441  -6.53422  -6.52250  -6.52113
  Beta  occ. eigenvalues --   -2.65835  -2.65460  -2.65450  -2.64634  -2.64415
  Beta  occ. eigenvalues --   -2.64413  -2.64289  -2.64186  -2.63152  -2.63150
  Beta  occ. eigenvalues --   -1.07128  -1.06718  -0.96327  -0.90036  -0.88855
  Beta  occ. eigenvalues --   -0.84529  -0.82692  -0.79336  -0.77982  -0.76627
  Beta  occ. eigenvalues --   -0.74726  -0.69381  -0.67031  -0.65490  -0.61702
  Beta  occ. eigenvalues --   -0.59482  -0.58587  -0.55737  -0.54552  -0.51917
  Beta  occ. eigenvalues --   -0.50656  -0.48587  -0.48400  -0.47586  -0.46558
  Beta  occ. eigenvalues --   -0.45885  -0.45244  -0.45020  -0.44103  -0.42866
  Beta  occ. eigenvalues --   -0.42110  -0.40981  -0.39745  -0.38320  -0.38011
  Beta  occ. eigenvalues --   -0.37041  -0.36735  -0.33890  -0.31837  -0.31490
  Beta  occ. eigenvalues --   -0.30983  -0.28818  -0.28650  -0.27987  -0.27665
  Beta  occ. eigenvalues --   -0.26618  -0.23394
  Beta virt. eigenvalues --   -0.12181  -0.07322  -0.04589  -0.04198  -0.02663
  Beta virt. eigenvalues --   -0.01431  -0.00739   0.00078   0.00965   0.01765
  Beta virt. eigenvalues --    0.02087   0.02342   0.03261   0.03296   0.03727

 Mulliken charges and spin densities:
               1          2
     1  N   -0.323171   0.000000
     2  C   -0.392114  -0.000000
     3  C    0.215000   0.000000
     4  Br  -0.135924   0.000000
     5  C    0.020810   0.000000
     6  C    0.144273   0.000000
     7  Br  -0.133465  -0.000000
     8  C    0.528329   0.000000
     9  C   -1.274092  -0.000000
    10  O   -0.193468   0.000000
    11  C    0.283033   0.000000
    12  C    0.156930   0.000000
    13  C   -0.293215   0.000000
    14  C   -0.498600  -0.000000
    15  C    0.290507   0.000000
    16  C   -0.024097  -0.000000
    17  C   -0.372197   0.000000
    18  O   -0.292740   0.000000
    19  C    0.567436  -0.000000
    20  H    0.351294   0.000000
    21  H    0.276657  -0.000000
    22  H    0.309995  -0.000000
    23  H    0.186162  -0.000000
    24  H    0.207166   0.000000
    25  H    0.206020  -0.000000
    26  H    0.189468  -0.000000
 Sum of Mulliken charges =  -0.00000   0.00000

 Dipole moment (field-independent basis, Debye):
    X=             -0.1926    Y=             -3.5170    Z=             -0.7575  Tot=              3.6028
 Quadrupole moment (field-independent basis, Debye-Ang):
   XX=           -105.9084   YY=           -139.1731   ZZ=           -137.2352
   XY=              1.9003   XZ=              2.1275   YZ=             -0.6430

 Normal termination of Gaussian 16 at Sun Jan 14 01:06:37 2024.
