 Gaussian 16, Revision A.03,
 Gaussian 16:  ES64L-G16RevA.03 25-Dec-2016

 --------------------------------------
 #P UB3LYP/6-311++G(d,p) nosym opt freq
 --------------------------------------

 -------
 Radical
 -------
 Symbolic Z-matrix:
 Charge = -1 Multiplicity = 2

 SCF Done:  E(UB3LYP) =  -778.688359668     A.U. after   18 cycles
 SCF Done:  E(UB3LYP) =  -778.709203782     A.U. after   17 cycles
 SCF Done:  E(UB3LYP) =  -778.710654489     A.U. after   16 cycles
 SCF Done:  E(UB3LYP) =  -778.710771107     A.U. after   14 cycles
 SCF Done:  E(UB3LYP) =  -778.710780815     A.U. after   12 cycles
 Optimization completed.
    -- Stationary point found.
 Normal termination of Gaussian 16 at Sun Dec 17 20:53:50 2023.

 ----------------------------------------------------------------------
 #P Geom=AllCheck Guess=TCheck SCRF=Check GenChk UB3LYP/6-311++G(d,p) F
 req
 ----------------------------------------------------------------------

 Structure from the checkpoint file:  "028-rad.chk"
 -------
 Radical
 -------
 Charge = -1 Multiplicity = 2

                          Input orientation:
 ---------------------------------------------------------------------
 Center     Atomic      Atomic             Coordinates (Angstroms)
 Number     Number       Type             X           Y           Z
 ---------------------------------------------------------------------
      1          9           0       -2.685665    0.545898   -0.015384
      2          6           0       -1.359990    0.274112   -0.007771
      3          6           0       -0.466871    1.306442   -0.017424
      4          9           0       -0.926363    2.579000   -0.034390
      5          6           0        0.971435    1.122616   -0.010506
      6          8           0        1.790583    2.069388   -0.019349
      7          6           0        1.359940   -0.274221    0.007771
      8          6           0        0.466905   -1.306381    0.017421
      9          9           0        0.926304   -2.578941    0.034396
     10          6           0       -0.971342   -1.122550    0.010493
     11          8           0       -1.790608   -2.069449    0.019352
     12          9           0        2.685672   -0.545913    0.015391
 ---------------------------------------------------------------------

 SCF Done:  E(UB3LYP) =  -778.710780815     A.U. after    1 cycles

 Alpha  occ. eigenvalues --  -24.57274 -24.57273 -24.57268 -24.57268 -18.96504
 Alpha  occ. eigenvalues --  -18.96502 -10.13620 -10.13619 -10.13556 -10.13554
 Alpha  occ. eigenvalues --  -10.11909 -10.11906  -1.11722  -1.11651  -1.10330
 Alpha  occ. eigenvalues --   -1.10274  -0.89054  -0.88833  -0.72825  -0.63751
 Alpha  occ. eigenvalues --   -0.59004  -0.51292  -0.50346  -0.44181  -0.43018
 Alpha  occ. eigenvalues --   -0.42988  -0.40426  -0.37950  -0.36966  -0.36077
 Alpha  occ. eigenvalues --   -0.34002  -0.33264  -0.32117  -0.30716  -0.29615
 Alpha  occ. eigenvalues --   -0.28058  -0.26919  -0.26703  -0.26067  -0.25626
 Alpha  occ. eigenvalues --   -0.16296  -0.13343  -0.13206  -0.12789  -0.04919
 Alpha virt. eigenvalues --    0.10403   0.12325   0.13702   0.14599   0.15005
 Alpha virt. eigenvalues --    0.17019   0.17090   0.17148   0.19201   0.19764
 Alpha virt. eigenvalues --    0.20293   0.20765   0.20894   0.23237   0.23764

  Beta  occ. eigenvalues --  -24.57247 -24.57247 -24.57242 -24.57241 -18.95745
  Beta  occ. eigenvalues --  -18.95743 -10.13515 -10.13513 -10.13449 -10.13448
  Beta  occ. eigenvalues --  -10.11794 -10.11791  -1.11651  -1.11586  -1.10260
  Beta  occ. eigenvalues --   -1.10209  -0.87765  -0.87509  -0.72232  -0.63543
  Beta  occ. eigenvalues --   -0.57973  -0.50997  -0.50018  -0.44040  -0.42834
  Beta  occ. eigenvalues --   -0.42824  -0.40340  -0.37354  -0.36817  -0.35798
  Beta  occ. eigenvalues --   -0.33566  -0.33028  -0.31606  -0.30628  -0.28803
  Beta  occ. eigenvalues --   -0.27947  -0.26584  -0.25682  -0.25042  -0.22726
  Beta  occ. eigenvalues --   -0.12979  -0.12584  -0.12518  -0.12090
  Beta virt. eigenvalues --    0.02560   0.10511   0.13729   0.13847   0.15059
  Beta virt. eigenvalues --    0.17037   0.17095   0.17189   0.17335   0.19237
  Beta virt. eigenvalues --    0.19894   0.20317   0.20881   0.21020   0.23243

 Mulliken charges and spin densities:
               1          2
     1  F   -0.224841   0.002346
     2  C    0.158897   0.090052
     3  C    0.159873   0.090225
     4  F   -0.224747   0.002358
     5  C    0.044255   0.033203
     6  O   -0.413715   0.281776
     7  C    0.159682   0.090081
     8  C    0.159227   0.090100
     9  F   -0.224745   0.002351
    10  C    0.044784   0.033216
    11  O   -0.413804   0.281947
    12  F   -0.224867   0.002345
 Sum of Mulliken charges =  -1.00000   1.00000

 Dipole moment (field-independent basis, Debye):
    X=              0.0008    Y=              0.0007    Z=             -0.0000  Tot=              0.0011
 Quadrupole moment (field-independent basis, Debye-Ang):
   XX=            -92.0201   YY=            -95.0854   ZZ=            -64.2587
   XY=            -10.5979   XZ=              0.0385   YZ=              0.3406

  Exact polarizability: 109.903  26.306 117.532  -0.107  -0.804  44.414
 Approx polarizability: 181.877  64.612 200.645  -0.406  -1.438  65.222

                      1                      2                      3
                      A                      A                      A
 Frequencies --    108.0931               127.1159               159.4317
 Red. masses --     16.4699                18.4383                17.4070
 Frc consts  --      0.1134                 0.1755                 0.2607
 IR Inten    --      4.8891                 0.0000                 0.0000

                      4                      5                      6
                      A                      A                      A
 Frequencies --    211.6007               280.8995               295.7419
 Red. masses --     13.7749                18.4401                16.6321
 Frc consts  --      0.3634                 0.8573                 0.8571
 IR Inten    --     10.4434                 0.0000                 0.0000

                      7                      8                      9
                      A                      A                      A
 Frequencies --    296.8153               316.2240               347.6863
 Red. masses --     18.5140                17.2598                16.1043
 Frc consts  --      0.9610                 1.0169                 1.1470
 IR Inten    --      0.0801                 0.0006                 4.2717

                     10                     11                     12
                      A                      A                      A
 Frequencies --    358.1881               397.2685               425.4526
 Red. masses --     12.6481                12.6534                15.9286
 Frc consts  --      0.9561                 1.1766                 1.6988
 IR Inten    --      0.0000                 0.0000                 0.0000

                     13                     14                     15
                      A                      A                      A
 Frequencies --    437.0685               553.8545               608.9744
 Red. masses --     15.5336                15.4623                16.5221
 Frc consts  --      1.7483                 2.7946                 3.6101
 IR Inten    --      0.0000                 0.0000                 0.0116

                     16                     17                     18
                      A                      A                      A
 Frequencies --    616.0436               709.4330               719.1369
 Red. masses --     12.2348                12.1415                12.2194
 Frc consts  --      2.7357                 3.6003                 3.7233
 IR Inten    --      0.0000                 0.0000                 2.0300

                     19                     20                     21
                      A                      A                      A
 Frequencies --    804.7597               964.9425              1047.1066
 Red. masses --     12.6194                14.0458                13.2912
 Frc consts  --      4.8153                 7.7055                 8.5861
 IR Inten    --      0.0000               302.5072               135.9810

                     22                     23                     24
                      A                      A                      A
 Frequencies --   1073.1814              1214.8889              1231.6898
 Red. masses --     13.7109                12.2517                13.2781
 Frc consts  --      9.3038                10.6541                11.8683
 IR Inten    --      0.0002               188.7648                 0.0009

                     25                     26                     27
                      A                      A                      A
 Frequencies --   1302.9973              1421.4141              1547.7417
 Red. masses --     12.4695                12.0589                12.9496
 Frc consts  --     12.4734                14.3549                18.2769
 IR Inten    --    197.3634                 0.0001               622.6494

                     28                     29                     30
                      A                      A                      A
 Frequencies --   1572.9909              1573.6568              1674.5364
 Red. masses --     12.1819                13.0949                12.0567
 Frc consts  --     17.7589                19.1062                19.9191
 IR Inten    --    132.7607                 2.5382                 0.0014

 - Thermochemistry -
 -------------------
 Temperature   298.150 Kelvin.  Pressure   1.00000 Atm.
 Atom     1 has atomic number  9 and mass  18.99840

 Molecular mass:   179.98344 amu.
 Principal axes and moments of inertia in atomic units:
                           1         2         3
     Eigenvalues --  1614.714381797.897083412.61146
           X            0.75629   0.65423  -0.00326
           Y           -0.65415   0.75627   0.01217
           Z            0.01042  -0.00707   0.99992
 This molecule is an asymmetric top.
 Rotational symmetry number  1.
 Warning -- assumption of classical behavior for rotation
           may cause significant error
 Rotational temperatures (Kelvin)      0.05364     0.04818     0.02538
 Rotational constants (GHZ):           1.11768     1.00381     0.52884
 Zero-point vibrational energy     133975.4 (Joules/Mol)
                                   32.02088 (Kcal/Mol)
 Warning -- explicit consideration of  16 degrees of freedom as
           vibrations may cause significant error
 Vibrational temperatures:    155.52   182.89   229.39   304.45   404.15
          (Kelvin)            425.51   427.05   454.98   500.24   515.35
                              571.58   612.13   628.84   796.87   876.18
                              886.35  1020.72  1034.68  1157.87  1388.34
                             1506.55  1544.07  1747.95  1772.13  1874.72
                             2045.10  2226.86  2263.18  2264.14  2409.28

 Zero-point correction=                           0.051029 (Hartree/Particle)
 Thermal correction to Energy=                    0.060665
 Thermal correction to Enthalpy=                  0.061609
 Thermal correction to Gibbs Free Energy=         0.015188
 Sum of electronic and zero-point Energies=           -778.659752
 Sum of electronic and thermal Energies=              -778.650116
 Sum of electronic and thermal Enthalpies=            -778.649172
 Sum of electronic and thermal Free Energies=         -778.695593

                     E (Thermal)             CV                S
                      KCal/Mol        Cal/Mol-Kelvin    Cal/Mol-Kelvin
 Total                   38.068             34.960             97.702
 Electronic               0.000              0.000              1.377
 Translational            0.889              2.981             41.470
 Rotational               0.889              2.981             30.672
 Vibrational             36.290             28.999             24.183
 Vibration     1          0.606              1.943              3.303
 Vibration     2          0.611              1.926              2.989
 Vibration     3          0.621              1.892              2.557
 Vibration     4          0.643              1.823              2.030
 Vibration     5          0.681              1.709              1.528
 Vibration     6          0.690              1.682              1.441
 Vibration     7          0.690              1.680              1.435
 Vibration     8          0.703              1.643              1.330
 Vibration     9          0.725              1.580              1.177
 Vibration    10          0.733              1.558              1.130
 Vibration    11          0.764              1.476              0.973
 Vibration    12          0.787              1.415              0.874
 Vibration    13          0.797              1.389              0.836
 Vibration    14          0.909              1.131              0.536
 Vibration    15          0.968              1.013              0.434
 Vibration    16          0.976              0.998              0.423

 Optimization completed.
    -- Stationary point found.
 Normal termination of Gaussian 16 at Sun Dec 17 20:56:58 2023.
