 Q-Chem 5.4, Q-Chem, Inc., Pleasanton, CA (2021)
 Q-Chem 5.4.0 for Intel X86 EM64T Linux

User input:
--------------------------------------------------------------
$molecule
-2 1
C                 -0.5597960000      0.1460210000      2.1187750000
C                 -0.5500200000     -0.9598560000      1.1869220000
C                  0.1710760000     -0.9543360000      0.0140060000
C                  1.0147790000      0.1413690000     -0.4241800000
C                  1.0166060000      1.2762720000      0.4988550000
C                  0.2364390000      1.2393410000      1.6918580000
O                 -1.2250280000      0.1057700000      3.2302400000
O                  1.6182230000      0.0869660000     -1.5452630000
H                 -1.1519180000     -1.8292830000      1.4567670000
H                  0.1387050000     -1.8122350000     -0.6578850000
C                  1.8219510000      2.4580290000      0.1756290000
C                  1.2333910000      3.9261260000      0.3692520000
C                 -0.2978720000      4.0019310000      0.2347040000
C                  1.6779040000      4.4730070000      1.7442790000
C                  1.8555240000      4.8228870000     -0.7204590000
O                  2.9701670000      2.4058390000     -0.2724710000
H                 -0.6137840000      3.6282770000     -0.7448400000
H                 -0.6314750000      5.0454730000      0.3273970000
H                 -0.8073690000      3.4009530000      0.9875160000
H                  1.2207920000      3.9228770000      2.5692950000
H                  1.3989000000      5.5333600000      1.8463050000
H                  2.7654330000      4.3987610000      1.8459050000
H                  1.5669200000      4.4786920000     -1.7186350000
H                  2.9450610000      4.7972030000     -0.6694320000
H                  1.5131560000      5.8598920000     -0.5997590000
H                  0.2978540000      2.0652850000      2.3945600000
$end
$rem
MAX_SCF_CYCLES=200
BASIS  =  6-311++G(d,p)
GUI  =  2
JOB_TYPE  =  SP
METHOD  =  B3LYP
SOLVENT_METHOD = COSMO
$end
$solvent
dielectric 37.219
opticaldielectric 1.43
$end

--------------------------------------------------------------

             Standard Nuclear Orientation (Angstroms)
    I     Atom           X                Y                Z
 ----------------------------------------------------------------
    1      C       2.3349738191    -1.2107086432     0.1166258990
    2      C       3.1238613894    -0.0396140206    -0.1957893843
    3      C       2.5920234072     1.2265873503    -0.2938929193
    4      C       1.1926876163     1.5462612004    -0.0839425828
    5      C       0.3713724927     0.3763400895     0.2270683987
    6      C       0.9580581682    -0.9214945912     0.2956662430
    7      O       2.8637099913    -2.3883845135     0.2307565600
    8      O       0.7702976197     2.7390878420    -0.2345504650
    9      H       4.1918518712    -0.1997526404    -0.3531195718
   10      H       3.2301506116     2.0758514556    -0.5388832093
   11      C      -1.0659668182     0.5535370509     0.4556775965
   12      C      -2.1253337401    -0.4492572032    -0.1856857560
   13      C      -1.6485270975    -1.0977029550    -1.4974744090
   14      C      -2.4842543532    -1.5379362270     0.8503276911
   15      C      -3.4047101433     0.3576681474    -0.4869619116
   16      O      -1.5476654859     1.4717603817     1.1240709664
   17      H      -1.4074740694    -0.3279900074    -2.2379874522
   18      H      -2.4431563882    -1.7348512989    -1.9115627304
   19      H      -0.7514824287    -1.7001184302    -1.3564279121
   20      H      -1.6368892334    -2.1923710595     1.0646480156
   21      H      -3.3124721593    -2.1631374313     0.4818446642
   22      H      -2.8031805081    -1.0742556957     1.7893943079
   23      H      -3.2045116288     1.1435795361    -1.2220684602
   24      H      -3.7791931902     0.8433929829     0.4153618267
   25      H      -4.1840417446    -0.3032193957    -0.8907361282
   26      H       0.3445534244    -1.7689188872     0.5876069666
 ----------------------------------------------------------------

   13    -652.2066424419      5.33e-06  Convergence criterion met
 Total energy in the final basis set =     -652.2066424419
    6    -652.5025019162      4.28e-06  Convergence criterion met
 Total energy in the final basis set =     -652.5025019162

                    Orbital Energies (a.u.)
 --------------------------------------------------------------

 Alpha MOs
 -- Occupied --
-19.0846 -19.0293 -19.0234 -10.2320 -10.1888 -10.1750 -10.1734 -10.1492
-10.1423 -10.1421 -10.1373 -10.1361 -10.1314 -10.1268  -1.0133  -0.9503
 -0.9358  -0.8010  -0.7830  -0.7198  -0.6749  -0.6684  -0.6562  -0.6081
 -0.5672  -0.5367  -0.4831  -0.4612  -0.4407  -0.4344  -0.4293  -0.4210
 -0.4165  -0.3923  -0.3834  -0.3721  -0.3683  -0.3638  -0.3543  -0.3522
 -0.3448  -0.3414  -0.3234  -0.3227  -0.3142  -0.3093  -0.2376  -0.2347
 -0.2227  -0.2060  -0.1975  -0.1283

          Ground-State Mulliken Net Atomic Charges

     Atom                 Charge (a.u.)
  ----------------------------------------
      1 C                    -0.478673
      2 C                    -0.019253
      3 C                     0.003924
      4 C                    -0.607287
      5 C                     1.737989
      6 C                    -0.671748
      7 O                    -0.780832
      8 O                    -0.682011
      9 H                     0.165675
     10 H                     0.160920
     11 C                    -1.052594
     12 C                     0.833685
     13 C                    -0.667753
     14 C                    -0.514134
     15 C                    -0.604474
     16 O                    -0.353787
     17 H                     0.147273
     18 H                     0.143095
     19 H                     0.162823
     20 H                     0.130487
     21 H                     0.164227
     22 H                     0.171926
     23 H                     0.157709
     24 H                     0.171325
     25 H                     0.145288
     26 H                     0.136199
  ----------------------------------------
  Sum of atomic charges =    -2.000000

                    Cartesian Multipole Moments
 -----------------------------------------------------------------
    Charge (ESU x 10^10)
                -9.6064
    Dipole Moment (Debye)
         X     -13.1417      Y      -3.5209      Z      -2.6422
       Tot      13.8594
    Quadrupole Moments (Debye-Ang)
        XX    -133.2937     XY      26.6331     YY    -149.4444
        XZ       1.3666     YZ      -0.2727     ZZ     -96.8281

 Total job time:  53.95s(wall), 406.37s(cpu)
        *  Thank you very much for using Q-Chem.  Have a nice day.  *
