 Q-Chem 5.4, Q-Chem, Inc., Pleasanton, CA (2021)
 Q-Chem 5.4.0 for Intel X86 EM64T Linux

User input:
--------------------------------------------------------------
$molecule
0 1
C                 -2.6091330000     -0.6735440000     -0.2176160000
C                 -1.2951220000      0.0205140000     -0.0269630000
C                 -1.1709940000      1.3244880000      0.2736600000
C                  0.1465720000      1.9715730000      0.4536400000
O                  0.2348980000      3.1601070000      0.7272410000
C                  1.3536450000      1.1326650000      0.2917050000
C                  1.2835840000     -0.1754270000     -0.0085120000
C                  2.4802660000     -1.0602450000     -0.1810590000
C                 -0.0606350000     -0.8152010000     -0.1877770000
O                 -0.1487740000     -2.0009980000     -0.4612520000
H                 -2.7128630000     -1.5026840000      0.4876790000
H                 -3.4402100000      0.0189190000     -0.0795890000
H                 -2.6713070000     -1.1127910000     -1.2170770000
H                 -2.0331080000      1.9713580000      0.4002520000
H                  2.3017080000      1.6419760000      0.4313120000
H                  3.4043010000     -0.5013650000     -0.0292150000
H                  2.4903670000     -1.5039740000     -1.1804250000
H                  2.4468060000     -1.8953710000      0.5239970000
$end
$rem
MAX_SCF_CYCLES=200
BASIS  =  6-311++G(d,p)
GUI  =  2
JOB_TYPE  =  SP
METHOD  =  B3LYP
SOLVENT_METHOD = PCM
$end
$pcm
theory = CPCM
$end
$solvent
dielectric 37.219
opticaldielectric 1.43
$end

--------------------------------------------------------------

             Standard Nuclear Orientation (Angstroms)
    I     Atom           X                Y                Z
 ----------------------------------------------------------------
    1      C      -2.6091330000    -0.6735440000    -0.2176160000
    2      C      -1.2951220000     0.0205140000    -0.0269630000
    3      C      -1.1709940000     1.3244880000     0.2736600000
    4      C       0.1465720000     1.9715730000     0.4536400000
    5      O       0.2348980000     3.1601070000     0.7272410000
    6      C       1.3536450000     1.1326650000     0.2917050000
    7      C       1.2835840000    -0.1754270000    -0.0085120000
    8      C       2.4802660000    -1.0602450000    -0.1810590000
    9      C      -0.0606350000    -0.8152010000    -0.1877770000
   10      O      -0.1487740000    -2.0009980000    -0.4612520000
   11      H      -2.7128630000    -1.5026840000     0.4876790000
   12      H      -3.4402100000     0.0189190000    -0.0795890000
   13      H      -2.6713070000    -1.1127910000    -1.2170770000
   14      H      -2.0331080000     1.9713580000     0.4002520000
   15      H       2.3017080000     1.6419760000     0.4313120000
   16      H       3.4043010000    -0.5013650000    -0.0292150000
   17      H       2.4903670000    -1.5039740000    -1.1804250000
   18      H       2.4468060000    -1.8953710000     0.5239970000
 ----------------------------------------------------------------

    9    -460.2386824612      1.60e-06  Convergence criterion met
 Total energy in the final basis set =     -460.2386824612

                    Orbital Energies (a.u.)
 --------------------------------------------------------------

 Alpha MOs
 -- Occupied --
-19.1438 -19.1379 -10.2859 -10.2818 -10.2182 -10.2182 -10.1998 -10.1998
-10.1744 -10.1744  -1.0751  -1.0675  -0.8654  -0.8167  -0.7422  -0.7090
 -0.6811  -0.6031  -0.5906  -0.5306  -0.5046  -0.4726  -0.4631  -0.4409
 -0.4388  -0.4274  -0.4247  -0.4241  -0.4042  -0.3968  -0.3913  -0.3849
 -0.3036  -0.2911  -0.2831  -0.2776

          Ground-State Mulliken Net Atomic Charges

     Atom                 Charge (a.u.)
  ----------------------------------------
      1 C                    -0.380260
      2 C                     1.376384
      3 C                    -0.632227
      4 C                    -0.209167
      5 O                    -0.323037
      6 C                    -0.630811
      7 C                     1.377843
      8 C                    -0.381923
      9 C                    -1.524425
     10 O                    -0.260906
     11 H                     0.195848
     12 H                     0.176441
     13 H                     0.195729
     14 H                     0.226197
     15 H                     0.226552
     16 H                     0.176478
     17 H                     0.195805
     18 H                     0.195479
  ----------------------------------------
  Sum of atomic charges =     0.000000

                    Cartesian Multipole Moments
 -----------------------------------------------------------------
    Charge (ESU x 10^10)
                 0.0000
    Dipole Moment (Debye)
         X      -0.1191      Y      -1.6253      Z      -0.3743
       Tot       1.6721
    Quadrupole Moments (Debye-Ang)
        XX     -46.5432     XY      -2.5471     YY     -80.4162
        XZ      -0.2925     YZ      -5.1160     ZZ     -59.4766

 Total job time:  30.16s(wall), 107.82s(cpu)
        *  Thank you very much for using Q-Chem.  Have a nice day.  *
