 Q-Chem 5.4, Q-Chem, Inc., Pleasanton, CA (2021)
 Q-Chem 5.4.0 for Intel X86 EM64T Linux

User input:
--------------------------------------------------------------
$molecule
-2 1
C                  4.8482590000     -2.9113140000     -0.3159710000
C                  5.5815220000     -2.0342200000     -1.0778020000
C                  5.0085270000     -0.8044980000     -1.5201710000
C                  3.4924520000     -2.6320220000      0.0625530000
C                  2.9084850000     -1.3756080000     -0.3898720000
C                  3.7031790000     -0.5092950000     -1.1698830000
C                  2.7415290000     -3.5161890000      0.8351550000
C                  1.4043050000     -3.2004990000      1.1866530000
C                  0.8032080000     -1.9628100000      0.7511460000
C                  1.5442720000     -0.9999010000     -0.0600900000
C                  0.6273210000     -4.1199780000      1.9881340000
C                 -0.6889260000     -3.7647740000      2.3100890000
C                 -0.5342770000     -1.6766030000      1.1188150000
C                 -1.2735510000     -2.5631610000      1.8880260000
O                  3.3102300000     -4.7085010000      1.2591040000
O                  1.0272480000      0.0967430000     -0.4520170000
O                  1.0864800000     -5.2771830000      2.4353780000
H                  5.2823490000     -3.8467230000      0.0212630000
H                  6.6084360000     -2.2797360000     -1.3460290000
H                  5.5925460000     -0.1127390000     -2.1233350000
H                  3.2317330000      0.4164400000     -1.4870640000
H                  2.5841050000     -5.1538210000      1.7838320000
O                 -1.3797830000     -4.6930590000      3.0827460000
H                 -0.9536730000     -0.7383950000      0.7747090000
H                 -2.3012390000     -2.3441480000      2.1711050000
H                 -0.6864980000     -5.3815760000      3.1845950000
$end

$rem
BASIS  =  6-311++G(d,p)
GUI  =  2
JOB_TYPE  =  SP
METHOD  =  B3LYP
SCF_CONVERGENCE  = 8
SOLVENT_METHOD = sm12
$end

$smx
solvent dimethylformamide
charges CM5
$end

--------------------------------------------------------------

             Standard Nuclear Orientation (Angstroms)
    I     Atom           X                Y                Z
 ----------------------------------------------------------------
    1      C       4.8482590000    -2.9113140000    -0.3159710000
    2      C       5.5815220000    -2.0342200000    -1.0778020000
    3      C       5.0085270000    -0.8044980000    -1.5201710000
    4      C       3.4924520000    -2.6320220000     0.0625530000
    5      C       2.9084850000    -1.3756080000    -0.3898720000
    6      C       3.7031790000    -0.5092950000    -1.1698830000
    7      C       2.7415290000    -3.5161890000     0.8351550000
    8      C       1.4043050000    -3.2004990000     1.1866530000
    9      C       0.8032080000    -1.9628100000     0.7511460000
   10      C       1.5442720000    -0.9999010000    -0.0600900000
   11      C       0.6273210000    -4.1199780000     1.9881340000
   12      C      -0.6889260000    -3.7647740000     2.3100890000
   13      C      -0.5342770000    -1.6766030000     1.1188150000
   14      C      -1.2735510000    -2.5631610000     1.8880260000
   15      O       3.3102300000    -4.7085010000     1.2591040000
   16      O       1.0272480000     0.0967430000    -0.4520170000
   17      O       1.0864800000    -5.2771830000     2.4353780000
   18      H       5.2823490000    -3.8467230000     0.0212630000
   19      H       6.6084360000    -2.2797360000    -1.3460290000
   20      H       5.5925460000    -0.1127390000    -2.1233350000
   21      H       3.2317330000     0.4164400000    -1.4870640000
   22      H       2.5841050000    -5.1538210000     1.7838320000
   23      O      -1.3797830000    -4.6930590000     3.0827460000
   24      H      -0.9536730000    -0.7383950000     0.7747090000
   25      H      -2.3012390000    -2.3441480000     2.1711050000
   26      H      -0.6864980000    -5.3815760000     3.1845950000
 ----------------------------------------------------------------

   18    -839.4633601737      3.81e-09  Convergence criterion met
 Total energy in the final basis set =     -839.7355927655

                    Orbital Energies (a.u.)
 --------------------------------------------------------------

 Alpha MOs
 -- Occupied --
-19.1286 -19.1074 -19.0607 -19.0430 -10.2039 -10.2020 -10.1989 -10.1979
-10.1778 -10.1732 -10.1721 -10.1703 -10.1663 -10.1653 -10.1638 -10.1570
-10.1549 -10.1539  -1.0386  -1.0172  -0.9629  -0.9554  -0.8507  -0.8277
 -0.7785  -0.7496  -0.7254  -0.7110  -0.6639  -0.6292  -0.6109  -0.5776
 -0.5636  -0.5307  -0.5146  -0.4981  -0.4935  -0.4592  -0.4563  -0.4347
 -0.4309  -0.4212  -0.4147  -0.4004  -0.3912  -0.3883  -0.3848  -0.3732
 -0.3589  -0.3577  -0.3493  -0.3445  -0.3364  -0.3198  -0.3150  -0.2961
 -0.2634  -0.2513  -0.2425  -0.2283  -0.2135  -0.1864  -0.1319

          Ground-State Mulliken Net Atomic Charges

     Atom                 Charge (a.u.)
  ----------------------------------------
      1 C                     0.337471
      2 C                     1.535896
      3 C                     1.617374
      4 C                    -0.626852
      5 C                    -2.057067
      6 C                     0.157217
      7 C                    -1.069940
      8 C                    -0.732377
      9 C                    -1.092865
     10 C                    -2.306138
     11 C                    -0.480327
     12 C                     1.217387
     13 C                    -0.539696
     14 C                     0.922081
     15 O                    -0.249181
     16 O                    -0.303392
     17 O                    -0.448269
     18 H                     0.180468
     19 H                     0.409644
     20 H                     0.374764
     21 H                     0.136716
     22 H                     0.408394
     23 O                    -0.153706
     24 H                     0.101478
     25 H                     0.302902
     26 H                     0.358018
  ----------------------------------------
  Sum of atomic charges =    -2.000000

                    Cartesian Multipole Moments
 -----------------------------------------------------------------
    Charge (ESU x 10^10)
                -9.6064
    Dipole Moment (Debye)
         X     -14.7778      Y      24.2748      Z      -7.3879
       Tot      29.3638
    Quadrupole Moments (Debye-Ang)
        XX    -175.8293     XY      33.9129     YY    -218.0579
        XZ       4.4746     YZ      41.3484     ZZ    -141.4954

 Total job time:  749.21s(wall), 5439.46s(cpu)
        *  Thank you very much for using Q-Chem.  Have a nice day.  *
