 Gaussian 16, Revision A.03,
 Gaussian 16:  ES64L-G16RevA.03 25-Dec-2016

 ----------------------------------------------------------------
 #P UB3LYP/6-311++G(d,p) SCRF=(PCM,Solvent=n,n-DiMethylFormamide)
 ----------------------------------------------------------------

 ------------------
 Radical PCM in DMF
 ------------------
 Symbolic Z-matrix:
 Charge = -1 Multiplicity = 2

                         Standard orientation:
 ---------------------------------------------------------------------
 Center     Atomic      Atomic             Coordinates (Angstroms)
 Number     Number       Type             X           Y           Z
 ---------------------------------------------------------------------
      1          7           0        2.521146    2.832913   -0.227697
      2          6           0        2.472827    1.448774   -0.076580
      3          6           0        3.670138    0.743978    0.000849
      4          6           0        3.683366   -0.650205    0.089993
      5          6           0        2.507709   -1.380858    0.076795
      6          8           0        2.573111   -2.754627    0.159650
      7          6           0        1.251656   -0.716623   -0.002946
      8          6           0        0.005982   -1.465681   -0.042856
      9          8           0       -0.008408   -2.740186   -0.101533
     10          6           0       -1.249086   -0.732367   -0.017494
     11          6           0       -2.468293   -1.472064   -0.049712
     12          8           0       -2.475582   -2.822210   -0.102651
     13          6           0       -3.682815   -0.796450   -0.027421
     14          6           0       -3.715316    0.594852    0.048136
     15          6           0       -2.549311    1.361712    0.087256
     16          7           0       -2.659287    2.748569    0.228924
     17          6           0       -1.281527    0.699266    0.033584
     18          6           0       -0.036013    1.452060   -0.015617
     19          8           0       -0.056297    2.734335   -0.026873
     20          6           0        1.230105    0.727065   -0.045789
     21          1           0        3.326683    3.275813    0.188105
     22          1           0        1.614387    3.272499   -0.066708
     23          1           0        4.607739    1.291802   -0.024439
     24          1           0        4.634251   -1.175160    0.159033
     25          1           0        3.507115   -2.986029    0.198753
     26          1           0       -1.489582   -3.067927   -0.112471
     27          1           0       -4.598162   -1.377199   -0.057369
     28          1           0       -4.673400    1.106535    0.093840
     29          1           0       -1.778916    3.223313    0.033986
     30          1           0       -3.482244    3.146723   -0.199251
 ---------------------------------------------------------------------

 SCF Done:  E(UB3LYP) =  -950.353285271     A.U. after   19 cycles

 The electronic state is 2-A.
 Alpha  occ. eigenvalues --  -19.14663 -19.12057 -19.08104 -19.07836 -14.29976
 Alpha  occ. eigenvalues --  -14.29934 -10.23154 -10.23075 -10.23057 -10.22338
 Alpha  occ. eigenvalues --  -10.21191 -10.20880 -10.17846 -10.17752 -10.17389
 Alpha  occ. eigenvalues --  -10.17226 -10.17131 -10.16646 -10.16542 -10.16389
 Alpha  occ. eigenvalues --   -1.05878  -1.04683  -1.00608  -0.99958  -0.91046
 Alpha  occ. eigenvalues --   -0.90466  -0.84523  -0.82736  -0.78338  -0.74395
 Alpha  occ. eigenvalues --   -0.73133  -0.71667  -0.66737  -0.64166  -0.63590
 Alpha  occ. eigenvalues --   -0.59156  -0.57320  -0.55860  -0.53838  -0.52184
 Alpha  occ. eigenvalues --   -0.50966  -0.49588  -0.49312  -0.47528  -0.45898
 Alpha  occ. eigenvalues --   -0.44985  -0.44680  -0.43518  -0.43297  -0.42008
 Alpha  occ. eigenvalues --   -0.40857  -0.40800  -0.39630  -0.39600  -0.38922
 Alpha  occ. eigenvalues --   -0.37771  -0.37151  -0.36698  -0.35969  -0.35482
 Alpha  occ. eigenvalues --   -0.34833  -0.34249  -0.29367  -0.28349  -0.26531
 Alpha  occ. eigenvalues --   -0.24975  -0.24888  -0.23905  -0.21106  -0.19283
 Alpha  occ. eigenvalues --   -0.13398
 Alpha virt. eigenvalues --   -0.03718  -0.02518  -0.00285   0.00274   0.00721
 Alpha virt. eigenvalues --    0.01739   0.01865   0.02049   0.03405   0.03876
 Alpha virt. eigenvalues --    0.04289   0.04407   0.04892   0.05964   0.06268

  Beta  occ. eigenvalues --  -19.14623 -19.11998 -19.07666 -19.07418 -14.29937
  Beta  occ. eigenvalues --  -14.29881 -10.23001 -10.22980 -10.22868 -10.22283
  Beta  occ. eigenvalues --  -10.21185 -10.20848 -10.17819 -10.17724 -10.17383
  Beta  occ. eigenvalues --  -10.17233 -10.17061 -10.16508 -10.16428 -10.16301
  Beta  occ. eigenvalues --   -1.05776  -1.04484  -0.99892  -0.99261  -0.90943
  Beta  occ. eigenvalues --   -0.90307  -0.84296  -0.82579  -0.77956  -0.74222
  Beta  occ. eigenvalues --   -0.72805  -0.71459  -0.66128  -0.63958  -0.63370
  Beta  occ. eigenvalues --   -0.59043  -0.57163  -0.55635  -0.53735  -0.52111
  Beta  occ. eigenvalues --   -0.50868  -0.49450  -0.49198  -0.47283  -0.45769
  Beta  occ. eigenvalues --   -0.44882  -0.44539  -0.43178  -0.42749  -0.41799
  Beta  occ. eigenvalues --   -0.40484  -0.40455  -0.39479  -0.39099  -0.38294
  Beta  occ. eigenvalues --   -0.37651  -0.36815  -0.35768  -0.35347  -0.35329
  Beta  occ. eigenvalues --   -0.34626  -0.33135  -0.28623  -0.27858  -0.25076
  Beta  occ. eigenvalues --   -0.24587  -0.24491  -0.23539  -0.19914  -0.18532
  Beta virt. eigenvalues --   -0.08388  -0.02402  -0.01492  -0.00266   0.00287
  Beta virt. eigenvalues --    0.00739   0.01772   0.01922   0.02339   0.03438
  Beta virt. eigenvalues --    0.03923   0.04311   0.04551   0.05548   0.06020

 Mulliken charges and spin densities:
               1          2
     1  N   -0.434058   0.018064
     2  C   -0.030941   0.006449
     3  C   -0.189452   0.103994
     4  C   -0.324266   0.050965
     5  C   -0.188774   0.052317
     6  O   -0.278359   0.010779
     7  C    0.379036   0.005220
     8  C   -0.493046   0.111920
     9  O   -0.486581   0.156575
    10  C    0.569316  -0.006808
    11  C   -0.164448   0.056003
    12  O   -0.446788   0.017722
    13  C   -0.314562   0.062158
    14  C   -0.247751   0.087372
    15  C   -0.087267   0.026824
    16  N   -0.431185   0.023418
    17  C    0.280429  -0.007079
    18  C   -0.520662   0.098742
    19  O   -0.472306   0.146578
    20  C    0.352575   0.014320
    21  H    0.257782  -0.001010
    22  H    0.319368  -0.002120
    23  H    0.177609  -0.008112
    24  H    0.159819  -0.004882
    25  H    0.292227  -0.000529
    26  H    0.393009  -0.003435
    27  H    0.183324  -0.005193
    28  H    0.175282  -0.006914
    29  H    0.315673  -0.002331
    30  H    0.254999  -0.001009
 Sum of Mulliken charges =  -1.00000   1.00000

 Dipole moment (field-independent basis, Debye):
    X=              4.4813    Y=              4.1348    Z=              0.3011  Tot=              6.1049
 Quadrupole moment (field-independent basis, Debye-Ang):
   XX=           -107.8928   YY=           -148.7047   ZZ=           -125.4749
   XY=            -12.3752   XZ=              6.9000   YZ=             -0.9965

 Normal termination of Gaussian 16 at Tue Jan 16 05:49:34 2024.
