 Gaussian 16, Revision A.03,
 Gaussian 16:  ES64L-G16RevA.03 25-Dec-2016

 ----------------------------------------------------------------------
 #P UB3LYP/6-311++G(d,p) nosym opt freq SCRF=(PCM,Solvent=n,n-DiMethylF
 ormamide)
 ----------------------------------------------------------------------

 --------
 Oxidized
 --------
 Symbolic Z-matrix:
 Charge =  0 Multiplicity = 1

 SCF Done:  E(UB3LYP) =  -610.676516142     A.U. after   14 cycles
 SCF Done:  E(UB3LYP) =  -610.676605104     A.U. after   12 cycles
 SCF Done:  E(UB3LYP) =  -610.676702468     A.U. after   12 cycles
 SCF Done:  E(UB3LYP) =  -610.676756657     A.U. after   12 cycles
 SCF Done:  E(UB3LYP) =  -610.676782395     A.U. after   11 cycles
 SCF Done:  E(UB3LYP) =  -610.676806734     A.U. after   12 cycles
 SCF Done:  E(UB3LYP) =  -610.676829460     A.U. after   12 cycles
 SCF Done:  E(UB3LYP) =  -610.676822525     A.U. after   12 cycles
 SCF Done:  E(UB3LYP) =  -610.676832719     A.U. after   13 cycles
 SCF Done:  E(UB3LYP) =  -610.676838533     A.U. after   10 cycles
 SCF Done:  E(UB3LYP) =  -610.677320388     A.U. after   11 cycles
 SCF Done:  E(UB3LYP) =  -610.677276751     A.U. after   12 cycles
 SCF Done:  E(UB3LYP) =  -610.677339769     A.U. after   12 cycles
 SCF Done:  E(UB3LYP) =  -610.677343355     A.U. after   10 cycles
 SCF Done:  E(UB3LYP) =  -610.677344672     A.U. after   10 cycles
 SCF Done:  E(UB3LYP) =  -610.677345144     A.U. after    9 cycles
 SCF Done:  E(UB3LYP) =  -610.677345370     A.U. after    9 cycles
 SCF Done:  E(UB3LYP) =  -610.677345560     A.U. after    9 cycles
 SCF Done:  E(UB3LYP) =  -610.677345583     A.U. after    8 cycles
 Optimization completed.
    -- Stationary point found.
 Normal termination of Gaussian 16 at Sat Feb 10 10:58:05 2024.

 ----------------------------------------------------------------------
 #P Geom=AllCheck Guess=TCheck SCRF=Check GenChk UB3LYP/6-311++G(d,p) F
 req
 ----------------------------------------------------------------------

 Structure from the checkpoint file:  "084.chk"
 --------
 Oxidized
 --------
 Charge =  0 Multiplicity = 1

                          Input orientation:
 ---------------------------------------------------------------------
 Center     Atomic      Atomic             Coordinates (Angstroms)
 Number     Number       Type             X           Y           Z
 ---------------------------------------------------------------------
      1          6           0        2.885987   -0.447932    0.399635
      2          8           0        1.681586    0.258144    0.783909
      3          6           0        0.501240   -0.267721    0.390278
      4          6           0       -0.339822    0.442893   -0.406943
      5          8           0        0.055056    1.615586   -0.949148
      6          6           0       -0.705198    2.797979   -0.602046
      7          6           0       -1.656416   -0.130207   -0.818858
      8          8           0       -2.364124    0.441575   -1.635825
      9          6           0       -2.059489   -1.438835   -0.249883
     10          6           0       -1.245294   -2.123672    0.557786
     11          6           0        0.071441   -1.577537    0.965899
     12          8           0        0.765534   -2.163791    1.784267
     13          1           0        2.974332   -0.458280   -0.689177
     14          1           0        3.706866    0.120935    0.830620
     15          1           0        2.886861   -1.462807    0.794566
     16          1           0       -0.250643    3.611594   -1.162958
     17          1           0       -0.615101    2.991258    0.469413
     18          1           0       -1.750889    2.687556   -0.885599
     19          1           0       -3.033411   -1.807600   -0.549532
     20          1           0       -1.508516   -3.089137    0.973595
 ---------------------------------------------------------------------

 SCF Done:  E(UB3LYP) =  -610.677345583     A.U. after    2 cycles

 Alpha  occ. eigenvalues --  -19.16744 -19.16737 -19.14798 -19.14794 -10.29445
 Alpha  occ. eigenvalues --  -10.29442 -10.26525 -10.26456 -10.22633 -10.22632
 Alpha  occ. eigenvalues --  -10.21736 -10.21652  -1.10056  -1.08634  -1.07036
 Alpha  occ. eigenvalues --   -1.06199  -0.86478  -0.79745  -0.73697  -0.70482
 Alpha  occ. eigenvalues --   -0.70103  -0.62811  -0.61170  -0.55327  -0.53168
 Alpha  occ. eigenvalues --   -0.52905  -0.49738  -0.49699  -0.47726  -0.46874
 Alpha  occ. eigenvalues --   -0.46327  -0.45602  -0.43950  -0.43143  -0.42676
 Alpha  occ. eigenvalues --   -0.41948  -0.38235  -0.37540  -0.32832  -0.32479
 Alpha  occ. eigenvalues --   -0.31701  -0.28723  -0.28443  -0.26482
 Alpha virt. eigenvalues --   -0.13953  -0.02861  -0.01008  -0.00577   0.00731
 Alpha virt. eigenvalues --    0.00919   0.02065   0.02234   0.03093   0.03374
 Alpha virt. eigenvalues --    0.04606   0.05396   0.05772   0.06660   0.06972

  Beta  occ. eigenvalues --  -19.16744 -19.16737 -19.14798 -19.14794 -10.29445
  Beta  occ. eigenvalues --  -10.29442 -10.26525 -10.26456 -10.22633 -10.22632
  Beta  occ. eigenvalues --  -10.21736 -10.21652  -1.10056  -1.08634  -1.07036
  Beta  occ. eigenvalues --   -1.06199  -0.86478  -0.79745  -0.73697  -0.70482
  Beta  occ. eigenvalues --   -0.70103  -0.62811  -0.61170  -0.55327  -0.53168
  Beta  occ. eigenvalues --   -0.52905  -0.49738  -0.49699  -0.47726  -0.46874
  Beta  occ. eigenvalues --   -0.46327  -0.45602  -0.43950  -0.43143  -0.42676
  Beta  occ. eigenvalues --   -0.41948  -0.38235  -0.37540  -0.32832  -0.32479
  Beta  occ. eigenvalues --   -0.31701  -0.28723  -0.28443  -0.26482
  Beta virt. eigenvalues --   -0.13953  -0.02861  -0.01008  -0.00577   0.00731
  Beta virt. eigenvalues --    0.00919   0.02065   0.02234   0.03093   0.03374
  Beta virt. eigenvalues --    0.04606   0.05396   0.05772   0.06660   0.06972

 Mulliken charges and spin densities:
               1          2
     1  C   -0.294229  -0.000000
     2  O   -0.175256  -0.000000
     3  C    0.089918   0.000000
     4  C    0.097821  -0.000000
     5  O   -0.174741   0.000000
     6  C   -0.294394   0.000000
     7  C   -0.256559   0.000000
     8  O   -0.289652  -0.000000
     9  C    0.159321  -0.000000
    10  C    0.158906   0.000000
    11  C   -0.261048  -0.000000
    12  O   -0.289306   0.000000
    13  H    0.167948  -0.000000
    14  H    0.172207   0.000000
    15  H    0.176440   0.000000
    16  H    0.172536   0.000000
    17  H    0.168018  -0.000000
    18  H    0.175879   0.000000
    19  H    0.248142   0.000000
    20  H    0.248047   0.000000
 Sum of Mulliken charges =  -0.00000  -0.00000

 Dipole moment (field-independent basis, Debye):
    X=             -0.3337    Y=             -0.3702    Z=              0.0400  Tot=              0.5001
 Quadrupole moment (field-independent basis, Debye-Ang):
   XX=            -64.9178   YY=            -63.0242   ZZ=            -80.6459
   XY=              3.9830   XZ=             -8.3127   YZ=              5.9121

  Exact polarizability: 165.915 -22.466 154.080  48.325 -44.970 135.112
 Approx polarizability: 194.918 -43.550 175.663  74.093 -65.557 176.978

                      1                      2                      3
                      A                      A                      A
 Frequencies --     53.9375                66.8104                75.5610
 Red. masses --      2.7304                 2.2833                 5.0203
 Frc consts  --      0.0047                 0.0060                 0.0169
 IR Inten    --     26.8867                 1.1413                 1.3115

                      4                      5                      6
                      A                      A                      A
 Frequencies --     93.9753               124.8925               129.7886
 Red. masses --      4.3017                 1.2768                 1.1987
 Frc consts  --      0.0224                 0.0117                 0.0119
 IR Inten    --     22.6087                 7.2691                 0.3630

                      7                      8                      9
                      A                      A                      A
 Frequencies --    193.8981               234.3321               279.1616
 Red. masses --      3.3944                 4.7432                 4.2930
 Frc consts  --      0.0752                 0.1535                 0.1971
 IR Inten    --      5.3389                10.1672                 0.3803

                     10                     11                     12
                      A                      A                      A
 Frequencies --    311.5187               327.9924               386.5227
 Red. masses --      9.4900                 5.8711                12.3116
 Frc consts  --      0.5426                 0.3721                 1.0837
 IR Inten    --     10.6531                 6.6070                14.5517

                     13                     14                     15
                      A                      A                      A
 Frequencies --    404.9715               442.1695               462.9841
 Red. masses --      6.7229                 5.3121                11.1359
 Frc consts  --      0.6496                 0.6119                 1.4064
 IR Inten    --      2.9392                34.6460                 5.3090

                     16                     17                     18
                      A                      A                      A
 Frequencies --    596.4166               620.3901               636.7433
 Red. masses --      7.7680                 3.0570                 2.9019
 Frc consts  --      1.6280                 0.6932                 0.6932
 IR Inten    --     28.3208                19.9436                 8.3987

                     19                     20                     21
                      A                      A                      A
 Frequencies --    660.5520               757.7662               807.5252
 Red. masses --      7.0226                 6.3268                 9.8495
 Frc consts  --      1.8054                 2.1404                 3.7842
 IR Inten    --     23.1419                25.8440                 1.9580

                     22                     23                     24
                      A                      A                      A
 Frequencies --    858.9885               907.7008               953.6169
 Red. masses --      2.3107                 8.1210                 7.2846
 Frc consts  --      1.0045                 3.9423                 3.9031
 IR Inten    --    114.3776                84.7153                 1.0865

                     25                     26                     27
                      A                      A                      A
 Frequencies --   1008.0116              1036.3122              1075.7082
 Red. masses --      1.2527                 6.2534                 2.4818
 Frc consts  --      0.7499                 3.9568                 1.6920
 IR Inten    --      0.1662                99.9439               319.6006

                     28                     29                     30
                      A                      A                      A
 Frequencies --   1154.1887              1159.5905              1170.1850
 Red. masses --      1.3367                 1.2451                 1.4913
 Frc consts  --      1.0492                 0.9864                 1.2032
 IR Inten    --    160.3048                 3.3046                40.4749

                     31                     32                     33
                      A                      A                      A
 Frequencies --   1175.4624              1219.7749              1222.2839
 Red. masses --      2.1136                 2.0286                 1.6654
 Frc consts  --      1.7206                 1.7783                 1.4659
 IR Inten    --    186.0803               129.7995               161.5979

                     34                     35                     36
                      A                      A                      A
 Frequencies --   1291.4498              1337.1713              1382.0895
 Red. masses --      4.6630                 5.2001                 1.7497
 Frc consts  --      4.5822                 5.4782                 1.9692
 IR Inten    --    633.2903                 5.1784                 1.3903

                     37                     38                     39
                      A                      A                      A
 Frequencies --   1461.0233              1472.4728              1479.5621
 Red. masses --      1.1762                 1.1825                 1.0536
 Frc consts  --      1.4792                 1.5106                 1.3589
 IR Inten    --     16.1923                60.0537                 9.8761

                     40                     41                     42
                      A                      A                      A
 Frequencies --   1481.0646              1494.6304              1496.0210
 Red. masses --      1.0683                 1.0470                 1.0480
 Frc consts  --      1.3807                 1.3781                 1.3820
 IR Inten    --      4.5533                29.5016                22.9200

                     43                     44                     45
                      A                      A                      A
 Frequencies --   1625.9326              1680.0315              1688.7337
 Red. masses --      8.8886                 9.8379                11.6215
 Frc consts  --     13.8448                16.3601                19.5270
 IR Inten    --    233.6352                13.6724              1231.4858

                     46                     47                     48
                      A                      A                      A
 Frequencies --   1709.9568              3040.7001              3041.9783
 Red. masses --      9.3222                 1.0334                 1.0336
 Frc consts  --     16.0597                 5.6294                 5.6351
 IR Inten    --      0.1780               109.7347                35.3042

                     49                     50                     51
                      A                      A                      A
 Frequencies --   3124.9219              3125.7989              3156.5382
 Red. masses --      1.1018                 1.1017                 1.1068
 Frc consts  --      6.3392                 6.3423                 6.4974
 IR Inten    --     34.2903                27.3825                15.5241

                     52                     53                     54
                      A                      A                      A
 Frequencies --   3156.8753              3187.0369              3203.2931
 Red. masses --      1.1069                 1.0876                 1.1002
 Frc consts  --      6.4995                 6.5085                 6.6513
 IR Inten    --     18.8679                 2.6496                 1.2801

 - Thermochemistry -
 -------------------
 Temperature   298.150 Kelvin.  Pressure   1.00000 Atm.
 Atom     1 has atomic number  6 and mass  12.00000

 Molecular mass:   168.04226 amu.
 Principal axes and moments of inertia in atomic units:
                           1         2         3
     Eigenvalues --  1431.305781990.484733190.52549
           X            0.65608   0.67847  -0.33051
           Y           -0.56478   0.73188   0.38128
           Z            0.50058  -0.06349   0.86336
 This molecule is an asymmetric top.
 Rotational symmetry number  1.
 Warning -- assumption of classical behavior for rotation
           may cause significant error
 Rotational temperatures (Kelvin)      0.06051     0.04351     0.02715
 Rotational constants (GHZ):           1.26091     0.90668     0.56566
 Zero-point vibrational energy     390263.8 (Joules/Mol)
                                   93.27529 (Kcal/Mol)
 Warning -- explicit consideration of  17 degrees of freedom as
           vibrations may cause significant error
 Vibrational temperatures:     77.60    96.13   108.72   135.21   179.69
          (Kelvin)            186.74   278.98   337.15   401.65   448.21
                              471.91   556.12   582.66   636.18   666.13
                              858.11   892.60   916.13   950.39  1090.26
                             1161.85  1235.89  1305.98  1372.04  1450.30
                             1491.02  1547.70  1660.62  1668.39  1683.64
                             1691.23  1754.98  1758.59  1858.11  1923.89
                             1988.52  2102.09  2118.56  2128.76  2130.92
                             2150.44  2152.44  2339.35  2417.19  2429.71
                             2460.25  4374.89  4376.73  4496.07  4497.33
                             4541.55  4542.04  4585.44  4608.82

 Zero-point correction=                           0.148644 (Hartree/Particle)
 Thermal correction to Energy=                    0.160650
 Thermal correction to Enthalpy=                  0.161595
 Thermal correction to Gibbs Free Energy=         0.109708
 Sum of electronic and zero-point Energies=           -610.528702
 Sum of electronic and thermal Energies=              -610.516695
 Sum of electronic and thermal Enthalpies=            -610.515751
 Sum of electronic and thermal Free Energies=         -610.567637

                     E (Thermal)             CV                S
                      KCal/Mol        Cal/Mol-Kelvin    Cal/Mol-Kelvin
 Total                  100.810             42.044            109.204
 Electronic               0.000              0.000              0.000
 Translational            0.889              2.981             41.265
 Rotational               0.889              2.981             30.587
 Vibrational             99.032             36.082             37.352
 Vibration     1          0.596              1.976              4.668
 Vibration     2          0.598              1.970              4.245
 Vibration     3          0.599              1.965              4.003
 Vibration     4          0.603              1.953              3.576
 Vibration     5          0.610              1.928              3.023
 Vibration     6          0.612              1.923              2.949
 Vibration     7          0.635              1.848              2.190
 Vibration     8          0.654              1.788              1.846
 Vibration     9          0.679              1.712              1.539
 Vibration    10          0.700              1.652              1.354
 Vibration    11          0.711              1.620              1.270
 Vibration    12          0.755              1.499              1.014
 Vibration    13          0.770              1.459              0.945
 Vibration    14          0.802              1.378              0.820
 Vibration    15          0.821              1.332              0.757
 Vibration    16          0.954              1.039              0.456
 Vibration    17          0.980              0.989              0.416

 Optimization completed.
    -- Stationary point found.
 Normal termination of Gaussian 16 at Sat Feb 10 11:07:11 2024.
