 Q-Chem 5.4, Q-Chem, Inc., Pleasanton, CA (2021)
 Q-Chem 5.4.0 for Intel X86 EM64T Linux

User input:
--------------------------------------------------------------
$molecule
-1 2
C                 -2.2423380000      3.2265720000      4.1201040000
C                 -3.4673690000      2.6687570000      4.3917830000
C                 -3.9038660000      1.5331800000      3.6795740000
C                 -3.0979880000      0.9686160000      2.6991420000
C                 -1.8107940000      1.5196750000      2.3890060000
C                 -1.4006160000      2.6754760000      3.1260920000
C                 -0.1182190000      3.3425820000      2.9019260000
C                 -0.9235710000      0.9416450000      1.3740540000
C                  0.7495030000      2.8020550000      1.8686280000
C                  0.3673780000      1.6291970000      1.1538770000
C                  2.0207410000      3.4041640000      1.5697720000
C                  2.8593190000      2.8093690000      0.6257440000
C                  2.4678390000      1.6471710000     -0.0522940000
C                  1.2381170000      1.0694230000      0.1979570000
O                  0.1990580000      4.3513260000      3.6105010000
O                 -1.1999940000     -0.0802360000      0.7083490000
N                  2.3947630000      4.5908210000      2.1811890000
O                 -3.4980420000     -0.1294800000      1.9915810000
C                 -4.7565900000     -0.6981940000      2.2678120000
H                 -1.8804740000      4.0993490000      4.6478620000
H                 -4.1114850000      3.0966050000      5.1544370000
H                 -4.8729320000      1.1099320000      3.9058010000
H                  3.8176360000      3.2747120000      0.4088640000
H                  3.1385370000      1.2062690000     -0.7846820000
H                  0.9080030000      0.1775520000     -0.3184800000
H                  1.8064240000      4.8283160000      2.9828070000
H                  3.3862150000      4.7592120000      2.2514320000
H                 -4.8500980000     -1.5473020000      1.5895870000
H                 -5.5785480000      0.0056490000      2.0789020000
H                 -4.8299120000     -1.0555830000      3.3039140000
$end

$rem
BASIS  =  6-311++G(d,p)
GUI  =  2
JOB_TYPE  =  SP
METHOD  =  B3LYP
SCF_CONVERGENCE  = 8
SOLVENT_METHOD = sm12
$end

$smx
solvent dimethylformamide
charges CM5
$end

--------------------------------------------------------------

             Standard Nuclear Orientation (Angstroms)
    I     Atom           X                Y                Z
 ----------------------------------------------------------------
    1      C      -2.2423380000     3.2265720000     4.1201040000
    2      C      -3.4673690000     2.6687570000     4.3917830000
    3      C      -3.9038660000     1.5331800000     3.6795740000
    4      C      -3.0979880000     0.9686160000     2.6991420000
    5      C      -1.8107940000     1.5196750000     2.3890060000
    6      C      -1.4006160000     2.6754760000     3.1260920000
    7      C      -0.1182190000     3.3425820000     2.9019260000
    8      C      -0.9235710000     0.9416450000     1.3740540000
    9      C       0.7495030000     2.8020550000     1.8686280000
   10      C       0.3673780000     1.6291970000     1.1538770000
   11      C       2.0207410000     3.4041640000     1.5697720000
   12      C       2.8593190000     2.8093690000     0.6257440000
   13      C       2.4678390000     1.6471710000    -0.0522940000
   14      C       1.2381170000     1.0694230000     0.1979570000
   15      O       0.1990580000     4.3513260000     3.6105010000
   16      O      -1.1999940000    -0.0802360000     0.7083490000
   17      N       2.3947630000     4.5908210000     2.1811890000
   18      O      -3.4980420000    -0.1294800000     1.9915810000
   19      C      -4.7565900000    -0.6981940000     2.2678120000
   20      H      -1.8804740000     4.0993490000     4.6478620000
   21      H      -4.1114850000     3.0966050000     5.1544370000
   22      H      -4.8729320000     1.1099320000     3.9058010000
   23      H       3.8176360000     3.2747120000     0.4088640000
   24      H       3.1385370000     1.2062690000    -0.7846820000
   25      H       0.9080030000     0.1775520000    -0.3184800000
   26      H       1.8064240000     4.8283160000     2.9828070000
   27      H       3.3862150000     4.7592120000     2.2514320000
   28      H      -4.8500980000    -1.5473020000     1.5895870000
   29      H      -5.5785480000     0.0056490000     2.0789020000
   30      H      -4.8299120000    -1.0555830000     3.3039140000
 ----------------------------------------------------------------

   18    -858.9345197846      5.14e-09  Convergence criterion met
 Total energy in the final basis set =     -859.0279697923

                    Orbital Energies (a.u.)
 --------------------------------------------------------------

 Alpha MOs
 -- Occupied --
-19.1486 -19.0779 -19.0688 -14.3105 -10.2421 -10.2278 -10.2261 -10.2228
-10.2159 -10.1803 -10.1796 -10.1793 -10.1786 -10.1776 -10.1761 -10.1734
-10.1709 -10.1668 -10.1633  -1.0680  -1.0038  -0.9984  -0.9176  -0.8593
 -0.8415  -0.7886  -0.7608  -0.7457  -0.7334  -0.6981  -0.6691  -0.6364
 -0.6299  -0.5852  -0.5616  -0.5523  -0.5350  -0.5107  -0.4889  -0.4879
 -0.4720  -0.4683  -0.4661  -0.4517  -0.4454  -0.4279  -0.4252  -0.4135
 -0.4058  -0.3977  -0.3870  -0.3833  -0.3773  -0.3676  -0.3579  -0.3547
 -0.3482  -0.3306  -0.3204  -0.3116  -0.2703  -0.2558  -0.2460  -0.2328
 -0.2277  -0.2159  -0.1398

 Beta MOs
 -- Occupied --
-19.1486 -19.0724 -19.0631 -14.3103 -10.2423 -10.2258 -10.2251 -10.2228
-10.2159 -10.1796 -10.1791 -10.1787 -10.1776 -10.1776 -10.1749 -10.1726
-10.1702 -10.1667 -10.1633  -1.0680  -0.9944  -0.9886  -0.9167  -0.8570
 -0.8400  -0.7848  -0.7593  -0.7436  -0.7314  -0.6971  -0.6623  -0.6347
 -0.6275  -0.5845  -0.5600  -0.5503  -0.5337  -0.5100  -0.4871  -0.4864
 -0.4706  -0.4671  -0.4655  -0.4507  -0.4442  -0.4267  -0.4153  -0.4115
 -0.4017  -0.3957  -0.3826  -0.3817  -0.3671  -0.3582  -0.3558  -0.3485
 -0.3439  -0.3301  -0.3152  -0.3051  -0.2502  -0.2489  -0.2411  -0.2263
 -0.2225  -0.2093

          Ground-State Mulliken Net Atomic Charges

     Atom                 Charge (a.u.)    Spin (a.u.)
  --------------------------------------------------------
      1 C                    -0.676959       0.034625
      2 C                     1.041615       0.042012
      3 C                     2.043058       0.068487
      4 C                    -0.054030       0.008528
      5 C                    -0.010820       0.044658
      6 C                    -1.270713       0.023690
      7 C                    -2.295799       0.092835
      8 C                    -2.001476       0.026147
      9 C                    -1.565557      -0.014514
     10 C                    -0.255963       0.081259
     11 C                    -0.390715       0.026705
     12 C                     2.051636       0.068745
     13 C                     0.750621       0.052147
     14 C                    -0.595876       0.037322
     15 O                    -0.280447       0.202807
     16 O                    -0.287321       0.219431
     17 N                    -0.244772       0.009473
     18 O                    -0.110241      -0.001344
     19 C                     0.093004      -0.000440
     20 H                     0.131507      -0.001799
     21 H                     0.363165      -0.002973
     22 H                     0.389359      -0.004368
     23 H                     0.313952      -0.004677
     24 H                     0.343710      -0.003535
     25 H                     0.117164      -0.002313
     26 H                     0.288217      -0.002527
     27 H                     0.387796      -0.000842
     28 H                     0.271224      -0.000116
     29 H                     0.225854       0.000249
     30 H                     0.228808       0.000329
  --------------------------------------------------------
  Sum of atomic charges =    -1.000000

                    Cartesian Multipole Moments
 -----------------------------------------------------------------
    Charge (ESU x 10^10)
                -4.8032
    Dipole Moment (Debye)
         X       1.0373      Y     -10.5791      Z      -8.6792
       Tot      13.7231
    Quadrupole Moments (Debye-Ang)
        XX    -103.8383     XY       6.2920     YY    -156.0996
        XZ      -0.5190     YZ     -29.4550     ZZ    -142.1219

 Total job time:  955.59s(wall), 7195.39s(cpu)
        *  Thank you very much for using Q-Chem.  Have a nice day.  *
