 Gaussian 16, Revision A.03,
 Gaussian 16:  ES64L-G16RevA.03 25-Dec-2016

 ----------------------------------------------------------------------
 #P UB3LYP/6-311++G(d,p) nosym opt freq SCRF=(PCM,Solvent=n,n-DiMethylF
 ormamide)
 ----------------------------------------------------------------------

 -------
 Reduced
 -------
 Symbolic Z-matrix:
 Charge = -2 Multiplicity = 1

 SCF Done:  E(UB3LYP) =  -990.417035713     A.U. after   17 cycles
 SCF Done:  E(UB3LYP) =  -990.418630552     A.U. after   13 cycles
 SCF Done:  E(UB3LYP) =  -990.418747451     A.U. after   12 cycles
 SCF Done:  E(UB3LYP) =  -990.419036650     A.U. after   12 cycles
 SCF Done:  E(UB3LYP) =  -990.419097832     A.U. after   13 cycles
 SCF Done:  E(UB3LYP) =  -990.419119255     A.U. after   11 cycles
 SCF Done:  E(UB3LYP) =  -990.419126315     A.U. after   11 cycles
 SCF Done:  E(UB3LYP) =  -990.419127757     A.U. after   10 cycles
 SCF Done:  E(UB3LYP) =  -990.419128017     A.U. after    9 cycles
 SCF Done:  E(UB3LYP) =  -990.419128196     A.U. after    9 cycles
 Optimization completed.
    -- Stationary point found.
 Normal termination of Gaussian 16 at Sun Feb 11 15:55:18 2024.

 ----------------------------------------------------------------------
 #P Geom=AllCheck Guess=TCheck SCRF=Check GenChk UB3LYP/6-311++G(d,p) F
 req
 ----------------------------------------------------------------------

 Structure from the checkpoint file:  "312-an.chk"
 -------
 Reduced
 -------
 Charge = -2 Multiplicity = 1

                          Input orientation:
 ---------------------------------------------------------------------
 Center     Atomic      Atomic             Coordinates (Angstroms)
 Number     Number       Type             X           Y           Z
 ---------------------------------------------------------------------
      1          6           0        3.748942    0.162330   -0.217766
      2          6           0        2.755577    0.122782    0.961376
      3          6           0        1.299756    0.219229    0.563202
      4          6           0        0.572170   -0.990127    0.365784
      5          8           0        1.142218   -2.138741    0.539526
      6          6           0       -0.838934   -0.866584   -0.032089
      7          6           0       -1.684595   -1.991603   -0.288109
      8          8           0       -1.238406   -3.307903   -0.211069
      9          6           0       -3.010575   -1.809183   -0.642285
     10          8           0       -3.783800   -2.944756   -0.872434
     11          6           0       -3.557477   -0.530820   -0.772404
     12          8           0       -4.886128   -0.391952   -1.137774
     13          6           0       -2.804682    0.615311   -0.559583
     14          6           0       -1.424766    0.450103   -0.181419
     15          6           0       -0.637383    1.617112    0.042084
     16          6           0        0.687282    1.484394    0.394753
     17          8           0        1.406649    2.664756    0.581984
     18          8           0       -1.194817    2.880786   -0.098500
     19          8           0       -3.401750    1.796844   -0.717211
     20          1           0        3.542973   -0.653288   -0.915812
     21          1           0        3.675507    1.100772   -0.776457
     22          1           0        4.783627    0.059490    0.128136
     23          1           0        2.886372   -0.822170    1.493066
     24          1           0        3.029855    0.909070    1.681991
     25          1           0       -1.991538   -3.859513   -0.462840
     26          1           0        2.286405    2.435329    0.899113
     27          1           0       -2.147836    2.694555   -0.364395
     28          1           0       -4.651670   -2.663220   -1.187278
     29          1           0       -4.998807    0.577856   -1.172716
 ---------------------------------------------------------------------

 SCF Done:  E(UB3LYP) =  -990.419128196     A.U. after    1 cycles

 Alpha  occ. eigenvalues --  -19.14655 -19.13339 -19.12965 -19.12434 -19.09265
 Alpha  occ. eigenvalues --  -19.04729 -19.01409 -10.20242 -10.19890 -10.19129
 Alpha  occ. eigenvalues --  -10.19002 -10.18575 -10.18187 -10.17781 -10.15218
 Alpha  occ. eigenvalues --  -10.14800 -10.14732 -10.14616 -10.12600  -1.06124
 Alpha  occ. eigenvalues --   -1.03810  -1.03561  -1.02136  -1.00081  -0.94137
 Alpha  occ. eigenvalues --   -0.93080  -0.81719  -0.77974  -0.74974  -0.70169
 Alpha  occ. eigenvalues --   -0.69580  -0.66203  -0.62234  -0.60370  -0.58065
 Alpha  occ. eigenvalues --   -0.55371  -0.54632  -0.52176  -0.51286  -0.48518
 Alpha  occ. eigenvalues --   -0.47631  -0.45473  -0.43728  -0.42620  -0.42458
 Alpha  occ. eigenvalues --   -0.41184  -0.40392  -0.39790  -0.39224  -0.37749
 Alpha  occ. eigenvalues --   -0.37527  -0.36626  -0.36129  -0.35888  -0.35377
 Alpha  occ. eigenvalues --   -0.35238  -0.34781  -0.33668  -0.32826  -0.32026
 Alpha  occ. eigenvalues --   -0.31816  -0.31371  -0.30717  -0.25859  -0.23136
 Alpha  occ. eigenvalues --   -0.22406  -0.19063  -0.18884  -0.17196  -0.11674
 Alpha virt. eigenvalues --   -0.00832  -0.00075   0.01226   0.01939   0.02487
 Alpha virt. eigenvalues --    0.02635   0.02828   0.03092   0.04416   0.04790
 Alpha virt. eigenvalues --    0.05124   0.05756   0.05889   0.06712   0.07847

  Beta  occ. eigenvalues --  -19.14655 -19.13339 -19.12965 -19.12434 -19.09265
  Beta  occ. eigenvalues --  -19.04729 -19.01409 -10.20242 -10.19890 -10.19129
  Beta  occ. eigenvalues --  -10.19002 -10.18575 -10.18187 -10.17781 -10.15218
  Beta  occ. eigenvalues --  -10.14800 -10.14732 -10.14616 -10.12600  -1.06124
  Beta  occ. eigenvalues --   -1.03810  -1.03561  -1.02136  -1.00081  -0.94137
  Beta  occ. eigenvalues --   -0.93080  -0.81719  -0.77974  -0.74974  -0.70169
  Beta  occ. eigenvalues --   -0.69580  -0.66203  -0.62234  -0.60370  -0.58065
  Beta  occ. eigenvalues --   -0.55371  -0.54632  -0.52176  -0.51286  -0.48518
  Beta  occ. eigenvalues --   -0.47631  -0.45473  -0.43728  -0.42620  -0.42458
  Beta  occ. eigenvalues --   -0.41184  -0.40392  -0.39790  -0.39224  -0.37749
  Beta  occ. eigenvalues --   -0.37527  -0.36626  -0.36129  -0.35888  -0.35377
  Beta  occ. eigenvalues --   -0.35238  -0.34781  -0.33668  -0.32826  -0.32026
  Beta  occ. eigenvalues --   -0.31816  -0.31371  -0.30717  -0.25859  -0.23136
  Beta  occ. eigenvalues --   -0.22406  -0.19063  -0.18884  -0.17196  -0.11674
  Beta virt. eigenvalues --   -0.00832  -0.00075   0.01226   0.01939   0.02487
  Beta virt. eigenvalues --    0.02635   0.02828   0.03092   0.04416   0.04790
  Beta virt. eigenvalues --    0.05124   0.05756   0.05889   0.06712   0.07847

 Mulliken charges and spin densities:
               1          2
     1  C   -0.570122  -0.000000
     2  C   -0.225236  -0.000000
     3  C    1.612746   0.000000
     4  C   -0.738357  -0.000000
     5  O   -0.653620   0.000000
     6  C    0.290173  -0.000000
     7  C   -0.586894  -0.000000
     8  O   -0.313335   0.000000
     9  C   -0.128829   0.000000
    10  O   -0.382106  -0.000000
    11  C   -0.110598   0.000000
    12  O   -0.382704   0.000000
    13  C   -0.851181  -0.000000
    14  C    1.471054   0.000000
    15  C   -0.432813   0.000000
    16  C   -0.715721  -0.000000
    17  O   -0.324904   0.000000
    18  O   -0.539027  -0.000000
    19  O   -0.722507  -0.000000
    20  H    0.158892  -0.000000
    21  H    0.135591   0.000000
    22  H    0.121913   0.000000
    23  H    0.180774   0.000000
    24  H    0.106162   0.000000
    25  H    0.289122  -0.000000
    26  H    0.286704  -0.000000
    27  H    0.403500   0.000000
    28  H    0.316557   0.000000
    29  H    0.304767   0.000000
 Sum of Mulliken charges =  -2.00000   0.00000

 Dipole moment (field-independent basis, Debye):
    X=              8.1577    Y=              0.2680    Z=              0.1747  Tot=              8.1640
 Quadrupole moment (field-independent basis, Debye-Ang):
   XX=           -154.6393   YY=           -172.6192   ZZ=           -121.4797
   XY=             21.2267   XZ=             -5.5131   YZ=              6.9177

  Exact polarizability: 368.653  14.250 315.721  53.933   3.738 165.239
 Approx polarizability: 397.817  13.684 382.538  61.175   4.022 183.965

                      1                      2                      3
                      A                      A                      A
 Frequencies --     56.2964                58.1177                79.3248
 Red. masses --      4.4203                 4.8748                 4.3965
 Frc consts  --      0.0083                 0.0097                 0.0163
 IR Inten    --     14.3288                 0.2862                 6.4284

                      4                      5                      6
                      A                      A                      A
 Frequencies --     94.3502               119.1956               148.0206
 Red. masses --      5.1754                 5.3682                 2.5713
 Frc consts  --      0.0271                 0.0449                 0.0332
 IR Inten    --     48.1999                 6.8569                82.8216

                      7                      8                      9
                      A                      A                      A
 Frequencies --    172.3656               185.3921               201.3396
 Red. masses --     12.2889                 2.1412                 1.8023
 Frc consts  --      0.2151                 0.0434                 0.0430
 IR Inten    --      4.2643               105.2476                18.9612

                     10                     11                     12
                      A                      A                      A
 Frequencies --    211.6233               234.0974               258.3844
 Red. masses --      3.6988                 1.8845                 4.5441
 Frc consts  --      0.0976                 0.0608                 0.1787
 IR Inten    --     27.3100                 2.2801                27.6147

                     13                     14                     15
                      A                      A                      A
 Frequencies --    278.2435               289.1858               313.4568
 Red. masses --      2.1877                 1.6826                 5.0140
 Frc consts  --      0.0998                 0.0829                 0.2903
 IR Inten    --     55.3940                88.2148                12.6868

                     16                     17                     18
                      A                      A                      A
 Frequencies --    334.9314               340.9074               343.8254
 Red. masses --      8.2183                 5.2018                 5.9814
 Frc consts  --      0.5432                 0.3562                 0.4166
 IR Inten    --      1.2640                 4.2335                13.8958

                     19                     20                     21
                      A                      A                      A
 Frequencies --    359.6428               363.2067               369.0975
 Red. masses --      6.4579                 3.1564                 5.4047
 Frc consts  --      0.4921                 0.2453                 0.4338
 IR Inten    --     90.2412                19.1813                 2.7929

                     22                     23                     24
                      A                      A                      A
 Frequencies --    385.2763               404.5644               406.6177
 Red. masses --      1.4407                 5.4079                 7.4735
 Frc consts  --      0.1260                 0.5215                 0.7280
 IR Inten    --     47.9475                36.8031                27.5717

                     25                     26                     27
                      A                      A                      A
 Frequencies --    444.2305               483.0309               525.4563
 Red. masses --      5.2892                11.4392                 1.7845
 Frc consts  --      0.6150                 1.5725                 0.2903
 IR Inten    --      8.8762                 7.3029                73.1107

                     28                     29                     30
                      A                      A                      A
 Frequencies --    529.5498               543.6027               550.9934
 Red. masses --      3.4591                 3.9213                 8.1209
 Frc consts  --      0.5715                 0.6827                 1.4526
 IR Inten    --     30.5680                25.5838                37.5361

                     31                     32                     33
                      A                      A                      A
 Frequencies --    611.3533               634.9108               674.6361
 Red. masses --      7.6607                10.6121                10.5393
 Frc consts  --      1.6870                 2.5204                 2.8262
 IR Inten    --     10.7361                 1.0374                 4.6048

                     34                     35                     36
                      A                      A                      A
 Frequencies --    704.1849               711.9240               748.4095
 Red. masses --      2.5296                10.3649                 6.1074
 Frc consts  --      0.7390                 3.0952                 2.0155
 IR Inten    --      8.3841                 1.5638               249.5866

                     37                     38                     39
                      A                      A                      A
 Frequencies --    763.3488               774.3723               820.9897
 Red. masses --      7.6167                 2.5441                 3.1276
 Frc consts  --      2.6149                 0.8989                 1.2420
 IR Inten    --     78.6642                19.4987                10.5180

                     40                     41                     42
                      A                      A                      A
 Frequencies --    874.4741               902.1877               923.8354
 Red. masses --      1.0531                 3.4770                 4.7227
 Frc consts  --      0.4745                 1.6674                 2.3748
 IR Inten    --    133.8926               286.6125               329.0194

                     43                     44                     45
                      A                      A                      A
 Frequencies --    987.8893              1000.7568              1063.9009
 Red. masses --      3.7894                 3.7307                 2.4159
 Frc consts  --      2.1789                 2.2014                 1.6111
 IR Inten    --    156.1685                62.4956               101.1961

                     46                     47                     48
                      A                      A                      A
 Frequencies --   1072.4239              1110.2042              1121.0324
 Red. masses --      1.9333                 4.5242                 5.0172
 Frc consts  --      1.3101                 3.2855                 3.7149
 IR Inten    --     18.7594                11.2652               304.1019

                     49                     50                     51
                      A                      A                      A
 Frequencies --   1179.3931              1190.2953              1222.1289
 Red. masses --      2.0386                 7.8594                 1.6176
 Frc consts  --      1.6707                 6.5607                 1.4235
 IR Inten    --    250.6198               119.6429               241.5037

                     52                     53                     54
                      A                      A                      A
 Frequencies --   1254.4383              1271.1685              1281.2809
 Red. masses --      1.8478                 2.2090                 1.7764
 Frc consts  --      1.7132                 2.1031                 1.7182
 IR Inten    --    393.1477               144.5458               409.3004

                     55                     56                     57
                      A                      A                      A
 Frequencies --   1290.8837              1314.7617              1345.8890
 Red. masses --      1.8181                 2.5741                 1.8068
 Frc consts  --      1.7850                 2.6216                 1.9283
 IR Inten    --     79.4590               244.8446                36.8807

                     58                     59                     60
                      A                      A                      A
 Frequencies --   1372.5844              1385.9020              1391.3286
 Red. masses --      5.3257                 3.8696                 1.4674
 Frc consts  --      5.9116                 4.3790                 1.6736
 IR Inten    --    254.9146               154.0902               345.1811

                     61                     62                     63
                      A                      A                      A
 Frequencies --   1401.6606              1427.2766              1448.3316
 Red. masses --      3.7884                 3.7807                 2.6878
 Frc consts  --      4.3853                 4.5377                 3.3219
 IR Inten    --   1319.1194               169.6927               172.2391

                     64                     65                     66
                      A                      A                      A
 Frequencies --   1476.1315              1484.8305              1494.0428
 Red. masses --      1.0772                 1.0495                 1.0971
 Frc consts  --      1.3830                 1.3632                 1.4428
 IR Inten    --     21.9556                31.0448                 5.0638

                     67                     68                     69
                      A                      A                      A
 Frequencies --   1511.5328              1564.9210              1613.4026
 Red. masses --      3.4769                 2.6746                 4.6251
 Frc consts  --      4.6803                 3.8591                 7.0935
 IR Inten    --    627.8547                40.0745                12.7388

                     70                     71                     72
                      A                      A                      A
 Frequencies --   1636.4979              1685.5444              2928.5239
 Red. masses --      6.8245                 3.6137                 1.0750
 Frc consts  --     10.7684                 6.0490                 5.4321
 IR Inten    --    193.5971                36.6134              1276.1418

                     73                     74                     75
                      A                      A                      A
 Frequencies --   2949.8680              3006.8215              3055.8096
 Red. masses --      1.0735                 1.0365                 1.0944
 Frc consts  --      5.5037                 5.5213                 6.0211
 IR Inten    --    156.0170               119.1205                13.4145

                     76                     77                     78
                      A                      A                      A
 Frequencies --   3070.4519              3084.1704              3590.7868
 Red. masses --      1.0920                 1.1007                 1.0642
 Frc consts  --      6.0659                 6.1686                 8.0843
 IR Inten    --    121.2361                55.7836               161.7266

                     79                     80                     81
                      A                      A                      A
 Frequencies --   3759.1245              3802.6760              3823.4293
 Red. masses --      1.0653                 1.0663                 1.0656
 Frc consts  --      8.8698                 9.0849                 9.1778
 IR Inten    --    134.8873               204.4653               137.2640

 - Thermochemistry -
 -------------------
 Temperature   298.150 Kelvin.  Pressure   1.00000 Atm.
 Atom     1 has atomic number  6 and mass  12.00000

 Molecular mass:   266.04265 amu.
 Principal axes and moments of inertia in atomic units:
                           1         2         3
     Eigenvalues --  3008.915046041.482968861.87068
           X            0.92982  -0.30577  -0.20480
           Y            0.30848   0.95103  -0.01937
           Z            0.20070  -0.04517   0.97861
 This molecule is an asymmetric top.
 Rotational symmetry number  1.
 Warning -- assumption of classical behavior for rotation
           may cause significant error
 Rotational temperatures (Kelvin)      0.02879     0.01434     0.00977
 Rotational constants (GHZ):           0.59980     0.29872     0.20365
 Zero-point vibrational energy     537727.7 (Joules/Mol)
                                  128.52000 (Kcal/Mol)
 Warning -- explicit consideration of  31 degrees of freedom as
           vibrations may cause significant error
 Vibrational temperatures:     81.00    83.62   114.13   135.75   171.50
          (Kelvin)            212.97   248.00   266.74   289.68   304.48
                              336.81   371.76   400.33   416.07   450.99
                              481.89   490.49   494.69   517.45   522.57
                              531.05   554.33   582.08   585.03   639.15
                              694.97   756.01   761.90   782.12   792.76
                              879.60   913.50   970.65  1013.16  1024.30
                             1076.79  1098.29  1114.15  1181.22  1258.17
                             1298.05  1329.19  1421.35  1439.87  1530.72
                             1542.98  1597.34  1612.92  1696.88  1712.57
                             1758.37  1804.86  1828.93  1843.48  1857.29
                             1891.65  1936.43  1974.84  1994.00  2001.81
                             2016.68  2053.53  2083.83  2123.82  2136.34
                             2149.59  2174.76  2251.57  2321.33  2354.56
                             2425.12  4213.49  4244.20  4326.15  4396.63
                             4417.70  4437.43  5166.34  5408.54  5471.20
                             5501.06

 Zero-point correction=                           0.204810 (Hartree/Particle)
 Thermal correction to Energy=                    0.222612
 Thermal correction to Enthalpy=                  0.223556
 Thermal correction to Gibbs Free Energy=         0.160429
 Sum of electronic and zero-point Energies=           -990.214319
 Sum of electronic and thermal Energies=              -990.196516
 Sum of electronic and thermal Enthalpies=            -990.195572
 Sum of electronic and thermal Free Energies=         -990.258699

                     E (Thermal)             CV                S
                      KCal/Mol        Cal/Mol-Kelvin    Cal/Mol-Kelvin
 Total                  139.691             68.151            132.863
 Electronic               0.000              0.000              0.000
 Translational            0.889              2.981             42.635
 Rotational               0.889              2.981             33.443
 Vibrational            137.914             62.189             56.785
 Vibration     1          0.596              1.975              4.583
 Vibration     2          0.596              1.974              4.520
 Vibration     3          0.600              1.963              3.908
 Vibration     4          0.603              1.953              3.568
 Vibration     5          0.609              1.933              3.113
 Vibration     6          0.617              1.905              2.698
 Vibration     7          0.626              1.876              2.410
 Vibration     8          0.631              1.860              2.273
 Vibration     9          0.638              1.838              2.121
 Vibration    10          0.643              1.823              2.030
 Vibration    11          0.654              1.789              1.847
 Vibration    12          0.667              1.749              1.673
 Vibration    13          0.679              1.714              1.544
 Vibration    14          0.686              1.694              1.479
 Vibration    15          0.701              1.648              1.344
 Vibration    16          0.716              1.606              1.236
 Vibration    17          0.720              1.594              1.208
 Vibration    18          0.723              1.588              1.194
 Vibration    19          0.734              1.555              1.124
 Vibration    20          0.737              1.548              1.108
 Vibration    21          0.741              1.536              1.084
 Vibration    22          0.754              1.502              1.018
 Vibration    23          0.770              1.460              0.946
 Vibration    24          0.771              1.456              0.939
 Vibration    25          0.804              1.374              0.813
 Vibration    26          0.839              1.288              0.702
 Vibration    27          0.880              1.194              0.597
 Vibration    28          0.885              1.185              0.588
 Vibration    29          0.899              1.154              0.558
 Vibration    30          0.906              1.138              0.542
 Vibration    31          0.970              1.008              0.431

                           ! Non-Optimized Parameters !
 Normal termination of Gaussian 16 at Sun Feb 11 16:55:14 2024.
