 Q-Chem 5.4, Q-Chem, Inc., Pleasanton, CA (2021)
 Q-Chem 5.4.0 for Intel X86 EM64T Linux

User input:
--------------------------------------------------------------
$molecule
0 1
C                  0.0496400000      1.7013130000     -0.0000480000
C                 -1.2177320000      0.9082910000     -0.0007990000
C                 -1.2060420000     -0.4436970000      0.0001900000
C                  0.0748570000     -1.2146860000      0.0020100000
C                  1.3547220000     -0.4230690000      0.0029190000
C                  1.3430030000      0.9319450000      0.0019110000
O                  0.0573660000      2.9080610000     -0.0011130000
O                  0.1034410000     -2.4211220000      0.0028840000
C                  2.5365310000      1.7083180000      0.0026430000
C                  2.5615010000     -1.1786810000      0.0048270000
N                  3.5049420000      2.3367040000      0.0032490000
N                  3.5406450000     -1.7902070000      0.0063830000
Cl                -2.6644430000      1.8333760000     -0.0029780000
Cl                -2.6365430000     -1.3936580000     -0.0005890000
$end
$rem
MAX_SCF_CYCLES=200
BASIS  =  6-311++G(d,p)
GUI  =  2
JOB_TYPE  =  SP
METHOD  =  B3LYP
SOLVENT_METHOD = COSMO
$end
$solvent
dielectric 37.219
opticaldielectric 1.43
$end

--------------------------------------------------------------

             Standard Nuclear Orientation (Angstroms)
    I     Atom           X                Y                Z
 ----------------------------------------------------------------
    1      C       0.1205753187    -1.4580520834     0.0000076198
    2      C      -1.1536065717    -0.6760183550    -0.0000143749
    3      C      -1.1536064816     0.6760205446     0.0000047766
    4      C       0.1205791707     1.4580566743     0.0001240282
    5      C       1.4072416063     0.6775360267     0.0000024341
    6      C       1.4072386625    -0.6775290238     0.0000000231
    7      O       0.1387345336    -2.6646886359     0.0001922152
    8      O       0.1387310724     2.6646950366     0.0001690805
    9      C       2.6074353728    -1.4435528574    -0.0000257873
   10      C       2.6074431287     1.4435549507    -0.0000569995
   11      N       3.5812438623    -2.0635417459    -0.0000576529
   12      N       3.5812638142     2.0635248787    -0.0001142735
   13      Cl     -2.5922658589    -1.6135785800    -0.0000656438
   14      Cl     -2.5922682482     1.6135769096    -0.0000483093
 ----------------------------------------------------------------

    9   -1485.3029884223      5.79e-06  Convergence criterion met
 Total energy in the final basis set =    -1485.3029884223
    6   -1485.3229927524      3.61e-06  Convergence criterion met
 Total energy in the final basis set =    -1485.3229927524

                    Orbital Energies (a.u.)
 --------------------------------------------------------------

 Alpha MOs
 -- Occupied --
********-101.5970 -19.1828 -19.1828 -14.3668 -14.3667 -10.3389 -10.3389
-10.3027 -10.3020 -10.3005 -10.2998 -10.2627 -10.2626  -9.5113  -9.5113
 -7.2764  -7.2764  -7.2665  -7.2665  -7.2650  -7.2650  -1.1220  -1.1199
 -0.9698  -0.9592  -0.9550  -0.9090  -0.8988  -0.8115  -0.7823  -0.7000
 -0.6788  -0.6093  -0.5945  -0.5743  -0.5207  -0.5081  -0.5042  -0.4886
 -0.4769  -0.4676  -0.4413  -0.4214  -0.4204  -0.4075  -0.4027  -0.3945
 -0.3869  -0.3741  -0.3670  -0.3463  -0.3378  -0.3368  -0.3279  -0.2991

          Ground-State Mulliken Net Atomic Charges

     Atom                 Charge (a.u.)
  ----------------------------------------
      1 C                    -1.548989
      2 C                     0.634720
      3 C                     0.635425
      4 C                    -1.549250
      5 C                     2.121180
      6 C                     2.118752
      7 O                    -0.168377
      8 O                    -0.168289
      9 C                    -1.352280
     10 C                    -1.352532
     11 N                    -0.187499
     12 N                    -0.187239
     13 Cl                    0.502297
     14 Cl                    0.502081
  ----------------------------------------
  Sum of atomic charges =     0.000000

                    Cartesian Multipole Moments
 -----------------------------------------------------------------
    Charge (ESU x 10^10)
                 0.0000
    Dipole Moment (Debye)
         X      -5.7241      Y      -0.0003      Z      -0.0001
       Tot       5.7241
    Quadrupole Moments (Debye-Ang)
        XX    -114.8015     XY       0.0033     YY    -116.2415
        XZ       0.0015     YZ       0.0014     ZZ     -87.3742

 Total job time:  25.74s(wall), 192.37s(cpu)
        *  Thank you very much for using Q-Chem.  Have a nice day.  *
