 Gaussian 16, Revision A.03,
 Gaussian 16:  ES64L-G16RevA.03 25-Dec-2016

 --------------------------------------
 #P UB3LYP/6-311++G(d,p) nosym opt freq
 --------------------------------------

 --------
 Oxidized
 --------
 Symbolic Z-matrix:
 Charge =  0 Multiplicity = 1

 SCF Done:  E(UB3LYP) =  -767.585898846     A.U. after   16 cycles
 SCF Done:  E(UB3LYP) =  -767.606108541     A.U. after   15 cycles
 SCF Done:  E(UB3LYP) =  -767.608876152     A.U. after   13 cycles
 SCF Done:  E(UB3LYP) =  -767.609170776     A.U. after   12 cycles
 SCF Done:  E(UB3LYP) =  -767.609461885     A.U. after   12 cycles
 SCF Done:  E(UB3LYP) =  -767.609563349     A.U. after   12 cycles
 SCF Done:  E(UB3LYP) =  -767.609819556     A.U. after   11 cycles
 SCF Done:  E(UB3LYP) =  -767.610239131     A.U. after   12 cycles
 SCF Done:  E(UB3LYP) =  -767.610554937     A.U. after   14 cycles
 SCF Done:  E(UB3LYP) =  -767.610670846     A.U. after   11 cycles
 SCF Done:  E(UB3LYP) =  -767.610687279     A.U. after   10 cycles
 SCF Done:  E(UB3LYP) =  -767.610686455     A.U. after   10 cycles
 SCF Done:  E(UB3LYP) =  -767.610692782     A.U. after   10 cycles
 SCF Done:  E(UB3LYP) =  -767.610696203     A.U. after    9 cycles
 SCF Done:  E(UB3LYP) =  -767.610698422     A.U. after    9 cycles
 SCF Done:  E(UB3LYP) =  -767.610698597     A.U. after    8 cycles
 Optimization completed.
    -- Stationary point found.
 Normal termination of Gaussian 16 at Thu Dec 21 07:52:20 2023.

 ----------------------------------------------------------------------
 #P Geom=AllCheck Guess=TCheck SCRF=Check GenChk UB3LYP/6-311++G(d,p) F
 req
 ----------------------------------------------------------------------

 Structure from the checkpoint file:  "129.chk"
 --------
 Oxidized
 --------
 Charge =  0 Multiplicity = 1

                          Input orientation:
 ---------------------------------------------------------------------
 Center     Atomic      Atomic             Coordinates (Angstroms)
 Number     Number       Type             X           Y           Z
 ---------------------------------------------------------------------
      1          6           0       -3.770634    1.768095   -0.346962
      2          6           0       -2.543974    0.917543   -0.136603
      3          6           0       -1.279903    1.433329   -0.413278
      4          6           0       -0.121020    0.675178   -0.230632
      5          6           0        1.203198    1.279940   -0.543819
      6          8           0        1.300948    2.424592   -0.957957
      7          6           0        2.412465    0.429166   -0.331207
      8          6           0        3.674573    0.960714   -0.613244
      9          6           0        4.815948    0.190395   -0.424154
     10          6           0        4.706606   -1.120155    0.049109
     11          6           0        3.456178   -1.657007    0.332103
     12          6           0        2.302437   -0.889612    0.145041
     13          6           0        0.971950   -1.492584    0.457465
     14          8           0        0.878886   -2.637866    0.870931
     15          6           0       -0.230852   -0.641040    0.244198
     16          6           0       -1.496521   -1.162268    0.522738
     17          6           0       -2.654758   -0.409778    0.341812
     18          6           0       -4.002431   -1.008909    0.653728
     19          1           0       -3.502228    2.758404   -0.716683
     20          1           0       -4.454557    1.311350   -1.069757
     21          1           0       -4.333136    1.895598    0.583684
     22          1           0       -1.170661    2.447134   -0.780695
     23          1           0        3.735501    1.978252   -0.979005
     24          1           0        5.792122    0.607483   -0.644372
     25          1           0        5.597972   -1.719553    0.195948
     26          1           0        3.347689   -2.669947    0.699601
     27          1           0       -1.556893   -2.180807    0.888331
     28          1           0       -4.526733   -0.434269    1.424231
     29          1           0       -4.649792   -1.018099   -0.229234
     30          1           0       -3.902380   -2.035283    1.008680
 ---------------------------------------------------------------------

 SCF Done:  E(UB3LYP) =  -767.610698597     A.U. after    1 cycles

 Alpha  occ. eigenvalues --  -19.12183 -19.12182 -10.27421 -10.27420 -10.20638
 Alpha  occ. eigenvalues --  -10.20591 -10.20548 -10.20498 -10.20171 -10.20120
 Alpha  occ. eigenvalues --  -10.19942 -10.19890 -10.19568 -10.19567 -10.19125
 Alpha  occ. eigenvalues --  -10.19124 -10.18347 -10.18347  -1.05645  -1.05455
 Alpha  occ. eigenvalues --   -0.89298  -0.88273  -0.82340  -0.78842  -0.78287
 Alpha  occ. eigenvalues --   -0.77614  -0.72938  -0.71105  -0.67575  -0.64881
 Alpha  occ. eigenvalues --   -0.62447  -0.61463  -0.58314  -0.54762  -0.54544
 Alpha  occ. eigenvalues --   -0.50452  -0.49385  -0.47647  -0.46919  -0.45759
 Alpha  occ. eigenvalues --   -0.44984  -0.44823  -0.44804  -0.44475  -0.44398
 Alpha  occ. eigenvalues --   -0.42758  -0.41881  -0.40973  -0.40615  -0.40176
 Alpha  occ. eigenvalues --   -0.38995  -0.38443  -0.37040  -0.36776  -0.35833
 Alpha  occ. eigenvalues --   -0.35502  -0.28296  -0.27845  -0.27695  -0.26978
 Alpha  occ. eigenvalues --   -0.26623  -0.26424
 Alpha virt. eigenvalues --   -0.11144  -0.06910  -0.03371  -0.02380  -0.01516
 Alpha virt. eigenvalues --   -0.00615   0.00696   0.01351   0.01572   0.02212
 Alpha virt. eigenvalues --    0.02994   0.03337   0.03524   0.03707   0.03919

  Beta  occ. eigenvalues --  -19.12183 -19.12182 -10.27421 -10.27420 -10.20638
  Beta  occ. eigenvalues --  -10.20591 -10.20548 -10.20498 -10.20171 -10.20120
  Beta  occ. eigenvalues --  -10.19942 -10.19890 -10.19568 -10.19567 -10.19125
  Beta  occ. eigenvalues --  -10.19124 -10.18347 -10.18347  -1.05645  -1.05455
  Beta  occ. eigenvalues --   -0.89298  -0.88273  -0.82340  -0.78842  -0.78287
  Beta  occ. eigenvalues --   -0.77614  -0.72938  -0.71105  -0.67575  -0.64881
  Beta  occ. eigenvalues --   -0.62447  -0.61463  -0.58314  -0.54762  -0.54544
  Beta  occ. eigenvalues --   -0.50452  -0.49385  -0.47647  -0.46919  -0.45759
  Beta  occ. eigenvalues --   -0.44984  -0.44823  -0.44804  -0.44475  -0.44398
  Beta  occ. eigenvalues --   -0.42758  -0.41881  -0.40973  -0.40615  -0.40176
  Beta  occ. eigenvalues --   -0.38995  -0.38443  -0.37040  -0.36776  -0.35833
  Beta  occ. eigenvalues --   -0.35502  -0.28296  -0.27845  -0.27695  -0.26978
  Beta  occ. eigenvalues --   -0.26623  -0.26424
  Beta virt. eigenvalues --   -0.11144  -0.06910  -0.03371  -0.02380  -0.01516
  Beta virt. eigenvalues --   -0.00615   0.00696   0.01351   0.01572   0.02212
  Beta virt. eigenvalues --    0.02994   0.03337   0.03524   0.03707   0.03919

 Mulliken charges and spin densities:
               1          2
     1  C   -0.454381   0.000000
     2  C    0.442400   0.000000
     3  C   -0.074368   0.000000
     4  C   -0.005082   0.000000
     5  C   -0.712752  -0.000000
     6  O   -0.213273   0.000000
     7  C    0.245761  -0.000000
     8  C    0.118144  -0.000000
     9  C   -0.336212  -0.000000
    10  C   -0.336236  -0.000000
    11  C    0.118273  -0.000000
    12  C    0.245791  -0.000000
    13  C   -0.712712   0.000000
    14  O   -0.213275  -0.000000
    15  C   -0.005002  -0.000000
    16  C   -0.074557  -0.000000
    17  C    0.442361  -0.000000
    18  C   -0.454319   0.000000
    19  H    0.177955   0.000000
    20  H    0.156252   0.000000
    21  H    0.156112   0.000000
    22  H    0.140384  -0.000000
    23  H    0.182037   0.000000
    24  H    0.176983   0.000000
    25  H    0.176981  -0.000000
    26  H    0.182035  -0.000000
    27  H    0.140392  -0.000000
    28  H    0.156259  -0.000000
    29  H    0.156102  -0.000000
    30  H    0.177950   0.000000
 Sum of Mulliken charges =  -0.00000  -0.00000

 Dipole moment (field-independent basis, Debye):
    X=             -1.3086    Y=              0.1283    Z=              0.0529  Tot=              1.3159
 Quadrupole moment (field-independent basis, Debye-Ang):
   XX=            -76.8931   YY=           -114.4745   ZZ=           -108.0388
   XY=             -3.5924   XZ=             -0.9589   YZ=              2.8979

  Exact polarizability: 295.725 -11.356 194.535 -10.654 -33.601 110.180
 Approx polarizability: 405.572  -6.533 370.052 -15.957 -74.452 186.482

                      1                      2                      3
                      A                      A                      A
 Frequencies --     37.6099                73.4591               117.1454
 Red. masses --      6.3040                 3.6975                 4.5451
 Frc consts  --      0.0053                 0.0118                 0.0367
 IR Inten    --      5.6836                 0.0000                 0.0001

                      4                      5                      6
                      A                      A                      A
 Frequencies --    119.9563               123.0061               164.5002
 Red. masses --      4.1575                 1.0574                 1.2465
 Frc consts  --      0.0352                 0.0094                 0.0199
 IR Inten    --      0.7050                 0.0016                 1.2100

                      7                      8                      9
                      A                      A                      A
 Frequencies --    172.1376               193.6628               219.2463
 Red. masses --      4.3481                 3.5196                 3.5734
 Frc consts  --      0.0759                 0.0778                 0.1012
 IR Inten    --      1.1605                 0.2021                 0.0000

                     10                     11                     12
                      A                      A                      A
 Frequencies --    277.7429               290.1924               325.7092
 Red. masses --      5.7542                 2.9326                 4.3323
 Frc consts  --      0.2615                 0.1455                 0.2708
 IR Inten    --      0.2119                 0.9216                 3.5976

                     13                     14                     15
                      A                      A                      A
 Frequencies --    332.8525               369.5646               388.9657
 Red. masses --      4.6516                 5.9342                11.3981
 Frc consts  --      0.3036                 0.4775                 1.0160
 IR Inten    --      0.3215                 0.1302                24.9589

                     16                     17                     18
                      A                      A                      A
 Frequencies --    427.6453               452.3988               453.4541
 Red. masses --      3.2502                 3.0179                 4.8338
 Frc consts  --      0.3502                 0.3639                 0.5856
 IR Inten    --      3.2482                 0.9790                 0.0018

                     19                     20                     21
                      A                      A                      A
 Frequencies --    464.7995               475.0193               565.5094
 Red. masses --      4.2044                12.4559                 4.7787
 Frc consts  --      0.5352                 1.6559                 0.9004
 IR Inten    --      0.1608                 0.0913                 0.0000

                     22                     23                     24
                      A                      A                      A
 Frequencies --    569.6890               627.5678               674.0797
 Red. masses --      4.4524                 6.7476                 6.0916
 Frc consts  --      0.8514                 1.5657                 1.6308
 IR Inten    --      1.0946                15.4004                 0.7167

                     25                     26                     27
                      A                      A                      A
 Frequencies --    682.4823               702.6345               730.5809
 Red. masses --      4.0583                 6.2789                 4.0830
 Frc consts  --      1.1137                 1.8264                 1.2840
 IR Inten    --      0.0000                 0.1744                 0.0015

                     28                     29                     30
                      A                      A                      A
 Frequencies --    733.7157               743.3521               761.5909
 Red. masses --      2.1337                 6.8658                 4.5083
 Frc consts  --      0.6768                 2.2353                 1.5407
 IR Inten    --     75.0033                 0.2033                 3.4753

                     31                     32                     33
                      A                      A                      A
 Frequencies --    807.0621               810.9166               874.3257
 Red. masses --      5.1192                 1.8849                 6.0419
 Frc consts  --      1.9645                 0.7303                 2.7212
 IR Inten    --      0.0001                 9.4835                 0.1019

                     34                     35                     36
                      A                      A                      A
 Frequencies --    916.1739               933.9928               936.2905
 Red. masses --      1.3658                 1.3786                 1.3633
 Frc consts  --      0.6754                 0.7086                 0.7042
 IR Inten    --      0.0000                12.4498                 0.0013

                     37                     38                     39
                      A                      A                      A
 Frequencies --    971.7098              1002.9936              1018.1093
 Red. masses --      3.4783                 1.3828                 1.3276
 Frc consts  --      1.9350                 0.8196                 0.8108
 IR Inten    --    109.4072                 1.9353                 0.0000

                     40                     41                     42
                      A                      A                      A
 Frequencies --   1018.2626              1031.9727              1048.9143
 Red. masses --      1.5711                 1.5872                 1.4672
 Frc consts  --      0.9598                 0.9959                 0.9511
 IR Inten    --      0.0212                 0.5375                 7.1587

                     43                     44                     45
                      A                      A                      A
 Frequencies --   1058.1698              1068.8871              1084.1851
 Red. masses --      1.9223                 1.6419                 5.9926
 Frc consts  --      1.2682                 1.1052                 4.1503
 IR Inten    --      0.2756                 0.0000                 4.8974

                     46                     47                     48
                      A                      A                      A
 Frequencies --   1118.6828              1174.8253              1187.2554
 Red. masses --      2.0359                 1.4493                 1.3090
 Frc consts  --      1.5012                 1.1785                 1.0872
 IR Inten    --      3.9356                 0.3893                11.4909

                     49                     50                     51
                      A                      A                      A
 Frequencies --   1200.3933              1232.1184              1241.7449
 Red. masses --      4.5610                 2.1336                 3.2338
 Frc consts  --      3.8722                 1.9084                 2.9379
 IR Inten    --      1.5154                 0.5962                69.4729

                     52                     53                     54
                      A                      A                      A
 Frequencies --   1277.7461              1303.5635              1318.0754
 Red. masses --      1.3257                 2.0482                 7.6852
 Frc consts  --      1.2752                 2.0506                 7.8666
 IR Inten    --      2.3979                 4.1792               693.1291

                     55                     56                     57
                      A                      A                      A
 Frequencies --   1348.0713              1360.5258              1410.2128
 Red. masses --      7.0763                 7.6520                 1.2947
 Frc consts  --      7.5768                 8.3453                 1.5170
 IR Inten    --     51.8160                17.8433                 3.1989

                     58                     59                     60
                      A                      A                      A
 Frequencies --   1421.8566              1427.7817              1478.3013
 Red. masses --      1.2422                 3.5325                 1.0447
 Frc consts  --      1.4796                 4.2429                 1.3452
 IR Inten    --      5.4263                 4.5990                 0.0003

                     61                     62                     63
                      A                      A                      A
 Frequencies --   1480.9049              1492.3666              1492.7003
 Red. masses --      2.2269                 1.0438                 1.2727
 Frc consts  --      2.8774                 1.3697                 1.6708
 IR Inten    --      0.0005                19.8858                 4.2158

                     64                     65                     66
                      A                      A                      A
 Frequencies --   1494.7602              1503.5329              1520.4405
 Red. masses --      1.1752                 2.6216                 2.6934
 Frc consts  --      1.5470                 3.4917                 3.6685
 IR Inten    --      0.1436                 5.0256                 0.3708

                     67                     68                     69
                      A                      A                      A
 Frequencies --   1592.4573              1614.6173              1627.2125
 Red. masses --      7.3846                 7.1085                 6.0055
 Frc consts  --     11.0336                10.9185                 9.3688
 IR Inten    --      6.5258                 0.0227               161.6457

                     70                     71                     72
                      A                      A                      A
 Frequencies --   1636.4440              1715.0645              1726.7523
 Red. masses --      5.9907                12.6432                11.8424
 Frc consts  --      9.4522                21.9113                20.8041
 IR Inten    --     45.4014                 5.0243               310.2801

                     73                     74                     75
                      A                      A                      A
 Frequencies --   3021.4276              3021.9099              3065.3241
 Red. masses --      1.0391                 1.0381                 1.0993
 Frc consts  --      5.5890                 5.5854                 6.0861
 IR Inten    --      4.0789                48.7010                27.3662

                     76                     77                     78
                      A                      A                      A
 Frequencies --   3067.2096              3111.9476              3113.0312
 Red. masses --      1.0994                 1.0995                 1.0992
 Frc consts  --      6.0940                 6.2734                 6.2761
 IR Inten    --      0.0040                27.7763                 0.4655

                     79                     80                     81
                      A                      A                      A
 Frequencies --   3169.1448              3183.6633              3185.2749
 Red. masses --      1.0869                 1.0918                 1.0901
 Frc consts  --      6.4318                 6.5199                 6.5165
 IR Inten    --      3.4706                11.3702                 1.1113

                     82                     83                     84
                      A                      A                      A
 Frequencies --   3186.9228              3199.4289              3201.9898
 Red. masses --      1.0905                 1.0924                 1.0949
 Frc consts  --      6.5257                 6.5885                 6.6137
 IR Inten    --      6.4929                 0.4204                12.7701

 - Thermochemistry -
 -------------------
 Temperature   298.150 Kelvin.  Pressure   1.00000 Atm.
 Atom     1 has atomic number  6 and mass  12.00000

 Molecular mass:   236.08373 amu.
 Principal axes and moments of inertia in atomic units:
                           1         2         3
     Eigenvalues --  1887.664246396.358428261.78068
           X            0.99450   0.07822   0.06966
           Y           -0.09712   0.93770   0.33359
           Z           -0.03922  -0.33852   0.94014
 This molecule is an asymmetric top.
 Rotational symmetry number  1.
 Warning -- assumption of classical behavior for rotation
           may cause significant error
 Rotational temperatures (Kelvin)      0.04588     0.01354     0.01048
 Rotational constants (GHZ):           0.95607     0.28215     0.21844
 Zero-point vibrational energy     614748.5 (Joules/Mol)
                                  146.92841 (Kcal/Mol)
 Warning -- explicit consideration of  22 degrees of freedom as
           vibrations may cause significant error
 Vibrational temperatures:     54.11   105.69   168.55   172.59   176.98
          (Kelvin)            236.68   247.67   278.64   315.45   399.61
                              417.52   468.62   478.90   531.72   559.63
                              615.29   650.90   652.42   668.74   683.45
                              813.64   819.66   902.93   969.85   981.94
                             1010.93  1051.14  1055.65  1069.52  1095.76
                             1161.18  1166.73  1257.96  1318.17  1343.81
                             1347.11  1398.07  1443.08  1464.83  1465.05
                             1484.78  1509.15  1522.47  1537.89  1559.90
                             1609.53  1690.31  1708.20  1727.10  1772.74
                             1786.59  1838.39  1875.54  1896.42  1939.57
                             1957.49  2028.98  2045.73  2054.26  2126.95
                             2130.69  2147.18  2147.66  2150.63  2163.25
                             2187.57  2291.19  2323.07  2341.20  2354.48
                             2467.60  2484.41  4347.16  4347.85  4410.32
                             4413.03  4477.40  4478.96  4559.69  4580.58
                             4582.90  4585.27  4603.26  4606.95

 Zero-point correction=                           0.234145 (Hartree/Particle)
 Thermal correction to Energy=                    0.248778
 Thermal correction to Enthalpy=                  0.249722
 Thermal correction to Gibbs Free Energy=         0.192583
 Sum of electronic and zero-point Energies=           -767.376553
 Sum of electronic and thermal Energies=              -767.361920
 Sum of electronic and thermal Enthalpies=            -767.360976
 Sum of electronic and thermal Free Energies=         -767.418116

                     E (Thermal)             CV                S
                      KCal/Mol        Cal/Mol-Kelvin    Cal/Mol-Kelvin
 Total                  156.111             57.639            120.261
 Electronic               0.000              0.000              0.000
 Translational            0.889              2.981             42.279
 Rotational               0.889              2.981             32.967
 Vibrational            154.333             51.678             45.015
 Vibration     1          0.594              1.982              5.381
 Vibration     2          0.599              1.967              4.058
 Vibration     3          0.608              1.935              3.147
 Vibration     4          0.609              1.933              3.101
 Vibration     5          0.610              1.930              3.053
 Vibration     6          0.623              1.886              2.497
 Vibration     7          0.626              1.877              2.412
 Vibration     8          0.635              1.849              2.192
 Vibration     9          0.647              1.812              1.965
 Vibration    10          0.679              1.715              1.548
 Vibration    11          0.686              1.692              1.473
 Vibration    12          0.710              1.624              1.281
 Vibration    13          0.715              1.610              1.246
 Vibration    14          0.742              1.535              1.082
 Vibration    15          0.757              1.494              1.004
 Vibration    16          0.789              1.410              0.866
 Vibration    17          0.811              1.356              0.789
 Vibration    18          0.812              1.353              0.785
 Vibration    19          0.822              1.328              0.752
 Vibration    20          0.832              1.305              0.724
 Vibration    21          0.921              1.106              0.513
 Vibration    22          0.926              1.097              0.505

                           ! Non-Optimized Parameters !
 Normal termination of Gaussian 16 at Thu Dec 21 09:19:16 2023.
