 Gaussian 16, Revision A.03,
 Gaussian 16:  ES64L-G16RevA.03 25-Dec-2016

 ----------------------------------------------------------------------
 #P UB3LYP/6-311++G(d,p) nosym opt freq SCRF=(PCM,Solvent=n,n-DiMethylF
 ormamide)
 ----------------------------------------------------------------------

 --------
 Oxidized
 --------
 Symbolic Z-matrix:
 Charge =  0 Multiplicity = 1

 SCF Done:  E(UB3LYP) =  -610.526460536     A.U. after   14 cycles
 SCF Done:  E(UB3LYP) =  -610.526545916     A.U. after   11 cycles
 SCF Done:  E(UB3LYP) =  -610.526555903     A.U. after   10 cycles
 SCF Done:  E(UB3LYP) =  -610.526558773     A.U. after   10 cycles
 SCF Done:  E(UB3LYP) =  -610.526558883     A.U. after    8 cycles
 Optimization completed.
    -- Stationary point found.
 Normal termination of Gaussian 16 at Sun Feb 11 00:25:40 2024.

 ----------------------------------------------------------------------
 #P Geom=AllCheck Guess=TCheck SCRF=Check GenChk UB3LYP/6-311++G(d,p) F
 req
 ----------------------------------------------------------------------

 Structure from the checkpoint file:  "280.chk"
 --------
 Oxidized
 --------
 Charge =  0 Multiplicity = 1

                          Input orientation:
 ---------------------------------------------------------------------
 Center     Atomic      Atomic             Coordinates (Angstroms)
 Number     Number       Type             X           Y           Z
 ---------------------------------------------------------------------
      1          8           0        2.348413    1.632284    0.351760
      2          6           0        1.663316    0.485067    0.220535
      3          6           0        2.381418   -0.721748    0.256050
      4          6           0        1.716988   -1.928495    0.124801
      5          6           0        0.326354   -1.969777   -0.044714
      6          6           0       -0.396817   -0.786791   -0.081715
      7          6           0       -1.876609   -0.829242   -0.261458
      8          8           0       -2.491165   -1.882015   -0.379817
      9          6           0       -2.599000    0.463259   -0.292970
     10          6           0       -1.962439    1.635605   -0.166351
     11          6           0       -0.499627    1.710791    0.012408
     12          8           0        0.049833    2.818579    0.126138
     13          6           0        0.261120    0.460969    0.050548
     14          1           0        1.695717    2.371156    0.304396
     15          1           0        3.455846   -0.681701    0.387423
     16          1           0        2.281289   -2.853023    0.153802
     17          1           0       -0.192245   -2.913846   -0.147296
     18          1           0       -3.673507    0.405941   -0.424502
     19          1           0       -2.488886    2.582989   -0.189038
 ---------------------------------------------------------------------

 SCF Done:  E(UB3LYP) =  -610.526558883     A.U. after    1 cycles

 Alpha  occ. eigenvalues --  -19.16916 -19.14945 -19.14072 -10.29548 -10.28990
 Alpha  occ. eigenvalues --  -10.27295 -10.21806 -10.21694 -10.21585 -10.21237
 Alpha  occ. eigenvalues --  -10.20651 -10.20017 -10.19965  -1.09670  -1.07080
 Alpha  occ. eigenvalues --   -1.06788  -0.89448  -0.84722  -0.78661  -0.77725
 Alpha  occ. eigenvalues --   -0.70997  -0.66536  -0.65588  -0.61106  -0.55054
 Alpha  occ. eigenvalues --   -0.54716  -0.54096  -0.51453  -0.48724  -0.47233
 Alpha  occ. eigenvalues --   -0.46921  -0.46735  -0.44169  -0.43612  -0.43157
 Alpha  occ. eigenvalues --   -0.41870  -0.41148  -0.39780  -0.38338  -0.36283
 Alpha  occ. eigenvalues --   -0.31642  -0.30038  -0.28909  -0.28527  -0.25676
 Alpha virt. eigenvalues --   -0.13624  -0.05457  -0.04167  -0.00425   0.00618
 Alpha virt. eigenvalues --    0.01004   0.02120   0.02189   0.02954   0.04327
 Alpha virt. eigenvalues --    0.04368   0.05192   0.05293   0.06308   0.07219

  Beta  occ. eigenvalues --  -19.16916 -19.14945 -19.14072 -10.29548 -10.28990
  Beta  occ. eigenvalues --  -10.27295 -10.21806 -10.21694 -10.21585 -10.21237
  Beta  occ. eigenvalues --  -10.20651 -10.20017 -10.19965  -1.09670  -1.07080
  Beta  occ. eigenvalues --   -1.06788  -0.89448  -0.84722  -0.78661  -0.77725
  Beta  occ. eigenvalues --   -0.70997  -0.66536  -0.65588  -0.61106  -0.55054
  Beta  occ. eigenvalues --   -0.54716  -0.54096  -0.51453  -0.48724  -0.47233
  Beta  occ. eigenvalues --   -0.46921  -0.46735  -0.44169  -0.43612  -0.43157
  Beta  occ. eigenvalues --   -0.41870  -0.41148  -0.39780  -0.38338  -0.36283
  Beta  occ. eigenvalues --   -0.31642  -0.30038  -0.28909  -0.28527  -0.25676
  Beta virt. eigenvalues --   -0.13624  -0.05457  -0.04167  -0.00425   0.00618
  Beta virt. eigenvalues --    0.01004   0.02120   0.02189   0.02954   0.04327
  Beta virt. eigenvalues --    0.04368   0.05192   0.05293   0.06308   0.07219

 Mulliken charges and spin densities:
               1          2
     1  O   -0.312815  -0.000000
     2  C   -0.063854   0.000000
     3  C   -0.076211   0.000000
     4  C   -0.325219   0.000000
     5  C   -0.026467  -0.000000
     6  C    0.428822  -0.000000
     7  C   -0.420854   0.000000
     8  O   -0.298750  -0.000000
     9  C   -0.011965  -0.000000
    10  C   -0.124712  -0.000000
    11  C   -0.423212  -0.000000
    12  O   -0.345514   0.000000
    13  C    0.546706   0.000000
    14  H    0.348047   0.000000
    15  H    0.219835   0.000000
    16  H    0.220907   0.000000
    17  H    0.185509  -0.000000
    18  H    0.238924   0.000000
    19  H    0.240825   0.000000
 Sum of Mulliken charges =  -0.00000  -0.00000

 Dipole moment (field-independent basis, Debye):
    X=              0.2268    Y=             -0.6079    Z=              0.0008  Tot=              0.6489
 Quadrupole moment (field-independent basis, Debye-Ang):
   XX=            -72.1923   YY=            -80.4153   ZZ=            -75.5478
   XY=            -16.9136   XZ=             -0.3297   YZ=             -2.2513

  Exact polarizability: 228.558   5.981 229.743  17.948   7.017  83.997
 Approx polarizability: 271.563  25.332 298.368  22.201  11.650  99.305

                      1                      2                      3
                      A                      A                      A
 Frequencies --     75.3455               114.7785               179.8272
 Red. masses --      6.8592                 8.0470                 5.3050
 Frc consts  --      0.0229                 0.0625                 0.1011
 IR Inten    --     15.2737                 1.1712                 0.0635

                      4                      5                      6
                      A                      A                      A
 Frequencies --    236.5687               276.4719               278.4423
 Red. masses --      5.2715                 4.3522                 7.1113
 Frc consts  --      0.1738                 0.1960                 0.3248
 IR Inten    --      0.1866                 0.1160                 2.5539

                      7                      8                      9
                      A                      A                      A
 Frequencies --    375.3922               416.5644               451.7359
 Red. masses --      8.2737                 9.7546                11.1220
 Frc consts  --      0.6869                 0.9973                 1.3372
 IR Inten    --     20.7720                 2.4955                33.0826

                     10                     11                     12
                      A                      A                      A
 Frequencies --    460.6787               470.5035               526.3177
 Red. masses --      4.1754                 6.1460                 3.7964
 Frc consts  --      0.5221                 0.8016                 0.6196
 IR Inten    --      0.1053                21.3974                 0.8920

                     13                     14                     15
                      A                      A                      A
 Frequencies --    528.5341               621.6317               626.9344
 Red. masses --      7.3340                 4.7011                 2.3985
 Frc consts  --      1.2071                 1.0703                 0.5554
 IR Inten    --      2.4733                 2.2031                 2.5868

                     16                     17                     18
                      A                      A                      A
 Frequencies --    631.9407               691.1500               754.9058
 Red. masses --      7.0136                 3.6871                 1.4170
 Frc consts  --      1.6502                 1.0377                 0.4758
 IR Inten    --     50.9361                10.8124               179.8273

                     19                     20                     21
                      A                      A                      A
 Frequencies --    762.8458               771.6908               787.2766
 Red. masses --      6.8299                 2.1817                 5.4736
 Frc consts  --      2.3417                 0.7655                 1.9988
 IR Inten    --      2.6560                30.0854                 0.8266

                     22                     23                     24
                      A                      A                      A
 Frequencies --    815.4079               869.1776               934.2215
 Red. masses --      1.6561                 2.0177                 1.4329
 Frc consts  --      0.6488                 0.8981                 0.7368
 IR Inten    --     57.1004                45.8858                 0.8742

                     25                     26                     27
                      A                      A                      A
 Frequencies --    950.4033              1009.3051              1016.5086
 Red. masses --      6.6636                 1.3210                 1.2591
 Frc consts  --      3.5463                 0.7929                 0.7665
 IR Inten    --     14.0404                 0.2365                 0.0119

                     28                     29                     30
                      A                      A                      A
 Frequencies --   1056.3813              1096.1077              1114.8546
 Red. masses --      3.6610                 1.7240                 2.2707
 Frc consts  --      2.4071                 1.2204                 1.6628
 IR Inten    --     18.8039                43.1614                97.5498

                     31                     32                     33
                      A                      A                      A
 Frequencies --   1172.6397              1198.9305              1248.0703
 Red. masses --      1.2524                 1.4426                 2.1643
 Frc consts  --      1.0147                 1.2217                 1.9863
 IR Inten    --     90.4636                 4.3672               366.8702

                     34                     35                     36
                      A                      A                      A
 Frequencies --   1301.1119              1326.0232              1372.1212
 Red. masses --      2.8075                 3.8760                 2.0679
 Frc consts  --      2.8003                 4.0155                 2.2938
 IR Inten    --    400.4263                35.4422               241.9382

                     37                     38                     39
                      A                      A                      A
 Frequencies --   1394.0060              1401.7611              1476.3669
 Red. masses --      4.6422                 2.4070                 2.3942
 Frc consts  --      5.3150                 2.7866                 3.0747
 IR Inten    --    125.6542                61.7134               134.2324

                     40                     41                     42
                      A                      A                      A
 Frequencies --   1501.6015              1601.6197              1624.1652
 Red. masses --      3.0338                 4.0817                 6.8546
 Frc consts  --      4.0303                 6.1689                10.6535
 IR Inten    --    118.5716                94.2358                 2.8508

                     43                     44                     45
                      A                      A                      A
 Frequencies --   1635.7188              1674.0819              1702.7193
 Red. masses --      6.7526                 8.5558                 8.9841
 Frc consts  --     10.6449                14.1274                15.3466
 IR Inten    --    575.6733               628.2532               188.8808

                     46                     47                     48
                      A                      A                      A
 Frequencies --   3182.9881              3185.1460              3198.8135
 Red. masses --      1.0876                 1.0882                 1.0990
 Frc consts  --      6.4924                 6.5045                 6.6257
 IR Inten    --      2.5538                 6.6447                 7.2181

                     49                     50                     51
                      A                      A                      A
 Frequencies --   3199.8908              3210.2793              3346.0831
 Red. masses --      1.0936                 1.0941                 1.0681
 Frc consts  --      6.5976                 6.6435                 7.0461
 IR Inten    --      5.7912                 4.7504               372.6061

 - Thermochemistry -
 -------------------
 Temperature   298.150 Kelvin.  Pressure   1.00000 Atm.
 Atom     1 has atomic number  8 and mass  15.99491

 Molecular mass:   174.03169 amu.
 Principal axes and moments of inertia in atomic units:
                           1         2         3
     Eigenvalues --  1546.774271989.874373536.64855
           X            0.95384  -0.27559  -0.11936
           Y            0.27245   0.96124  -0.04221
           Z            0.12636   0.00774   0.99195
 This molecule is an asymmetric top.
 Rotational symmetry number  1.
 Warning -- assumption of classical behavior for rotation
           may cause significant error
 Rotational temperatures (Kelvin)      0.05600     0.04353     0.02449
 Rotational constants (GHZ):           1.16678     0.90696     0.51030
 Zero-point vibrational energy     358018.6 (Joules/Mol)
                                   85.56851 (Kcal/Mol)
 Warning -- explicit consideration of  13 degrees of freedom as
           vibrations may cause significant error
 Vibrational temperatures:    108.41   165.14   258.73   340.37   397.78
          (Kelvin)            400.62   540.11   599.34   649.95   662.81
                              676.95   757.25   760.44   894.39   902.02
                              909.22   994.41  1086.14  1097.57  1110.29
                             1132.72  1173.19  1250.55  1344.14  1367.42
                             1452.16  1462.53  1519.90  1577.05  1604.03
                             1687.17  1724.99  1795.69  1872.01  1907.85
                             1974.18  2005.66  2016.82  2124.16  2160.47
                             2304.37  2336.81  2353.43  2408.63  2449.83
                             4579.61  4582.71  4602.38  4603.93  4618.88
                             4814.27

 Zero-point correction=                           0.136362 (Hartree/Particle)
 Thermal correction to Energy=                    0.145880
 Thermal correction to Enthalpy=                  0.146824
 Thermal correction to Gibbs Free Energy=         0.101332
 Sum of electronic and zero-point Energies=           -610.390197
 Sum of electronic and thermal Energies=              -610.380679
 Sum of electronic and thermal Enthalpies=            -610.379735
 Sum of electronic and thermal Free Energies=         -610.425227

                     E (Thermal)             CV                S
                      KCal/Mol        Cal/Mol-Kelvin    Cal/Mol-Kelvin
 Total                   91.541             38.129             95.746
 Electronic               0.000              0.000              0.000
 Translational            0.889              2.981             41.370
 Rotational               0.889              2.981             30.766
 Vibrational             89.764             32.168             23.611
 Vibration     1          0.599              1.965              4.009
 Vibration     2          0.608              1.937              3.186
 Vibration     3          0.629              1.867              2.330
 Vibration     4          0.655              1.785              1.829
 Vibration     5          0.678              1.717              1.555
 Vibration     6          0.679              1.713              1.543
 Vibration     7          0.746              1.523              1.058
 Vibration     8          0.780              1.434              0.904
 Vibration     9          0.810              1.357              0.791
 Vibration    10          0.819              1.337              0.764
 Vibration    11          0.828              1.315              0.736
 Vibration    12          0.881              1.192              0.595
 Vibration    13          0.883              1.187              0.590

 Optimization completed.
    -- Stationary point found.
 Normal termination of Gaussian 16 at Sun Feb 11 00:36:53 2024.
