 Q-Chem 5.4, Q-Chem, Inc., Pleasanton, CA (2021)
 Q-Chem 5.4.0 for Intel X86 EM64T Linux

User input:
--------------------------------------------------------------
$molecule
0 1
C                  2.7881340000      3.5993300000      4.1674500000
C                  3.8121040000      2.8068570000      3.4465910000
C                  3.4743800000      1.7929260000      2.6424820000
C                  2.0498180000      1.4147860000      2.4353420000
C                  1.3467110000      3.2195950000      3.9603630000
C                  1.0232930000      2.1926540000      3.1444000000
O                  3.1006080000      4.5210280000      4.8983550000
O                  1.7566290000      0.4850260000      1.6963170000
S                  0.2395470000      4.2463290000      4.8786180000
C                 -1.3609950000      3.5599650000      4.4320260000
C                 -1.9293450000      2.5517640000      5.2153300000
C                 -2.0624160000      4.0818290000      3.3417840000
C                 -3.3276040000      3.5862400000      3.0318800000
C                 -3.1949130000      2.0610520000      4.8994850000
C                 -3.8933730000      2.5761300000      3.8084120000
H                  4.8394180000      3.1080030000      3.6190440000
H                  4.2071640000      1.2004340000      2.1060420000
H                 -0.0014390000      1.8892700000      2.9698050000
H                 -1.3842240000      2.1590100000      6.0653120000
H                 -1.6201630000      4.8706520000      2.7450790000
H                 -3.8703750000      3.9917730000      2.1857430000
H                 -3.6343350000      1.2786600000      5.5075610000
H                 -4.8782730000      2.1936970000      3.5660680000
$end

$rem
BASIS  =  6-311++G(d,p)
GUI  =  2
JOB_TYPE  =  SP
METHOD  =  B3LYP
SCF_CONVERGENCE  = 8
SOLVENT_METHOD = sm12
$end

$smx
solvent dimethylformamide
charges CM5
$end

--------------------------------------------------------------

             Standard Nuclear Orientation (Angstroms)
    I     Atom           X                Y                Z
 ----------------------------------------------------------------
    1      C       2.7881340000     3.5993300000     4.1674500000
    2      C       3.8121040000     2.8068570000     3.4465910000
    3      C       3.4743800000     1.7929260000     2.6424820000
    4      C       2.0498180000     1.4147860000     2.4353420000
    5      C       1.3467110000     3.2195950000     3.9603630000
    6      C       1.0232930000     2.1926540000     3.1444000000
    7      O       3.1006080000     4.5210280000     4.8983550000
    8      O       1.7566290000     0.4850260000     1.6963170000
    9      S       0.2395470000     4.2463290000     4.8786180000
   10      C      -1.3609950000     3.5599650000     4.4320260000
   11      C      -1.9293450000     2.5517640000     5.2153300000
   12      C      -2.0624160000     4.0818290000     3.3417840000
   13      C      -3.3276040000     3.5862400000     3.0318800000
   14      C      -3.1949130000     2.0610520000     4.8994850000
   15      C      -3.8933730000     2.5761300000     3.8084120000
   16      H       4.8394180000     3.1080030000     3.6190440000
   17      H       4.2071640000     1.2004340000     2.1060420000
   18      H      -0.0014390000     1.8892700000     2.9698050000
   19      H      -1.3842240000     2.1590100000     6.0653120000
   20      H      -1.6201630000     4.8706520000     2.7450790000
   21      H      -3.8703750000     3.9917730000     2.1857430000
   22      H      -3.6343350000     1.2786600000     5.5075610000
   23      H      -4.8782730000     2.1936970000     3.5660680000
 ----------------------------------------------------------------

   16   -1010.8844370030      2.90e-09  Convergence criterion met
 Total energy in the final basis set =    -1010.9053504743

                    Orbital Energies (a.u.)
 --------------------------------------------------------------

 Alpha MOs
 -- Occupied --
-88.8805 -19.1470 -19.1340 -10.2951 -10.2820 -10.2467 -10.2217 -10.2132
-10.2121 -10.2035 -10.1949 -10.1948 -10.1905 -10.1899 -10.1896  -7.9662
 -5.9299  -5.9259  -5.9207  -1.0799  -1.0636  -0.8865  -0.8690  -0.8246
 -0.7801  -0.7657  -0.7334  -0.7000  -0.6418  -0.6246  -0.6095  -0.5908
 -0.5368  -0.5232  -0.5099  -0.4834  -0.4754  -0.4677  -0.4570  -0.4551
 -0.4447  -0.4394  -0.4345  -0.4213  -0.4084  -0.3989  -0.3786  -0.3652
 -0.3464  -0.3391  -0.3113  -0.2952  -0.2815  -0.2740  -0.2698  -0.2500

          Ground-State Mulliken Net Atomic Charges

     Atom                 Charge (a.u.)
  ----------------------------------------
      1 C                    -1.233104
      2 C                     0.653725
      3 C                     0.608010
      4 C                    -0.959862
      5 C                     0.159262
      6 C                    -0.062018
      7 O                    -0.265093
      8 O                    -0.333435
      9 S                    -0.250118
     10 C                     0.767771
     11 C                    -0.334043
     12 C                    -0.334064
     13 C                    -0.241145
     14 C                    -0.241652
     15 C                    -0.169111
     16 H                     0.334740
     17 H                     0.330492
     18 H                     0.246371
     19 H                     0.256403
     20 H                     0.256393
     21 H                     0.272687
     22 H                     0.272707
     23 H                     0.265083
  ----------------------------------------
  Sum of atomic charges =     0.000000

                    Cartesian Multipole Moments
 -----------------------------------------------------------------
    Charge (ESU x 10^10)
                 0.0000
    Dipole Moment (Debye)
         X      -2.1736      Y      -0.2720      Z      -0.0672
       Tot       2.1916
    Quadrupole Moments (Debye-Ang)
        XX     -75.3353     XY      -8.6024     YY    -106.2472
        XZ     -11.0227     YZ     -14.7726     ZZ     -99.2718

 Total job time:  351.13s(wall), 2735.98s(cpu)
        *  Thank you very much for using Q-Chem.  Have a nice day.  *
