 Gaussian 16, Revision A.03,
 Gaussian 16:  ES64L-G16RevA.03 25-Dec-2016

 --------------------------------------
 #P UB3LYP/6-311++G(d,p) nosym opt freq
 --------------------------------------

 --------
 Oxidized
 --------
 Symbolic Z-matrix:
 Charge =  0 Multiplicity = 1

 SCF Done:  E(UB3LYP) =  -5760.99271143     A.U. after   16 cycles
 SCF Done:  E(UB3LYP) =  -5760.99463084     A.U. after   12 cycles
 SCF Done:  E(UB3LYP) =  -5760.99471583     A.U. after   11 cycles
 SCF Done:  E(UB3LYP) =  -5760.99471975     A.U. after    9 cycles
 SCF Done:  E(UB3LYP) =  -5760.99472001     A.U. after    9 cycles
 Optimization completed.
    -- Stationary point found.
 Normal termination of Gaussian 16 at Tue Dec 26 20:16:16 2023.

 ----------------------------------------------------------------------
 #P Geom=AllCheck Guess=TCheck SCRF=Check GenChk UB3LYP/6-311++G(d,p) F
 req
 ----------------------------------------------------------------------

 Structure from the checkpoint file:  "235.chk"
 --------
 Oxidized
 --------
 Charge =  0 Multiplicity = 1

                          Input orientation:
 ---------------------------------------------------------------------
 Center     Atomic      Atomic             Coordinates (Angstroms)
 Number     Number       Type             X           Y           Z
 ---------------------------------------------------------------------
      1          6           0        5.789577   -5.285213    1.114456
      2          6           0        6.734462   -5.155977    0.100594
      3          6           0        6.608485   -4.125470   -0.844520
      4          6           0        4.720457   -4.395631    1.193658
      5          6           0        4.595071   -3.369530    0.252643
      6          6           0        5.539330   -3.237955   -0.763072
      7          6           0        3.714132   -4.541609    2.282184
      8          6           0        2.574051   -3.573150    2.346786
      9          6           0        2.452034   -2.576811    1.432530
     10          6           0        3.454025   -2.415252    0.331737
     11          8           0        3.812316   -5.433679    3.109394
     12          8           0        3.333929   -1.514721   -0.483325
     13          1           0        5.873152   -6.074269    1.850137
     14          1           0        5.428612   -2.438733   -1.484038
     15         35           0        8.169229   -6.407045    0.053214
     16         35           0        7.860888   -3.886264   -2.258803
     17          6           0        1.631448   -3.828086    3.488674
     18          6           0        1.352556   -1.553284    1.400979
     19          1           0        2.174308   -3.796468    4.437216
     20          1           0        1.216914   -4.837244    3.414802
     21          1           0        0.812721   -3.114764    3.528871
     22          1           0        0.631129   -1.682644    2.203172
     23          1           0        0.827025   -1.596871    0.443142
     24          1           0        1.774959   -0.546760    1.464822
 ---------------------------------------------------------------------

 SCF Done:  E(UB3LYP) =  -5760.99472001     A.U. after    1 cycles

 Alpha  occ. eigenvalues -- -482.85164-482.85164 -62.50441 -62.50441 -56.32490
 Alpha  occ. eigenvalues --  -56.32490 -56.32092 -56.32092 -56.32061 -56.32061
 Alpha  occ. eigenvalues --  -19.13952 -19.13952 -10.28886 -10.28885 -10.27116
 Alpha  occ. eigenvalues --  -10.27066 -10.22593 -10.22522 -10.22313 -10.22261
 Alpha  occ. eigenvalues --  -10.22039 -10.22039 -10.18659 -10.18658  -8.71412
 Alpha  occ. eigenvalues --   -8.71412  -6.54596  -6.54596  -6.53264  -6.53264
 Alpha  occ. eigenvalues --   -6.53183  -6.53183  -2.65683  -2.65682  -2.65313
 Alpha  occ. eigenvalues --   -2.65313  -2.65253  -2.65253  -2.64193  -2.64193
 Alpha  occ. eigenvalues --   -2.64193  -2.64192  -1.07421  -1.07218  -0.92400
 Alpha  occ. eigenvalues --   -0.87148  -0.84121  -0.83510  -0.77898  -0.76948
 Alpha  occ. eigenvalues --   -0.76418  -0.70839  -0.68374  -0.65266  -0.61852
 Alpha  occ. eigenvalues --   -0.59859  -0.55881  -0.52007  -0.51965  -0.48526
 Alpha  occ. eigenvalues --   -0.47625  -0.47329  -0.46640  -0.46090  -0.44094
 Alpha  occ. eigenvalues --   -0.43814  -0.43375  -0.42310  -0.41223  -0.40838
 Alpha  occ. eigenvalues --   -0.40800  -0.40794  -0.39026  -0.38524  -0.34032
 Alpha  occ. eigenvalues --   -0.34023  -0.32675  -0.29897  -0.29487  -0.29463
 Alpha  occ. eigenvalues --   -0.28275  -0.27937  -0.27026
 Alpha virt. eigenvalues --   -0.13141  -0.07456  -0.05193  -0.04630  -0.01671
 Alpha virt. eigenvalues --   -0.00697  -0.00146   0.00880   0.01186   0.01930
 Alpha virt. eigenvalues --    0.02096   0.02408   0.03574   0.03913   0.04339

  Beta  occ. eigenvalues -- -482.85164-482.85164 -62.50441 -62.50441 -56.32490
  Beta  occ. eigenvalues --  -56.32490 -56.32092 -56.32092 -56.32061 -56.32061
  Beta  occ. eigenvalues --  -19.13952 -19.13952 -10.28886 -10.28885 -10.27116
  Beta  occ. eigenvalues --  -10.27066 -10.22593 -10.22522 -10.22313 -10.22261
  Beta  occ. eigenvalues --  -10.22039 -10.22039 -10.18659 -10.18658  -8.71412
  Beta  occ. eigenvalues --   -8.71412  -6.54596  -6.54596  -6.53264  -6.53264
  Beta  occ. eigenvalues --   -6.53183  -6.53183  -2.65683  -2.65682  -2.65313
  Beta  occ. eigenvalues --   -2.65313  -2.65253  -2.65253  -2.64193  -2.64193
  Beta  occ. eigenvalues --   -2.64193  -2.64192  -1.07421  -1.07218  -0.92400
  Beta  occ. eigenvalues --   -0.87148  -0.84121  -0.83510  -0.77898  -0.76948
  Beta  occ. eigenvalues --   -0.76418  -0.70839  -0.68374  -0.65266  -0.61852
  Beta  occ. eigenvalues --   -0.59859  -0.55881  -0.52007  -0.51965  -0.48526
  Beta  occ. eigenvalues --   -0.47625  -0.47329  -0.46640  -0.46090  -0.44094
  Beta  occ. eigenvalues --   -0.43814  -0.43375  -0.42310  -0.41223  -0.40838
  Beta  occ. eigenvalues --   -0.40800  -0.40794  -0.39026  -0.38524  -0.34032
  Beta  occ. eigenvalues --   -0.34023  -0.32675  -0.29897  -0.29487  -0.29463
  Beta  occ. eigenvalues --   -0.28275  -0.27937  -0.27026
  Beta virt. eigenvalues --   -0.13141  -0.07456  -0.05193  -0.04630  -0.01671
  Beta virt. eigenvalues --   -0.00697  -0.00146   0.00880   0.01186   0.01930
  Beta virt. eigenvalues --    0.02096   0.02408   0.03574   0.03913   0.04339

 Mulliken charges and spin densities:
               1          2
     1  C   -0.132304  -0.000000
     2  C    0.162635   0.000000
     3  C    0.162681  -0.000000
     4  C    0.751427  -0.000000
     5  C    0.751664   0.000000
     6  C   -0.132093   0.000000
     7  C   -1.095185   0.000000
     8  C    0.382259  -0.000000
     9  C    0.381294   0.000000
    10  C   -1.094844   0.000000
    11  O   -0.196295  -0.000000
    12  O   -0.196303   0.000000
    13  H    0.243038   0.000000
    14  H    0.243043  -0.000000
    15  Br  -0.111796   0.000000
    16  Br  -0.111758  -0.000000
    17  C   -0.503192   0.000000
    18  C   -0.503070  -0.000000
    19  H    0.193896   0.000000
    20  H    0.194561   0.000000
    21  H    0.110973  -0.000000
    22  H    0.110904  -0.000000
    23  H    0.194129  -0.000000
    24  H    0.194335   0.000000
 Sum of Mulliken charges =  -0.00000   0.00000

 Dipole moment (field-independent basis, Debye):
    X=             -1.6935    Y=              0.6366    Z=              0.9201  Tot=              2.0298
 Quadrupole moment (field-independent basis, Debye-Ang):
   XX=           -126.3488   YY=           -128.0254   ZZ=           -119.6094
   XY=              7.6109   XZ=             -1.5725   YZ=              4.2393

  Exact polarizability: 218.340 -52.241 179.237 -57.201 -33.848 187.357
 Approx polarizability: 304.464 -69.776 317.752 -61.459 -96.191 317.732

 ******    1 imaginary frequencies (negative Signs) ******

                      1                      2                      3
                      A                      A                      A
 Frequencies --    -16.8765                41.3055                42.3062
 Red. masses --      1.1980                 5.4806                 8.4819
 Frc consts  --      0.0002                 0.0055                 0.0089
 IR Inten    --      0.0001                 3.7141                 0.2094

                      4                      5                      6
                      A                      A                      A
 Frequencies --     55.2459               102.2336               103.8585
 Red. masses --      1.0404                 2.5666                10.6287
 Frc consts  --      0.0019                 0.0158                 0.0675
 IR Inten    --      0.5378                 0.0004                 4.0290

                      7                      8                      9
                      A                      A                      A
 Frequencies --    125.9312               126.1705               182.1779
 Red. masses --      9.6290                47.6814                 5.4266
 Frc consts  --      0.0900                 0.4472                 0.1061
 IR Inten    --      0.0722                 0.0781                 0.0000

                     10                     11                     12
                      A                      A                      A
 Frequencies --    224.4898               232.8428               233.1652
 Red. masses --     12.9114                12.5075                 4.9341
 Frc consts  --      0.3834                 0.3995                 0.1580
 IR Inten    --      0.0287                 0.4694                 0.5175

                     13                     14                     15
                      A                      A                      A
 Frequencies --    328.2094               336.3437               366.2477
 Red. masses --      3.9178                 6.4597                 2.8239
 Frc consts  --      0.2487                 0.4306                 0.2232
 IR Inten    --      0.9346                 1.3995                 0.4436

                     16                     17                     18
                      A                      A                      A
 Frequencies --    416.7590               420.3390               437.9408
 Red. masses --      7.0626                 8.9272                 4.3599
 Frc consts  --      0.7227                 0.9293                 0.4927
 IR Inten    --      0.6817                38.9021                 0.0011

                     19                     20                     21
                      A                      A                      A
 Frequencies --    440.1213               448.9160               470.9776
 Red. masses --      3.2569                 6.6474                10.8634
 Frc consts  --      0.3717                 0.7893                 1.4198
 IR Inten    --      3.4720                 0.7155                 6.3042

                     22                     23                     24
                      A                      A                      A
 Frequencies --    552.6719               568.2373               659.9477
 Red. masses --      7.1407                 8.0747                 6.0166
 Frc consts  --      1.2851                 1.5362                 1.5439
 IR Inten    --     17.5414                 0.0000                 9.1685

                     25                     26                     27
                      A                      A                      A
 Frequencies --    672.2335               689.5886               701.5568
 Red. masses --      5.4962                 7.2453                 3.9043
 Frc consts  --      1.4634                 2.0299                 1.1322
 IR Inten    --      0.0000                 2.3875                 0.3297

                     28                     29                     30
                      A                      A                      A
 Frequencies --    733.7137               777.4936               845.6234
 Red. masses --      5.2552                 7.0598                 4.3798
 Frc consts  --      1.6668                 2.5144                 1.8453
 IR Inten    --     21.7470                 0.0001                56.4985

                     31                     32                     33
                      A                      A                      A
 Frequencies --    899.9243               918.6991               942.8067
 Red. masses --      2.7807                 1.3234                 1.3991
 Frc consts  --      1.3268                 0.6581                 0.7328
 IR Inten    --     24.7620                 0.0000                17.6555

                     34                     35                     36
                      A                      A                      A
 Frequencies --    987.4415              1029.2004              1046.8438
 Red. masses --      5.8269                 1.4937                 1.7940
 Frc consts  --      3.3474                 0.9322                 1.1584
 IR Inten    --     12.6269                 0.4571                28.7872

                     37                     38                     39
                      A                      A                      A
 Frequencies --   1058.2921              1108.8294              1114.7246
 Red. masses --      1.5818                 2.7655                 2.0001
 Frc consts  --      1.0438                 2.0033                 1.4644
 IR Inten    --      0.0031                18.2923                27.9258

                     40                     41                     42
                      A                      A                      A
 Frequencies --   1164.2609              1168.0069              1254.3292
 Red. masses --      3.9854                 4.9194                 1.2720
 Frc consts  --      3.1829                 3.9542                 1.1791
 IR Inten    --     12.2879                 1.4382                 1.6868

                     43                     44                     45
                      A                      A                      A
 Frequencies --   1297.3011              1313.0070              1321.8628
 Red. masses --      5.9167                 4.8337                10.8915
 Frc consts  --      5.8669                 4.9098                11.2127
 IR Inten    --    560.2655                23.5286                30.6484

                     46                     47                     48
                      A                      A                      A
 Frequencies --   1390.0805              1413.9041              1420.8763
 Red. masses --      5.3857                 1.5119                 1.1971
 Frc consts  --      6.1316                 1.7808                 1.4239
 IR Inten    --     16.4747                47.7540                 6.8928

                     49                     50                     51
                      A                      A                      A
 Frequencies --   1468.9870              1472.0708              1475.0111
 Red. masses --      1.0412                 1.0502                 1.0433
 Frc consts  --      1.3238                 1.3408                 1.3374
 IR Inten    --      0.0029                 4.8915                16.1307

                     52                     53                     54
                      A                      A                      A
 Frequencies --   1478.0726              1486.4818              1589.8218
 Red. masses --      2.6505                 1.2036                 9.8364
 Frc consts  --      3.4116                 1.5669                14.6482
 IR Inten    --      3.7016                 2.0631                18.1712

                     55                     56                     57
                      A                      A                      A
 Frequencies --   1599.6265              1663.5536              1712.4537
 Red. masses --      6.9073                 6.8626                12.2538
 Frc consts  --     10.4135                11.1895                21.1719
 IR Inten    --    133.4204                64.8953                28.8521

                     58                     59                     60
                      A                      A                      A
 Frequencies --   1717.2356              3043.2420              3045.6545
 Red. masses --     12.4829                 1.0394                 1.0415
 Frc consts  --     21.6883                 5.6717                 5.6922
 IR Inten    --    372.0502                 3.6072                 8.8414

                     61                     62                     63
                      A                      A                      A
 Frequencies --   3086.3149              3086.7088              3146.6872
 Red. masses --      1.0984                 1.0982                 1.1004
 Frc consts  --      6.1646                 6.1648                 6.4195
 IR Inten    --      0.0019                11.4277                 1.6775

                     64                     65                     66
                      A                      A                      A
 Frequencies --   3164.1180              3209.5071              3211.0669
 Red. masses --      1.0947                 1.0911                 1.0916
 Frc consts  --      6.4571                 6.6222                 6.6313
 IR Inten    --     30.6823                 6.4848                 3.2364

 - Thermochemistry -
 -------------------
 Temperature   298.150 Kelvin.  Pressure   1.00000 Atm.
 Atom     1 has atomic number  6 and mass  12.00000

 Molecular mass:   341.88910 amu.
 Principal axes and moments of inertia in atomic units:
                           1         2         3
     Eigenvalues --  3284.126669929.72961**********
           X            0.83404  -0.08975   0.54435
           Y           -0.31402   0.73401   0.60217
           Z           -0.45361  -0.67318   0.58402
 This molecule is an asymmetric top.
 Rotational symmetry number  1.
 Warning -- assumption of classical behavior for rotation
           may cause significant error
 Rotational temperatures (Kelvin)      0.02637     0.00872     0.00657
 Rotational constants (GHZ):           0.54953     0.18175     0.13681
    1 imaginary frequencies ignored.
 Zero-point vibrational energy     435701.8 (Joules/Mol)
                                  104.13523 (Kcal/Mol)
 Warning -- explicit consideration of  22 degrees of freedom as
           vibrations may cause significant error
 Vibrational temperatures:     59.43    60.87    79.49   147.09   149.43
          (Kelvin)            181.19   181.53   262.11   322.99   335.01
                              335.47   472.22   483.92   526.95   599.62
                              604.77   630.10   633.24   645.89   677.63
                              795.17   817.57   949.52   967.19   992.16
                             1009.38  1055.65  1118.64  1216.66  1294.79
                             1321.80  1356.49  1420.71  1480.79  1506.17
                             1522.65  1595.36  1603.84  1675.11  1680.50
                             1804.70  1866.53  1889.12  1901.87  2000.02
                             2034.29  2044.32  2113.54  2117.98  2122.21
                             2126.62  2138.72  2287.40  2301.51  2393.48
                             2463.84  2470.72  4378.55  4382.02  4440.52
                             4441.09  4527.38  4552.46  4617.76  4620.01

 Zero-point correction=                           0.165950 (Hartree/Particle)
 Thermal correction to Energy=                    0.180598
 Thermal correction to Enthalpy=                  0.181542
 Thermal correction to Gibbs Free Energy=         0.121525
 Sum of electronic and zero-point Energies=          -5760.828770
 Sum of electronic and thermal Energies=             -5760.814122
 Sum of electronic and thermal Enthalpies=           -5760.813178
 Sum of electronic and thermal Free Energies=        -5760.873195

                     E (Thermal)             CV                S
                      KCal/Mol        Cal/Mol-Kelvin    Cal/Mol-Kelvin
 Total                  113.327             53.035            126.317
 Electronic               0.000              0.000              0.000
 Translational            0.889              2.981             43.382
 Rotational               0.889              2.981             34.419
 Vibrational            111.550             47.073             48.516
 Vibration     1          0.594              1.981              5.195
 Vibration     2          0.595              1.980              5.148
 Vibration     3          0.596              1.975              4.620
 Vibration     4          0.604              1.947              3.411
 Vibration     5          0.605              1.946              3.381
 Vibration     6          0.611              1.927              3.007
 Vibration     7          0.611              1.927              3.004
 Vibration     8          0.630              1.864              2.306
 Vibration     9          0.649              1.804              1.923
 Vibration    10          0.654              1.791              1.857
 Vibration    11          0.654              1.790              1.854
 Vibration    12          0.711              1.619              1.269
 Vibration    13          0.717              1.603              1.229
 Vibration    14          0.739              1.542              1.095
 Vibration    15          0.780              1.434              0.903
 Vibration    16          0.783              1.426              0.891
 Vibration    17          0.798              1.387              0.833
 Vibration    18          0.800              1.383              0.826
 Vibration    19          0.808              1.363              0.799
 Vibration    20          0.828              1.314              0.735
 Vibration    21          0.908              1.134              0.539
 Vibration    22          0.924              1.100              0.508

                           ! Non-Optimized Parameters !
 Normal termination of Gaussian 16 at Tue Dec 26 20:44:46 2023.
