 Gaussian 16, Revision A.03,
 Gaussian 16:  ES64L-G16RevA.03 25-Dec-2016

 ----------------------------------------------------------------
 #P UB3LYP/6-311++G(d,p) SCRF=(PCM,Solvent=n,n-DiMethylFormamide)
 ----------------------------------------------------------------

 -------
 Reduced
 -------
 Symbolic Z-matrix:
 Charge = -2 Multiplicity = 1

                         Standard orientation:
 ---------------------------------------------------------------------
 Center     Atomic      Atomic             Coordinates (Angstroms)
 Number     Number       Type             X           Y           Z
 ---------------------------------------------------------------------
      1          7           0        2.565931    2.819980   -0.360104
      2          6           0        2.508172    1.415165   -0.148220
      3          6           0        3.687001    0.701573   -0.089334
      4          6           0        3.686937   -0.701853    0.090530
      5          6           0        2.507998   -1.415387    0.148601
      6          7           0        2.565214   -2.820037    0.360303
      7          6           0        1.235859   -0.727896    0.043517
      8          6           0       -0.000077   -1.466797   -0.000183
      9          8           0       -0.000138   -2.789003   -0.000253
     10          6           0       -1.235942   -0.727825   -0.043647
     11          6           0       -2.508208   -1.415205   -0.148409
     12          7           0       -2.565427   -2.819752   -0.360459
     13          6           0       -3.687056   -0.701575   -0.089763
     14          6           0       -3.686942    0.701876    0.090200
     15          6           0       -2.508025    1.415311    0.148756
     16          7           0       -2.565080    2.819943    0.361703
     17          6           0       -1.235884    0.727874    0.043424
     18          6           0       -0.000008    1.466819   -0.000728
     19          8           0       -0.000101    2.788918   -0.002303
     20          6           0        1.235910    0.727829   -0.043746
     21          1           0        1.621210    3.201894   -0.185970
     22          1           0        3.275937    3.249120    0.221133
     23          1           0        4.630046    1.235772   -0.197479
     24          1           0        4.629898   -1.236148    0.198978
     25          1           0        3.276617   -3.249296   -0.219098
     26          1           0        1.620740   -3.201821    0.184411
     27          1           0       -3.277034   -3.249219    0.218518
     28          1           0       -1.620939   -3.201631   -0.184915
     29          1           0       -4.630133   -1.235707   -0.198083
     30          1           0       -4.629927    1.236100    0.198861
     31          1           0       -1.620663    3.201651    0.185169
     32          1           0       -3.276718    3.249565   -0.217167
 ---------------------------------------------------------------------

 SCF Done:  E(UB3LYP) =  -910.693850637     A.U. after   15 cycles

 The electronic state is 1-A.
 Alpha  occ. eigenvalues --  -19.02917 -19.02916 -14.27009 -14.27008 -14.27008
 Alpha  occ. eigenvalues --  -14.27008 -10.18351 -10.18350 -10.17638 -10.17638
 Alpha  occ. eigenvalues --  -10.17636 -10.17635 -10.14367 -10.14364 -10.14331
 Alpha  occ. eigenvalues --  -10.14330 -10.13403 -10.13403 -10.13356 -10.13356
 Alpha  occ. eigenvalues --   -0.95038  -0.94668  -0.88124  -0.87213  -0.87117
 Alpha  occ. eigenvalues --   -0.86296  -0.80045  -0.78017  -0.74554  -0.70510
 Alpha  occ. eigenvalues --   -0.69196  -0.67536  -0.63347  -0.60331  -0.59827
 Alpha  occ. eigenvalues --   -0.54413  -0.52483  -0.52223  -0.50143  -0.48034
 Alpha  occ. eigenvalues --   -0.47236  -0.45985  -0.45057  -0.44104  -0.43967
 Alpha  occ. eigenvalues --   -0.43186  -0.41556  -0.40213  -0.39999  -0.38681
 Alpha  occ. eigenvalues --   -0.37741  -0.36508  -0.35504  -0.35439  -0.34854
 Alpha  occ. eigenvalues --   -0.34275  -0.33659  -0.33604  -0.32176  -0.31566
 Alpha  occ. eigenvalues --   -0.29937  -0.28954  -0.25585  -0.24232  -0.22584
 Alpha  occ. eigenvalues --   -0.21430  -0.21036  -0.19761  -0.17849  -0.16557
 Alpha  occ. eigenvalues --   -0.10376
 Alpha virt. eigenvalues --   -0.00866  -0.00121   0.00259   0.00719   0.00976
 Alpha virt. eigenvalues --    0.02055   0.02260   0.03504   0.03781   0.04081
 Alpha virt. eigenvalues --    0.04312   0.04428   0.05838   0.06444   0.06604

  Beta  occ. eigenvalues --  -19.02917 -19.02916 -14.27009 -14.27008 -14.27008
  Beta  occ. eigenvalues --  -14.27008 -10.18351 -10.18350 -10.17638 -10.17638
  Beta  occ. eigenvalues --  -10.17636 -10.17635 -10.14367 -10.14364 -10.14331
  Beta  occ. eigenvalues --  -10.14330 -10.13403 -10.13403 -10.13356 -10.13356
  Beta  occ. eigenvalues --   -0.95038  -0.94668  -0.88124  -0.87213  -0.87117
  Beta  occ. eigenvalues --   -0.86296  -0.80045  -0.78017  -0.74554  -0.70510
  Beta  occ. eigenvalues --   -0.69196  -0.67536  -0.63347  -0.60331  -0.59827
  Beta  occ. eigenvalues --   -0.54413  -0.52483  -0.52223  -0.50143  -0.48034
  Beta  occ. eigenvalues --   -0.47236  -0.45985  -0.45057  -0.44104  -0.43967
  Beta  occ. eigenvalues --   -0.43186  -0.41556  -0.40213  -0.39999  -0.38681
  Beta  occ. eigenvalues --   -0.37741  -0.36508  -0.35504  -0.35439  -0.34854
  Beta  occ. eigenvalues --   -0.34275  -0.33659  -0.33604  -0.32176  -0.31566
  Beta  occ. eigenvalues --   -0.29937  -0.28954  -0.25585  -0.24232  -0.22584
  Beta  occ. eigenvalues --   -0.21430  -0.21036  -0.19761  -0.17849  -0.16557
  Beta  occ. eigenvalues --   -0.10376
  Beta virt. eigenvalues --   -0.00866  -0.00121   0.00259   0.00719   0.00976
  Beta virt. eigenvalues --    0.02055   0.02260   0.03504   0.03781   0.04081
  Beta virt. eigenvalues --    0.04312   0.04428   0.05838   0.06444   0.06604

 Mulliken charges and spin densities:
               1          2
     1  N   -0.495099   0.000000
     2  C   -0.263104  -0.000000
     3  C   -0.398401  -0.000000
     4  C   -0.398218   0.000000
     5  C   -0.263566  -0.000000
     6  N   -0.494842   0.000000
     7  C    0.519305   0.000000
     8  C   -0.523451  -0.000000
     9  O   -0.617071   0.000000
    10  C    0.518713   0.000000
    11  C   -0.262391  -0.000000
    12  N   -0.494922   0.000000
    13  C   -0.397533  -0.000000
    14  C   -0.396708  -0.000000
    15  C   -0.263666  -0.000000
    16  N   -0.494816   0.000000
    17  C    0.518449   0.000000
    18  C   -0.523701  -0.000000
    19  O   -0.617040  -0.000000
    20  C    0.519594   0.000000
    21  H    0.320970   0.000000
    22  H    0.239936   0.000000
    23  H    0.146286  -0.000000
    24  H    0.146214   0.000000
    25  H    0.239941   0.000000
    26  H    0.320959  -0.000000
    27  H    0.239979   0.000000
    28  H    0.320983   0.000000
    29  H    0.146170   0.000000
    30  H    0.146200   0.000000
    31  H    0.320873   0.000000
    32  H    0.239957   0.000000
 Sum of Mulliken charges =  -2.00000  -0.00000

 Dipole moment (field-independent basis, Debye):
    X=             -0.0026    Y=             -0.0048    Z=              0.0054  Tot=              0.0077
 Quadrupole moment (field-independent basis, Debye-Ang):
   XX=           -154.7510   YY=           -171.9039   ZZ=           -137.0180
   XY=             -0.0128   XZ=              0.0095   YZ=              0.0240

 Normal termination of Gaussian 16 at Sun Jan 14 01:31:31 2024.
