 Q-Chem 5.4, Q-Chem, Inc., Pleasanton, CA (2021)
 Q-Chem 5.4.0 for Intel X86 EM64T Linux

User input:
--------------------------------------------------------------
$molecule
-1 2
C                 -1.2985340000      2.0646340000      0.5692380000
C                 -2.5504270000      1.4009070000      0.2232120000
C                 -2.6550200000      0.1466770000     -0.3028850000
C                 -1.4800470000     -0.6605380000     -0.5712660000
C                 -0.2117570000     -0.0421830000     -0.2431090000
C                 -0.1448840000      1.2151180000      0.2820970000
O                 -1.5591560000     -1.8203710000     -1.0566840000
H                 -3.6181330000     -0.2889760000     -0.5380150000
O                 -1.2164000000      3.2124080000      1.0497320000
Cl                 1.4417950000      1.9062390000      0.6582750000
Br                -4.1638010000      2.4159920000      0.5530400000
H                  0.6866760000     -0.6175380000     -0.4309650000
$end
$rem
MAX_SCF_CYCLES=200
BASIS  =  6-311++G(d,p)
GUI  =  2
JOB_TYPE  =  SP
METHOD  =  B3LYP
SOLVENT_METHOD = COSMO
$end
$solvent
dielectric 37.219
opticaldielectric 1.43
$end

--------------------------------------------------------------

             Standard Nuclear Orientation (Angstroms)
    I     Atom           X                Y                Z
 ----------------------------------------------------------------
    1      C       0.3302706904    -0.8261631165    -0.0000586991
    2      C      -0.6541303947     0.2501538013    -0.0000061026
    3      C      -0.3610699500     1.5824173696     0.0000412871
    4      C       1.0105913113     2.0543615954     0.0000372930
    5      C       2.0248108287     1.0199689175    -0.0000345175
    6      C       1.6948697561    -0.3037599194    -0.0000506981
    7      O       1.2983616678     3.2808564699    -0.0000005577
    8      H      -1.1418643671     2.3327682072     0.0000942631
    9      O       0.0491624893    -2.0410638519     0.0000657990
   10      Cl      2.9895245537    -1.5123033920     0.0000073065
   11      Br     -2.5083665759    -0.3011790518    -0.0000080089
   12      H       3.0605304032     1.3374434381    -0.0000314691
 ----------------------------------------------------------------

   10   -3414.8185829905      7.83e-06  Convergence criterion met
 Total energy in the final basis set =    -3414.8185829905
    5   -3414.8982432306      5.45e-06  Convergence criterion met
 Total energy in the final basis set =    -3414.8982432306

                    Orbital Energies (a.u.)
 --------------------------------------------------------------

 Alpha MOs
 -- Occupied --
********-101.5553 -62.4829 -56.3033 -56.2997 -56.2994 -19.1001 -19.0961
-10.2524 -10.2413 -10.2388 -10.2329 -10.1830 -10.1822  -9.4697  -8.6916
 -7.2342  -7.2250  -7.2241  -6.5228  -6.5105  -6.5098  -2.6338  -2.6302
 -2.6297  -2.6200  -2.6200  -1.0304  -1.0184  -0.8805  -0.8443  -0.7898
 -0.7325  -0.7005  -0.6025  -0.5829  -0.5060  -0.4890  -0.4543  -0.4388
 -0.4310  -0.4236  -0.4043  -0.3981  -0.3795  -0.3584  -0.3303  -0.3197
 -0.2946  -0.2858  -0.2683  -0.2588  -0.2564  -0.1818

 Beta MOs
 -- Occupied --
********-101.5553 -62.4829 -56.3033 -56.2996 -56.2994 -19.0933 -19.0890
-10.2510 -10.2402 -10.2377 -10.2319 -10.1817 -10.1810  -9.4697  -8.6916
 -7.2342  -7.2248  -7.2241  -6.5228  -6.5104  -6.5098  -2.6338  -2.6301
 -2.6298  -2.6200  -2.6200  -1.0187  -1.0059  -0.8774  -0.8412  -0.7873
 -0.7301  -0.6900  -0.5983  -0.5785  -0.5037  -0.4846  -0.4508  -0.4269
 -0.4214  -0.4202  -0.4001  -0.3775  -0.3700  -0.3533  -0.3193  -0.3167
 -0.2942  -0.2620  -0.2619  -0.2526  -0.2500

          Ground-State Mulliken Net Atomic Charges

     Atom                 Charge (a.u.)    Spin (a.u.)
  --------------------------------------------------------
      1 C                    -1.651632       0.044551
      2 C                     0.912147       0.102544
      3 C                    -0.171962       0.078529
      4 C                    -0.484443       0.129482
      5 C                    -0.481476       0.076818
      6 C                     1.269207       0.082462
      7 O                    -0.508410       0.246438
      8 H                     0.248479      -0.008351
      9 O                    -0.389789       0.246484
     10 Cl                    0.218048       0.001965
     11 Br                   -0.183499       0.006059
     12 H                     0.223329      -0.006980
  --------------------------------------------------------
  Sum of atomic charges =    -1.000000

                    Cartesian Multipole Moments
 -----------------------------------------------------------------
    Charge (ESU x 10^10)
                -4.8032
    Dipole Moment (Debye)
         X      -2.6506      Y      -0.8549      Z      -0.0001
       Tot       2.7850
    Quadrupole Moments (Debye-Ang)
        XX     -88.4994     XY      -7.8769     YY    -118.3072
        XZ       0.0001     YZ       0.0015     ZZ     -79.8331

 Total job time:  20.84s(wall), 148.01s(cpu)
        *  Thank you very much for using Q-Chem.  Have a nice day.  *
