 Q-Chem 5.4, Q-Chem, Inc., Pleasanton, CA (2021)
 Q-Chem 5.4.0 for Intel X86 EM64T Linux

User input:
--------------------------------------------------------------
$molecule
0 1
O                 -4.9304470000      0.9677020000      0.1875110000
C                 -3.7014840000      0.3869110000      0.1179480000
C                 -3.6597330000     -1.0106840000      0.0226490000
C                 -2.4381890000     -1.6575800000     -0.0513740000
C                 -1.2385300000     -0.9341840000     -0.0323890000
C                  0.0559870000     -1.6610290000     -0.1136820000
O                  0.0970790000     -2.8804020000     -0.1971700000
C                  1.2985360000     -0.8447720000     -0.0893020000
C                  2.5440510000     -1.4819380000     -0.1630240000
C                  3.7191430000     -0.7505310000     -0.1426390000
C                  3.6666350000      0.6466620000     -0.0470680000
O                  4.8535630000      1.3126410000     -0.0314750000
C                  2.4378820000      1.2975860000      0.0271990000
C                  1.2559180000      0.5564760000      0.0063510000
C                 -0.0433610000      1.2862180000      0.0877140000
O                 -0.0843960000      2.5035390000      0.1706850000
C                 -1.2904330000      0.4667220000      0.0634410000
C                 -2.5195130000      1.1228340000      0.1382360000
H                 -4.8415040000      1.9252640000      0.2494880000
H                 -4.5918650000     -1.5623120000      0.0085780000
H                 -2.3864880000     -2.7368020000     -0.1254900000
H                  2.5652470000     -2.5622390000     -0.2364340000
H                  4.6862150000     -1.2352410000     -0.1991440000
H                  4.7002880000      2.2616380000      0.0362660000
H                  2.3723610000      2.3781060000      0.1017550000
H                 -2.5269610000      2.2054140000      0.2113700000
$end

$rem
BASIS  =  6-311++G(d,p)
GUI  =  2
JOB_TYPE  =  SP
METHOD  =  B3LYP
SCF_CONVERGENCE  = 8
SOLVENT_METHOD = sm12
$end

$smx
solvent dimethylformamide
charges CM5
$end

--------------------------------------------------------------

             Standard Nuclear Orientation (Angstroms)
    I     Atom           X                Y                Z
 ----------------------------------------------------------------
    1      O      -4.9304470000     0.9677020000     0.1875110000
    2      C      -3.7014840000     0.3869110000     0.1179480000
    3      C      -3.6597330000    -1.0106840000     0.0226490000
    4      C      -2.4381890000    -1.6575800000    -0.0513740000
    5      C      -1.2385300000    -0.9341840000    -0.0323890000
    6      C       0.0559870000    -1.6610290000    -0.1136820000
    7      O       0.0970790000    -2.8804020000    -0.1971700000
    8      C       1.2985360000    -0.8447720000    -0.0893020000
    9      C       2.5440510000    -1.4819380000    -0.1630240000
   10      C       3.7191430000    -0.7505310000    -0.1426390000
   11      C       3.6666350000     0.6466620000    -0.0470680000
   12      O       4.8535630000     1.3126410000    -0.0314750000
   13      C       2.4378820000     1.2975860000     0.0271990000
   14      C       1.2559180000     0.5564760000     0.0063510000
   15      C      -0.0433610000     1.2862180000     0.0877140000
   16      O      -0.0843960000     2.5035390000     0.1706850000
   17      C      -1.2904330000     0.4667220000     0.0634410000
   18      C      -2.5195130000     1.1228340000     0.1382360000
   19      H      -4.8415040000     1.9252640000     0.2494880000
   20      H      -4.5918650000    -1.5623120000     0.0085780000
   21      H      -2.3864880000    -2.7368020000    -0.1254900000
   22      H       2.5652470000    -2.5622390000    -0.2364340000
   23      H       4.6862150000    -1.2352410000    -0.1991440000
   24      H       4.7002880000     2.2616380000     0.0362660000
   25      H       2.3723610000     2.3781060000     0.1017550000
   26      H      -2.5269610000     2.2054140000     0.2113700000
 ----------------------------------------------------------------

   15    -839.4527891896      2.37e-09  Convergence criterion met
 Total energy in the final basis set =     -839.4817711381

                    Orbital Energies (a.u.)
 --------------------------------------------------------------

 Alpha MOs
 -- Occupied --
-19.1757 -19.1757 -19.1332 -19.1217 -10.2849 -10.2761 -10.2650 -10.2650
-10.2133 -10.2133 -10.2032 -10.2032 -10.2003 -10.2003 -10.1996 -10.1996
-10.1969 -10.1969  -1.0882  -1.0882  -1.0674  -1.0561  -0.8942  -0.8821
 -0.8111  -0.7821  -0.7813  -0.7669  -0.6927  -0.6821  -0.6452  -0.6439
 -0.5916  -0.5831  -0.5828  -0.5446  -0.5258  -0.5104  -0.4955  -0.4757
 -0.4598  -0.4590  -0.4576  -0.4536  -0.4516  -0.4368  -0.4343  -0.4247
 -0.4171  -0.4102  -0.3999  -0.3988  -0.3735  -0.3698  -0.3649  -0.3464
 -0.2873  -0.2850  -0.2838  -0.2730  -0.2611  -0.2501

          Ground-State Mulliken Net Atomic Charges

     Atom                 Charge (a.u.)
  ----------------------------------------
      1 O                    -0.207901
      2 C                     0.123572
      3 C                     0.242465
      4 C                     0.149806
      5 C                    -0.581389
      6 C                    -1.541317
      7 O                    -0.296783
      8 C                    -0.581245
      9 C                     0.150036
     10 C                     0.241765
     11 C                     0.124022
     12 O                    -0.207862
     13 C                     0.653899
     14 C                     0.313051
     15 C                    -1.387913
     16 O                    -0.229806
     17 C                     0.312987
     18 C                     0.652748
     19 H                     0.327058
     20 H                     0.290489
     21 H                     0.197753
     22 H                     0.197743
     23 H                     0.290472
     24 H                     0.327050
     25 H                     0.219664
     26 H                     0.219638
  ----------------------------------------
  Sum of atomic charges =     0.000000

                    Cartesian Multipole Moments
 -----------------------------------------------------------------
    Charge (ESU x 10^10)
                 0.0000
    Dipole Moment (Debye)
         X      -0.1031      Y       3.0647      Z       0.2088
       Tot       3.0735
    Quadrupole Moments (Debye-Ang)
        XX     -86.8800     XY       0.5961     YY    -103.7207
        XZ      -0.4083     YZ       0.0876     ZZ    -105.1786

 Total job time:  506.13s(wall), 3951.55s(cpu)
        *  Thank you very much for using Q-Chem.  Have a nice day.  *
