 Gaussian 16, Revision A.03,
 Gaussian 16:  ES64L-G16RevA.03 25-Dec-2016

 ----------------------------------------------
 #P UB3LYP/6-311++G(d,p) nosym opt freq SCF=YQC
 ----------------------------------------------

 -------
 Reduced
 -------
 Symbolic Z-matrix:
 Charge = -2 Multiplicity = 1

 SCF Done:  E(UB3LYP) =  -767.529480878     a.u. after    7 cycles
 SCF Done:  E(UB3LYP) =  -767.541028415     A.U. after   33 cycles
 SCF Done:  E(UB3LYP) =  -767.541191737     a.u. after    6 cycles
 SCF Done:  E(UB3LYP) =  -767.569531536     a.u. after   45 cycles
 SCF Done:  E(UB3LYP) =  -767.570560490     A.U. after   32 cycles
 SCF Done:  E(UB3LYP) =  -767.576269940     a.u. after   34 cycles
 SCF Done:  E(UB3LYP) =  -767.576574074     A.U. after   27 cycles
 SCF Done:  E(UB3LYP) =  -767.577041566     a.u. after   10 cycles
 SCF Done:  E(UB3LYP) =  -767.577159867     A.U. after   30 cycles
 SCF Done:  E(UB3LYP) =  -767.577534951     a.u. after   12 cycles
 SCF Done:  E(UB3LYP) =  -767.578983753     a.u. after    4 cycles
 SCF Done:  E(UB3LYP) =  -767.579010470     A.U. after   25 cycles
 SCF Done:  E(UB3LYP) =  -767.578960804     a.u. after    1 cycles
 SCF Done:  E(UB3LYP) =  -767.579013608     A.U. after   26 cycles
 SCF Done:  E(UB3LYP) =  -767.579001730     a.u. after    1 cycles
 SCF Done:  E(UB3LYP) =  -767.579014413     A.U. after   26 cycles
 SCF Done:  E(UB3LYP) =  -767.579011120     a.u. after    1 cycles
 SCF Done:  E(UB3LYP) =  -767.579014796     A.U. after   25 cycles
 Optimization completed.
    -- Stationary point found.
 Normal termination of Gaussian 16 at Thu Dec 21 14:43:51 2023.

 ----------------------------------------------------------------------
 #P Geom=AllCheck Guess=TCheck SCRF=Check GenChk UB3LYP/6-311++G(d,p) F
 req
 ----------------------------------------------------------------------

 Structure from the checkpoint file:  "129-an.chk"
 -------
 Reduced
 -------
 Charge = -2 Multiplicity = 1

                          Input orientation:
 ---------------------------------------------------------------------
 Center     Atomic      Atomic             Coordinates (Angstroms)
 Number     Number       Type             X           Y           Z
 ---------------------------------------------------------------------
      1          6           0       -3.758550    1.761071   -0.376720
      2          6           0       -2.520332    0.926852   -0.134632
      3          6           0       -1.264171    1.429622   -0.412319
      4          6           0       -0.069282    0.687456   -0.240437
      5          6           0        1.206387    1.305567   -0.552773
      6          8           0        1.306972    2.509124   -0.978785
      7          6           0        2.360532    0.453997   -0.337240
      8          6           0        3.656379    0.960938   -0.608374
      9          6           0        4.796757    0.205455   -0.425369
     10          6           0        4.685096   -1.130985    0.052018
     11          6           0        3.438064   -1.653445    0.328863
     12          6           0        2.247387   -0.903830    0.155458
     13          6           0        0.970891   -1.518207    0.466558
     14          8           0        0.870077   -2.721786    0.892517
     15          6           0       -0.181808   -0.663070    0.249908
     16          6           0       -1.480403   -1.161805    0.520023
     17          6           0       -2.633565   -0.423780    0.337399
     18          6           0       -3.986782   -1.004924    0.682275
     19          1           0       -3.488204    2.775729   -0.683147
     20          1           0       -4.403895    1.338876   -1.168150
     21          1           0       -4.391418    1.840578    0.513271
     22          1           0       -1.148987    2.441735   -0.789817
     23          1           0        3.707820    1.982817   -0.971728
     24          1           0        5.776148    0.626901   -0.645143
     25          1           0        5.578787   -1.735211    0.198147
     26          1           0        3.319365   -2.668758    0.694847
     27          1           0       -1.533776   -2.179994    0.894994
     28          1           0       -4.473990   -0.472467    1.519070
     29          1           0       -4.691065   -0.953291   -0.154510
     30          1           0       -3.894433   -2.055164    0.973797
 ---------------------------------------------------------------------

 SCF Done:  E(UB3LYP) =  -767.579014796     a.u. after    1 cycles
 SCF Done:  E(UB3LYP) =  -767.579014796     A.U. after    5 cycles

 Alpha  occ. eigenvalues --  -18.79609 -18.79608  -9.96052  -9.96052  -9.95388
 Alpha  occ. eigenvalues --   -9.95387  -9.94358  -9.94317  -9.94013  -9.93969
 Alpha  occ. eigenvalues --   -9.93179  -9.93177  -9.92551  -9.92550  -9.91696
 Alpha  occ. eigenvalues --   -9.91659  -9.91466  -9.91426  -0.71506  -0.71141
 Alpha  occ. eigenvalues --   -0.61846  -0.60751  -0.55228  -0.53497  -0.51099
 Alpha  occ. eigenvalues --   -0.50669  -0.47350  -0.45411  -0.40867  -0.38330
 Alpha  occ. eigenvalues --   -0.35855  -0.34481  -0.30743  -0.28252  -0.27217
 Alpha  occ. eigenvalues --   -0.24218  -0.22100  -0.21737  -0.21381  -0.20540
 Alpha  occ. eigenvalues --   -0.19232  -0.19137  -0.18304  -0.17843  -0.16779
 Alpha  occ. eigenvalues --   -0.15435  -0.15014  -0.14568  -0.13896  -0.12938
 Alpha  occ. eigenvalues --   -0.11516  -0.10105  -0.09743  -0.09728  -0.07744
 Alpha  occ. eigenvalues --   -0.07512  -0.01476  -0.00170   0.00152   0.00925
 Alpha  occ. eigenvalues --    0.02604   0.03281   0.12534
 Alpha virt. eigenvalues --    0.14039   0.15527   0.15675   0.17303   0.17405
 Alpha virt. eigenvalues --    0.18394   0.19469   0.19766   0.20007   0.20197
 Alpha virt. eigenvalues --    0.20963   0.21178   0.22087   0.23535   0.23709

  Beta  occ. eigenvalues --  -18.79609 -18.79608  -9.96052  -9.96052  -9.95388
  Beta  occ. eigenvalues --   -9.95387  -9.94358  -9.94317  -9.94013  -9.93969
  Beta  occ. eigenvalues --   -9.93179  -9.93177  -9.92551  -9.92550  -9.91696
  Beta  occ. eigenvalues --   -9.91659  -9.91466  -9.91426  -0.71506  -0.71141
  Beta  occ. eigenvalues --   -0.61846  -0.60751  -0.55228  -0.53497  -0.51099
  Beta  occ. eigenvalues --   -0.50669  -0.47350  -0.45411  -0.40867  -0.38330
  Beta  occ. eigenvalues --   -0.35855  -0.34481  -0.30743  -0.28252  -0.27217
  Beta  occ. eigenvalues --   -0.24218  -0.22100  -0.21737  -0.21381  -0.20540
  Beta  occ. eigenvalues --   -0.19232  -0.19137  -0.18304  -0.17843  -0.16779
  Beta  occ. eigenvalues --   -0.15435  -0.15014  -0.14568  -0.13896  -0.12938
  Beta  occ. eigenvalues --   -0.11516  -0.10105  -0.09743  -0.09728  -0.07744
  Beta  occ. eigenvalues --   -0.07512  -0.01476  -0.00170   0.00152   0.00925
  Beta  occ. eigenvalues --    0.02604   0.03281   0.12534
  Beta virt. eigenvalues --    0.14039   0.15527   0.15675   0.17303   0.17405
  Beta virt. eigenvalues --    0.18394   0.19469   0.19766   0.20007   0.20197
  Beta virt. eigenvalues --    0.20963   0.21178   0.22087   0.23535   0.23709

 Mulliken charges and spin densities:
               1          2
     1  C    1.248780   0.000000
     2  C   -1.048526  -0.000000
     3  C    0.076605  -0.000000
     4  C    0.432706  -0.000000
     5  C   -0.998752  -0.000000
     6  O   -0.470853   0.000000
     7  C    0.339072  -0.000000
     8  C    0.014207   0.000000
     9  C   -0.493353  -0.000000
    10  C   -0.493435   0.000000
    11  C    0.014246   0.000000
    12  C    0.339229  -0.000000
    13  C   -0.998806  -0.000000
    14  O   -0.470862   0.000000
    15  C    0.432169   0.000000
    16  C    0.076308   0.000000
    17  C   -1.048165  -0.000000
    18  C    1.246704   0.000000
    19  H   -0.222234  -0.000000
    20  H   -0.155191  -0.000000
    21  H   -0.103443  -0.000000
    22  H    0.171936   0.000000
    23  H    0.129700  -0.000000
    24  H    0.080153   0.000000
    25  H    0.080149  -0.000000
    26  H    0.129698   0.000000
    27  H    0.172040   0.000000
    28  H   -0.154556  -0.000000
    29  H   -0.103417  -0.000000
    30  H   -0.222107  -0.000000
 Sum of Mulliken charges =  -2.00000   0.00000

 Dipole moment (field-independent basis, Debye):
    X=             -1.2361    Y=              0.1199    Z=              0.0507  Tot=              1.2430
 Quadrupole moment (field-independent basis, Debye-Ang):
   XX=           -216.1480   YY=           -167.3513   ZZ=           -130.8148
   XY=              5.4183   XZ=              4.8177   YZ=             14.6581

  Exact polarizability:1965.591 -83.1001314.693 -84.033-294.302 545.638
 Approx polarizability:6900.299-587.5531028.751-272.159-173.273 483.591

                      1                      2                      3
                      A                      A                      A
 Frequencies --     49.1996                74.0387               131.1507
 Red. masses --      5.5240                 3.5561                 3.7817
 Frc consts  --      0.0079                 0.0115                 0.0383
 IR Inten    --      1.5920                 0.3758                 2.2268

                      4                      5                      6
                      A                      A                      A
 Frequencies --    139.7488               159.5767               173.8514
 Red. masses --      5.1996                 1.1306                 4.2498
 Frc consts  --      0.0598                 0.0170                 0.0757
 IR Inten    --      1.7922                 9.7098                 7.5314

                      7                      8                      9
                      A                      A                      A
 Frequencies --    191.6818               227.9686               237.5327
 Red. masses --      3.5723                 1.2077                 3.1391
 Frc consts  --      0.0773                 0.0370                 0.1044
 IR Inten    --      5.1283                 8.8519                 0.5982

                     10                     11                     12
                      A                      A                      A
 Frequencies --    276.4990               283.7184               324.1849
 Red. masses --      5.9349                 2.7714                 4.1613
 Frc consts  --      0.2673                 0.1314                 0.2577
 IR Inten    --      0.9622               104.8942                 5.4787

                     13                     14                     15
                      A                      A                      A
 Frequencies --    335.9855               358.1374               368.0492
 Red. masses --      5.2664                 5.2589                10.2273
 Frc consts  --      0.3503                 0.3974                 0.8163
 IR Inten    --     38.5651                16.4831                22.6489

                     16                     17                     18
                      A                      A                      A
 Frequencies --    413.5966               433.0812               468.6882
 Red. masses --      6.9735                 3.2789                 4.2669
 Frc consts  --      0.7028                 0.3623                 0.5522
 IR Inten    --      4.8814                16.3649                 1.0954

                     19                     20                     21
                      A                      A                      A
 Frequencies --    479.1104               479.9352               531.4418
 Red. masses --      3.4541                 8.4051                 4.9335
 Frc consts  --      0.4672                 1.1407                 0.8210
 IR Inten    --    123.7867               549.6444                 0.0251

                     22                     23                     24
                      A                      A                      A
 Frequencies --    556.1598               615.9526               641.5407
 Red. masses --      4.3445                 6.6638                 4.6807
 Frc consts  --      0.7917                 1.4896                 1.1350
 IR Inten    --     30.6740                 0.0989                13.4287

                     25                     26                     27
                      A                      A                      A
 Frequencies --    661.9026               692.1733               697.8947
 Red. masses --      5.8696                 1.5870                 6.0999
 Frc consts  --      1.5151                 0.4480                 1.7505
 IR Inten    --     35.0574                85.1656                 8.0608

                     28                     29                     30
                      A                      A                      A
 Frequencies --    716.9424               741.9805               743.2343
 Red. masses --      4.0940                 6.5903                 4.3081
 Frc consts  --      1.2398                 2.1377                 1.4021
 IR Inten    --      2.0352                20.4693                12.0326

                     31                     32                     33
                      A                      A                      A
 Frequencies --    760.4444               781.2450               830.4159
 Red. masses --      2.9358                 1.5776                 3.8152
 Frc consts  --      1.0002                 0.5673                 1.5501
 IR Inten    --      3.4804                 1.8361                 0.7792

                     34                     35                     36
                      A                      A                      A
 Frequencies --    878.1000               926.7073               929.6920
 Red. masses --      5.9965                 1.3800                 1.3922
 Frc consts  --      2.7242                 0.6982                 0.7090
 IR Inten    --     12.9247                14.9903                 9.7589

                     37                     38                     39
                      A                      A                      A
 Frequencies --    943.4300               955.6557               961.7637
 Red. masses --      3.3772                 1.2386                 1.3733
 Frc consts  --      1.7711                 0.6665                 0.7484
 IR Inten    --      3.0202                 0.0776                 6.7083

                     40                     41                     42
                      A                      A                      A
 Frequencies --   1005.1454              1017.4665              1017.7601
 Red. masses --      1.8197                 1.6053                 1.6107
 Frc consts  --      1.0832                 0.9791                 0.9830
 IR Inten    --    436.9431                61.3148                63.8851

                     43                     44                     45
                      A                      A                      A
 Frequencies --   1048.4645              1049.3074              1081.4285
 Red. masses --      1.4388                 1.4672                 5.1949
 Frc consts  --      0.9319                 0.9518                 3.5795
 IR Inten    --     17.5856                13.4712                12.1859

                     46                     47                     48
                      A                      A                      A
 Frequencies --   1106.4316              1126.0821              1151.4485
 Red. masses --      2.0673                 1.4109                 1.8328
 Frc consts  --      1.4911                 1.0541                 1.4317
 IR Inten    --     54.6469               111.6769               192.0146

                     49                     50                     51
                      A                      A                      A
 Frequencies --   1183.9335              1210.2980              1211.1225
 Red. masses --      3.7072                 2.7966                 1.8978
 Frc consts  --      3.0616                 2.4136                 1.6401
 IR Inten    --     87.2745               541.3958                 0.8869

                     52                     53                     54
                      A                      A                      A
 Frequencies --   1235.7287              1245.2842              1308.5730
 Red. masses --      4.8300                 1.5559                 2.8499
 Frc consts  --      4.3456                 1.4215                 2.8752
 IR Inten    --    304.3996               113.5083                 3.7787

                     55                     56                     57
                      A                      A                      A
 Frequencies --   1333.1239              1355.7223              1365.0382
 Red. masses --      8.0254                 6.0260                 1.6027
 Frc consts  --      8.4035                 6.5256                 1.7596
 IR Inten    --    792.9540               246.4273               295.5600

                     58                     59                     60
                      A                      A                      A
 Frequencies --   1395.4040              1399.9703              1453.1258
 Red. masses --      1.9721                 1.2598                 3.9105
 Frc consts  --      2.2625                 1.4548                 4.8651
 IR Inten    --   1334.9936               231.1368              1831.5694

                     61                     62                     63
                      A                      A                      A
 Frequencies --   1459.3337              1460.7037              1469.0631
 Red. masses --      2.5306                 2.5860                 1.1546
 Frc consts  --      3.1753                 3.2509                 1.4681
 IR Inten    --     71.1922               310.5570               313.9525

                     64                     65                     66
                      A                      A                      A
 Frequencies --   1484.5139              1485.3715              1489.1317
 Red. masses --      3.8258                 3.0270                 1.5837
 Frc consts  --      4.9676                 3.9349                 2.0691
 IR Inten    --     53.9086               230.8687                32.0386

                     67                     68                     69
                      A                      A                      A
 Frequencies --   1490.8557              1494.7437              1520.0765
 Red. masses --      1.3666                 1.1298                 3.1513
 Frc consts  --      1.7896                 1.4873                 4.2901
 IR Inten    --    847.3200                86.5141                 1.0590

                     70                     71                     72
                      A                      A                      A
 Frequencies --   1558.0042              1585.9631              1617.1923
 Red. masses --      7.1053                 5.3795                 6.0931
 Frc consts  --     10.1618                 7.9721                 9.3888
 IR Inten    --   3660.9403                 0.6925                50.0979

                     73                     74                     75
                      A                      A                      A
 Frequencies --   2910.2625              2910.9381              3021.0198
 Red. masses --      1.0647                 1.0640                 1.0697
 Frc consts  --      5.3131                 5.3122                 5.7521
 IR Inten    --     23.9550               527.6461               424.6190

                     76                     77                     78
                      A                      A                      A
 Frequencies --   3023.1333              3067.9982              3070.1799
 Red. masses --      1.0683                 1.0989                 1.0989
 Frc consts  --      5.7525                 6.0942                 6.1027
 IR Inten    --    527.1325               101.6122               320.7794

                     79                     80                     81
                      A                      A                      A
 Frequencies --   3093.5327              3116.8813              3147.5634
 Red. masses --      1.0826                 1.0904                 1.0882
 Frc consts  --      6.1041                 6.2414                 6.3521
 IR Inten    --     38.1339               320.0150                31.4971

                     82                     83                     84
                      A                      A                      A
 Frequencies --   3149.8641              3157.1767              3159.6597
 Red. masses --      1.0885                 1.0903                 1.0915
 Frc consts  --      6.3628                 6.4030                 6.4206
 IR Inten    --     58.1319                21.7659               228.3463

 - Thermochemistry -
 -------------------
 Temperature   298.150 Kelvin.  Pressure   1.00000 Atm.
 Atom     1 has atomic number  6 and mass  12.00000

 Molecular mass:   236.08373 amu.
 Principal axes and moments of inertia in atomic units:
                           1         2         3
     Eigenvalues --  1957.690816317.404278252.68279
           X            0.99450   0.07814   0.06967
           Y           -0.09708   0.93746   0.33429
           Z           -0.03918  -0.33922   0.93989
 This molecule is an asymmetric top.
 Rotational symmetry number  1.
 Warning -- assumption of classical behavior for rotation
           may cause significant error
 Rotational temperatures (Kelvin)      0.04424     0.01371     0.01050
 Rotational constants (GHZ):           0.92187     0.28568     0.21869
 Zero-point vibrational energy     600623.7 (Joules/Mol)
                                  143.55250 (Kcal/Mol)
 Warning -- explicit consideration of  23 degrees of freedom as
           vibrations may cause significant error
 Vibrational temperatures:     70.79   106.53   188.70   201.07   229.60
          (Kelvin)            250.13   275.79   328.00   341.76   397.82
                              408.21   466.43   483.41   515.28   529.54
                              595.07   623.11   674.34   689.33   690.52
                              764.63   800.19   886.22   923.03   952.33
                              995.88  1004.11  1031.52  1067.54  1069.35
                             1094.11  1124.04  1194.78  1263.39  1333.33
                             1337.62  1357.39  1374.98  1383.76  1446.18
                             1463.91  1464.33  1508.51  1509.72  1555.93
                             1591.91  1620.18  1656.68  1703.42  1741.35
                             1742.54  1777.94  1791.69  1882.74  1918.07
                             1950.58  1963.99  2007.68  2014.25  2090.72
                             2099.66  2101.63  2113.65  2135.88  2137.12
                             2142.53  2145.01  2150.60  2187.05  2241.62
                             2281.85  2326.78  4187.22  4188.19  4346.57
                             4349.61  4414.17  4417.30  4450.90  4484.50
                             4528.64  4531.95  4542.47  4546.05

 Zero-point correction=                           0.228765 (Hartree/Particle)
 Thermal correction to Energy=                    0.243363
 Thermal correction to Enthalpy=                  0.244307
 Thermal correction to Gibbs Free Energy=         0.187895
 Sum of electronic and zero-point Energies=           -767.350249
 Sum of electronic and thermal Energies=              -767.335652
 Sum of electronic and thermal Enthalpies=            -767.334708
 Sum of electronic and thermal Free Energies=         -767.391119

                     E (Thermal)             CV                S
                      KCal/Mol        Cal/Mol-Kelvin    Cal/Mol-Kelvin
 Total                  152.713             58.801            118.728
 Electronic               0.000              0.000              0.000
 Translational            0.889              2.981             42.279
 Rotational               0.889              2.981             32.990
 Vibrational            150.935             52.839             43.460
 Vibration     1          0.595              1.978              4.849
 Vibration     2          0.599              1.966              4.043
 Vibration     3          0.612              1.922              2.929
 Vibration     4          0.615              1.914              2.807
 Vibration     5          0.621              1.892              2.555
 Vibration     6          0.627              1.875              2.393
 Vibration     7          0.634              1.851              2.212
 Vibration     8          0.651              1.798              1.895
 Vibration     9          0.656              1.783              1.821
 Vibration    10          0.678              1.717              1.555
 Vibration    11          0.682              1.704              1.511
 Vibration    12          0.709              1.627              1.289
 Vibration    13          0.717              1.604              1.231
 Vibration    14          0.733              1.559              1.130
 Vibration    15          0.741              1.538              1.088
 Vibration    16          0.777              1.441              0.914
 Vibration    17          0.794              1.398              0.849
 Vibration    18          0.826              1.320              0.741
 Vibration    19          0.836              1.296              0.712
 Vibration    20          0.836              1.295              0.710
 Vibration    21          0.886              1.180              0.584
 Vibration    22          0.912              1.126              0.532
 Vibration    23          0.976              0.998              0.423

 Optimization completed.
    -- Stationary point found.
 Normal termination of Gaussian 16 at Thu Dec 21 15:53:01 2023.
