 Gaussian 16, Revision A.03,
 Gaussian 16:  ES64L-G16RevA.03 25-Dec-2016

 ----------------------------------------------------------------------
 #P UB3LYP/6-311++G(d,p) nosym opt freq SCRF=(PCM,Solvent=n,n-DiMethylF
 ormamide)
 ----------------------------------------------------------------------

 --------
 Oxidized
 --------
 Symbolic Z-matrix:
 Charge =  0 Multiplicity = 1

 SCF Done:  E(UB3LYP) =  -765.373010885     A.U. after   15 cycles
 SCF Done:  E(UB3LYP) =  -765.373118974     A.U. after   13 cycles
 SCF Done:  E(UB3LYP) =  -765.372943245     A.U. after   14 cycles
 SCF Done:  E(UB3LYP) =  -765.373215159     A.U. after   13 cycles
 SCF Done:  E(UB3LYP) =  -765.373250542     A.U. after   12 cycles
 SCF Done:  E(UB3LYP) =  -765.373258759     A.U. after   13 cycles
 SCF Done:  E(UB3LYP) =  -765.373274973     A.U. after   13 cycles
 SCF Done:  E(UB3LYP) =  -765.373283981     A.U. after   12 cycles
 SCF Done:  E(UB3LYP) =  -765.373290026     A.U. after   13 cycles
 SCF Done:  E(UB3LYP) =  -765.373293040     A.U. after   13 cycles
 SCF Done:  E(UB3LYP) =  -765.373041940     A.U. after   14 cycles
 SCF Done:  E(UB3LYP) =  -765.373427561     A.U. after   14 cycles
 SCF Done:  E(UB3LYP) =  -765.373448913     A.U. after   14 cycles
 SCF Done:  E(UB3LYP) =  -765.373453466     A.U. after   13 cycles
 SCF Done:  E(UB3LYP) =  -765.373455450     A.U. after   11 cycles
 SCF Done:  E(UB3LYP) =  -765.373455866     A.U. after   10 cycles
 SCF Done:  E(UB3LYP) =  -765.373456203     A.U. after   10 cycles
 SCF Done:  E(UB3LYP) =  -765.373456315     A.U. after   10 cycles
 SCF Done:  E(UB3LYP) =  -765.373456344     A.U. after    8 cycles
 Optimization completed.
    -- Stationary point found.
 Normal termination of Gaussian 16 at Sat Feb 10 11:59:22 2024.

 ----------------------------------------------------------------------
 #P Geom=AllCheck Guess=TCheck SCRF=Check GenChk UB3LYP/6-311++G(d,p) F
 req
 ----------------------------------------------------------------------

 Structure from the checkpoint file:  "080.chk"
 --------
 Oxidized
 --------
 Charge =  0 Multiplicity = 1

                          Input orientation:
 ---------------------------------------------------------------------
 Center     Atomic      Atomic             Coordinates (Angstroms)
 Number     Number       Type             X           Y           Z
 ---------------------------------------------------------------------
      1          6           0        1.231440    1.849945   -2.267284
      2          6           0       -0.228407    1.989230   -2.413401
      3          6           0       -1.093312    0.996666   -2.135337
      4          6           0       -0.552488   -0.314196   -1.657122
      5          6           0        0.915160   -0.464935   -1.507879
      6          8           0        1.989145    2.767768   -2.550967
      7          8           0       -1.296285   -1.248918   -1.396465
      8          1           0       -0.568451    2.955892   -2.769483
      9          6           0        1.761787    0.538279   -1.777884
     10          6           0        3.248499    0.441835   -1.509452
     11          6           0        4.111505   -0.332779   -2.432946
     12          6           0        5.468982   -0.497289   -2.109272
     13          6           0        3.614753   -0.882551   -3.624243
     14          6           0        6.309251   -1.202833   -2.959302
     15          6           0        5.806748   -1.746829   -4.145545
     16          6           0        4.462471   -1.584414   -4.477551
     17          8           0        3.678736    1.013642   -0.520682
     18          1           0        5.845589   -0.067744   -1.189332
     19          1           0        2.572418   -0.760560   -3.890532
     20          1           0        7.354578   -1.331037   -2.704127
     21          1           0        6.464958   -2.295748   -4.809260
     22          1           0        4.074583   -2.003529   -5.398279
     23          6           0       -2.577079    1.119361   -2.280816
     24          1           0        1.253865   -1.434403   -1.158347
     25          1           0       -2.853134    2.110627   -2.639633
     26          1           0       -3.072465    0.936170   -1.323178
     27          1           0       -2.957199    0.368626   -2.979192
 ---------------------------------------------------------------------

 SCF Done:  E(UB3LYP) =  -765.373456344     A.U. after    2 cycles

 Alpha  occ. eigenvalues --  -19.15016 -19.14874 -19.14060 -10.29675 -10.29426
 Alpha  occ. eigenvalues --  -10.29347 -10.23054 -10.22721 -10.22194 -10.20979
 Alpha  occ. eigenvalues --  -10.20556 -10.20107 -10.19798 -10.19728 -10.19304
 Alpha  occ. eigenvalues --  -10.19289 -10.18181  -1.08148  -1.07863  -1.07040
 Alpha  occ. eigenvalues --   -0.88336  -0.87578  -0.82555  -0.78334  -0.76963
 Alpha  occ. eigenvalues --   -0.73794  -0.71621  -0.66193  -0.64034  -0.62916
 Alpha  occ. eigenvalues --   -0.61014  -0.57062  -0.54441  -0.53802  -0.50734
 Alpha  occ. eigenvalues --   -0.49348  -0.48172  -0.47991  -0.46711  -0.45915
 Alpha  occ. eigenvalues --   -0.45496  -0.44871  -0.44566  -0.44289  -0.43075
 Alpha  occ. eigenvalues --   -0.41971  -0.41426  -0.41256  -0.39741  -0.38111
 Alpha  occ. eigenvalues --   -0.37904  -0.36428  -0.32091  -0.30412  -0.29991
 Alpha  occ. eigenvalues --   -0.29582  -0.28055  -0.27726  -0.27517
 Alpha virt. eigenvalues --   -0.14279  -0.08966  -0.03930  -0.02968  -0.01199
 Alpha virt. eigenvalues --   -0.00776  -0.00026   0.01201   0.01296   0.01333
 Alpha virt. eigenvalues --    0.01626   0.02844   0.03273   0.03514   0.04242

  Beta  occ. eigenvalues --  -19.15016 -19.14874 -19.14060 -10.29675 -10.29426
  Beta  occ. eigenvalues --  -10.29347 -10.23054 -10.22721 -10.22194 -10.20979
  Beta  occ. eigenvalues --  -10.20556 -10.20107 -10.19798 -10.19728 -10.19304
  Beta  occ. eigenvalues --  -10.19289 -10.18181  -1.08148  -1.07863  -1.07040
  Beta  occ. eigenvalues --   -0.88336  -0.87578  -0.82555  -0.78334  -0.76963
  Beta  occ. eigenvalues --   -0.73794  -0.71621  -0.66193  -0.64034  -0.62916
  Beta  occ. eigenvalues --   -0.61014  -0.57062  -0.54441  -0.53802  -0.50734
  Beta  occ. eigenvalues --   -0.49348  -0.48172  -0.47991  -0.46711  -0.45915
  Beta  occ. eigenvalues --   -0.45496  -0.44871  -0.44566  -0.44289  -0.43075
  Beta  occ. eigenvalues --   -0.41971  -0.41426  -0.41256  -0.39741  -0.38111
  Beta  occ. eigenvalues --   -0.37904  -0.36428  -0.32091  -0.30412  -0.29991
  Beta  occ. eigenvalues --   -0.29582  -0.28055  -0.27726  -0.27517
  Beta virt. eigenvalues --   -0.14279  -0.08966  -0.03930  -0.02968  -0.01199
  Beta virt. eigenvalues --   -0.00776  -0.00026   0.01201   0.01296   0.01333
  Beta virt. eigenvalues --    0.01626   0.02844   0.03273   0.03514   0.04242

 Mulliken charges and spin densities:
               1          2
     1  C   -0.546651  -0.000000
     2  C   -0.446010   0.000000
     3  C    1.047225  -0.000000
     4  C   -1.060395   0.000000
     5  C    0.197255  -0.000000
     6  O   -0.262128   0.000000
     7  O   -0.260123  -0.000000
     8  H    0.234422   0.000000
     9  C    0.910466   0.000000
    10  C   -0.281133   0.000000
    11  C    0.650823  -0.000000
    12  C    0.380018  -0.000000
    13  C   -0.798705   0.000000
    14  C   -0.386521   0.000000
    15  C   -0.267969   0.000000
    16  C   -0.206378   0.000000
    17  O   -0.263669  -0.000000
    18  H    0.213374  -0.000000
    19  H    0.177116  -0.000000
    20  H    0.207121  -0.000000
    21  H    0.190762   0.000000
    22  H    0.221568  -0.000000
    23  C   -0.470675  -0.000000
    24  H    0.262613  -0.000000
    25  H    0.172403   0.000000
    26  H    0.193162  -0.000000
    27  H    0.192030   0.000000
 Sum of Mulliken charges =  -0.00000  -0.00000

 Dipole moment (field-independent basis, Debye):
    X=             -0.9798    Y=             -2.7405    Z=             -3.8603  Tot=              4.8345
 Quadrupole moment (field-independent basis, Debye-Ang):
   XX=            -86.1326   YY=           -107.5291   ZZ=            -80.5376
   XY=            -28.0904   XZ=             -8.5941   YZ=              9.6677

  Exact polarizability: 293.845  18.563 225.239 -17.307  15.949 192.595
 Approx polarizability: 329.953  56.249 289.246 -18.677  17.449 235.204

                      1                      2                      3
                      A                      A                      A
 Frequencies --     15.3643                43.9206                45.7235
 Red. masses --      6.5300                 4.2103                 4.7158
 Frc consts  --      0.0009                 0.0048                 0.0058
 IR Inten    --      2.4687                 2.6998                 1.6766

                      4                      5                      6
                      A                      A                      A
 Frequencies --     79.7258               132.1707               139.2517
 Red. masses --      8.9369                 3.5406                 1.6070
 Frc consts  --      0.0335                 0.0364                 0.0184
 IR Inten    --      9.9574                 2.4213                 0.9686

                      7                      8                      9
                      A                      A                      A
 Frequencies --    168.9882               177.1756               182.3272
 Red. masses --      4.6301                 4.9060                 2.8135
 Frc consts  --      0.0779                 0.0907                 0.0551
 IR Inten    --      3.7821                 5.5327                 0.2220

                     10                     11                     12
                      A                      A                      A
 Frequencies --    243.8517               282.0610               292.4600
 Red. masses --      5.5773                 6.1466                 3.7240
 Frc consts  --      0.1954                 0.2881                 0.1877
 IR Inten    --      2.1659                12.6786                 3.0881

                     13                     14                     15
                      A                      A                      A
 Frequencies --    383.6547               399.4776               412.3699
 Red. masses --      3.3737                 8.5034                 2.8759
 Frc consts  --      0.2926                 0.7995                 0.2881
 IR Inten    --      2.1874                32.5977                 0.2359

                     16                     17                     18
                      A                      A                      A
 Frequencies --    415.1308               438.9128               474.4013
 Red. masses --      6.2613                 3.7630                11.2253
 Frc consts  --      0.6357                 0.4271                 1.4885
 IR Inten    --      0.2484                 2.4679                10.1708

                     19                     20                     21
                      A                      A                      A
 Frequencies --    527.9658               546.8764               600.0837
 Red. masses --      6.0026                 5.7141                 5.0303
 Frc consts  --      0.9858                 1.0069                 1.0672
 IR Inten    --      9.0744                28.5302                28.6162

                     22                     23                     24
                      A                      A                      A
 Frequencies --    628.6786               669.8349               696.4492
 Red. masses --      6.4385                 6.1150                 3.6416
 Frc consts  --      1.4993                 1.6165                 1.0407
 IR Inten    --      1.2047                 8.4411                16.0779

                     25                     26                     27
                      A                      A                      A
 Frequencies --    700.5075               709.7724               729.3662
 Red. masses --      2.4181                 5.0222                 2.7343
 Frc consts  --      0.6991                 1.4907                 0.8570
 IR Inten    --     61.8721                 6.7326                29.2231

                     28                     29                     30
                      A                      A                      A
 Frequencies --    784.0202               798.3924               845.7869
 Red. masses --      2.5573                 3.4289                 4.1468
 Frc consts  --      0.9262                 1.2878                 1.7478
 IR Inten    --     43.9651                 4.3751                23.2020

                     31                     32                     33
                      A                      A                      A
 Frequencies --    862.9235               873.4245               907.3866
 Red. masses --      1.2580                 2.1180                 2.4633
 Frc consts  --      0.5519                 0.9520                 1.1950
 IR Inten    --      0.4485                48.1040                78.4757

                     34                     35                     36
                      A                      A                      A
 Frequencies --    948.4378               965.1787              1007.2469
 Red. masses --      1.5906                 1.4365                 1.3816
 Frc consts  --      0.8430                 0.7885                 0.8259
 IR Inten    --     47.0032                 2.4976                 0.3424

                     37                     38                     39
                      A                      A                      A
 Frequencies --   1013.5570              1019.0817              1025.3221
 Red. masses --      6.1283                 1.6920                 1.3213
 Frc consts  --      3.7093                 1.0353                 0.8184
 IR Inten    --      6.0597                67.1192                 0.2305

                     40                     41                     42
                      A                      A                      A
 Frequencies --   1041.8971              1057.1990              1077.1863
 Red. masses --      2.3876                 1.5493                 4.1417
 Frc consts  --      1.5271                 1.0202                 2.8314
 IR Inten    --     11.8464                 4.8682                23.0339

                     43                     44                     45
                      A                      A                      A
 Frequencies --   1106.4040              1147.9771              1180.8884
 Red. masses --      1.5866                 3.0295                 1.1121
 Frc consts  --      1.1443                 2.3522                 0.9137
 IR Inten    --      5.4338               124.6277                 3.2712

                     46                     47                     48
                      A                      A                      A
 Frequencies --   1196.0977              1231.7419              1246.3435
 Red. masses --      1.1677                 1.9645                 3.1441
 Frc consts  --      0.9842                 1.7561                 2.8775
 IR Inten    --     32.9549                45.4048               181.2264

                     49                     50                     51
                      A                      A                      A
 Frequencies --   1273.3295              1337.3014              1351.0173
 Red. masses --      3.1465                 2.7927                 2.4276
 Frc consts  --      3.0058                 2.9427                 2.6106
 IR Inten    --    304.0019                15.6608                80.5124

                     52                     53                     54
                      A                      A                      A
 Frequencies --   1354.5175              1368.0972              1409.0201
 Red. masses --      1.9661                 2.6139                 1.3109
 Frc consts  --      2.1253                 2.8826                 1.5334
 IR Inten    --    102.2367                 7.5092                19.2957

                     55                     56                     57
                      A                      A                      A
 Frequencies --   1458.7436              1469.8493              1476.0788
 Red. masses --      1.0426                 1.0732                 2.2054
 Frc consts  --      1.3071                 1.3661                 2.8312
 IR Inten    --     14.5383                26.8896                36.6983

                     58                     59                     60
                      A                      A                      A
 Frequencies --   1517.5976              1612.6113              1629.2059
 Red. masses --      2.1513                 5.3784                 5.5693
 Frc consts  --      2.9192                 8.2406                 8.7097
 IR Inten    --      6.5253                41.1964               140.5376

                     61                     62                     63
                      A                      A                      A
 Frequencies --   1653.3473              1675.8346              1685.3164
 Red. masses --      7.9870                11.6586                10.9302
 Frc consts  --     12.8636                19.2912                18.2911
 IR Inten    --     93.7368               174.2768               620.7241

                     64                     65                     66
                      A                      A                      A
 Frequencies --   1702.8255              1713.7925              3036.7233
 Red. masses --     11.0077                 9.3871                 1.0367
 Frc consts  --     18.8057                16.2442                 5.6329
 IR Inten    --    774.2340               110.5268                 7.9714

                     67                     68                     69
                      A                      A                      A
 Frequencies --   3087.2161              3129.0970              3173.7520
 Red. masses --      1.0992                 1.1024                 1.0867
 Frc consts  --      6.1723                 6.3595                 6.4491
 IR Inten    --      9.0980                14.7658                 0.3679

                     70                     71                     72
                      A                      A                      A
 Frequencies --   3178.0544              3181.1625              3183.5887
 Red. masses --      1.0923                 1.0929                 1.0891
 Frc consts  --      6.5001                 6.5165                 6.5033
 IR Inten    --      5.4683                 0.3939                 7.4588

                     73                     74                     75
                      A                      A                      A
 Frequencies --   3190.9583              3199.9903              3202.5530
 Red. masses --      1.0925                 1.0934                 1.0968
 Frc consts  --      6.5540                 6.5966                 6.6276
 IR Inten    --     16.6871                15.8145                 8.3125

 - Thermochemistry -
 -------------------
 Temperature   298.150 Kelvin.  Pressure   1.00000 Atm.
 Atom     1 has atomic number  6 and mass  12.00000

 Molecular mass:   226.06299 amu.
 Principal axes and moments of inertia in atomic units:
                           1         2         3
     Eigenvalues --  1815.065846854.207457429.55711
           X            0.95079   0.30035   0.07604
           Y           -0.25710   0.90182  -0.34731
           Z           -0.17289   0.31067   0.93466
 This molecule is an asymmetric top.
 Rotational symmetry number  1.
 Warning -- assumption of classical behavior for rotation
           may cause significant error
 Rotational temperatures (Kelvin)      0.04772     0.01264     0.01166
 Rotational constants (GHZ):           0.99431     0.26330     0.24291
 Zero-point vibrational energy     530690.8 (Joules/Mol)
                                  126.83815 (Kcal/Mol)
 Warning -- explicit consideration of  21 degrees of freedom as
           vibrations may cause significant error
 Vibrational temperatures:     22.11    63.19    65.79   114.71   190.16
          (Kelvin)            200.35   243.14   254.92   262.33   350.85
                              405.82   420.78   551.99   574.76   593.31
                              597.28   631.50   682.56   759.63   786.83
                              863.39   904.53   963.74  1002.04  1007.87
                             1021.20  1049.40  1128.03  1148.71  1216.90
                             1241.55  1256.66  1305.53  1364.59  1388.68
                             1449.20  1458.28  1466.23  1475.21  1499.06
                             1521.07  1549.83  1591.87  1651.68  1699.04
                             1720.92  1772.20  1793.21  1832.04  1924.08
                             1943.81  1948.85  1968.39  2027.27  2098.81
                             2114.79  2123.75  2183.48  2320.19  2344.06
                             2378.80  2411.15  2424.79  2449.99  2465.77
                             4369.17  4441.82  4502.07  4566.32  4572.51
                             4576.98  4580.47  4591.08  4604.07  4607.76

 Zero-point correction=                           0.202129 (Hartree/Particle)
 Thermal correction to Energy=                    0.216766
 Thermal correction to Enthalpy=                  0.217711
 Thermal correction to Gibbs Free Energy=         0.158320
 Sum of electronic and zero-point Energies=           -765.171327
 Sum of electronic and thermal Energies=              -765.156690
 Sum of electronic and thermal Enthalpies=            -765.155746
 Sum of electronic and thermal Free Energies=         -765.215136

                     E (Thermal)             CV                S
                      KCal/Mol        Cal/Mol-Kelvin    Cal/Mol-Kelvin
 Total                  136.023             54.923            124.997
 Electronic               0.000              0.000              0.000
 Translational            0.889              2.981             42.149
 Rotational               0.889              2.981             32.891
 Vibrational            134.246             48.962             49.957
 Vibration     1          0.593              1.986              7.158
 Vibration     2          0.595              1.980              5.074
 Vibration     3          0.595              1.979              4.994
 Vibration     4          0.600              1.963              3.898
 Vibration     5          0.612              1.921              2.914
 Vibration     6          0.615              1.914              2.814
 Vibration     7          0.625              1.881              2.447
 Vibration     8          0.628              1.870              2.358
 Vibration     9          0.630              1.864              2.304
 Vibration    10          0.659              1.773              1.775
 Vibration    11          0.681              1.707              1.521
 Vibration    12          0.688              1.688              1.460
 Vibration    13          0.753              1.505              1.025
 Vibration    14          0.766              1.471              0.965
 Vibration    15          0.776              1.443              0.918
 Vibration    16          0.779              1.437              0.909
 Vibration    17          0.799              1.385              0.830
 Vibration    18          0.831              1.307              0.725
 Vibration    19          0.883              1.188              0.592
 Vibration    20          0.902              1.147              0.551
 Vibration    21          0.958              1.032              0.450

                           ! Non-Optimized Parameters !
 Normal termination of Gaussian 16 at Sat Feb 10 12:33:49 2024.
