 Gaussian 16, Revision A.03,
 Gaussian 16:  ES64L-G16RevA.03 25-Dec-2016

 ----------------------------------------------------------------------
 #P UB3LYP/6-311++G(d,p) nosym opt freq SCRF=(PCM,Solvent=n,n-DiMethylF
 ormamide)
 ----------------------------------------------------------------------

 -------
 Reduced
 -------
 Symbolic Z-matrix:
 Charge = -2 Multiplicity = 1

 SCF Done:  E(UB3LYP) =  -994.151522843     A.U. after   17 cycles
 SCF Done:  E(UB3LYP) =  -994.152366018     A.U. after   14 cycles
 SCF Done:  E(UB3LYP) =  -994.151941244     A.U. after   15 cycles
 SCF Done:  E(UB3LYP) =  -994.152573559     A.U. after   15 cycles
 SCF Done:  E(UB3LYP) =  -994.152699921     A.U. after   14 cycles
 SCF Done:  E(UB3LYP) =  -994.152817296     A.U. after   13 cycles
 SCF Done:  E(UB3LYP) =  -994.152872272     A.U. after   14 cycles
 SCF Done:  E(UB3LYP) =  -994.152896193     A.U. after   11 cycles
 SCF Done:  E(UB3LYP) =  -994.152908056     A.U. after   12 cycles
 SCF Done:  E(UB3LYP) =  -994.152918258     A.U. after   12 cycles
 SCF Done:  E(UB3LYP) =  -994.155431565     A.U. after   14 cycles
 SCF Done:  E(UB3LYP) =  -994.155523603     A.U. after   14 cycles
 SCF Done:  E(UB3LYP) =  -994.155539184     A.U. after   14 cycles
 SCF Done:  E(UB3LYP) =  -994.155535423     A.U. after   15 cycles
 SCF Done:  E(UB3LYP) =  -994.155632554     A.U. after   14 cycles
 SCF Done:  E(UB3LYP) =  -994.155634588     A.U. after   12 cycles
 SCF Done:  E(UB3LYP) =  -994.155634732     A.U. after   11 cycles
 SCF Done:  E(UB3LYP) =  -994.155635006     A.U. after   11 cycles
 SCF Done:  E(UB3LYP) =  -994.155635034     A.U. after    9 cycles
 Optimization completed.
    -- Stationary point found.
 Normal termination of Gaussian 16 at Sat Feb 10 11:08:25 2024.

 ----------------------------------------------------------------------
 #P Geom=AllCheck Guess=TCheck SCRF=Check GenChk UB3LYP/6-311++G(d,p) F
 req
 ----------------------------------------------------------------------

 Structure from the checkpoint file:  "060-an.chk"
 -------
 Reduced
 -------
 Charge = -2 Multiplicity = 1

                          Input orientation:
 ---------------------------------------------------------------------
 Center     Atomic      Atomic             Coordinates (Angstroms)
 Number     Number       Type             X           Y           Z
 ---------------------------------------------------------------------
      1          6           0       -0.223502    0.987690    0.315137
      2          6           0       -1.380032    0.259356   -0.122971
      3          6           0       -1.318384   -1.029416   -0.599670
      4          6           0       -0.107694   -1.802138   -0.688039
      5          6           0        1.027193   -1.082030   -0.255823
      6          6           0        1.023348    0.254683    0.255418
      7          8           0       -0.314594    2.228429    0.665397
      8          8           0       -0.118483   -3.036634   -1.098845
      9          6           0        2.258005    0.960688    0.630701
     10          6           0        2.262911    1.844504    1.869346
     11          8           0        3.324331    0.840710    0.012530
     12          1           0        3.065193    1.481377    2.521558
     13          1           0        1.313290    1.847085    2.397355
     14          1           0        2.508641    2.873854    1.591622
     15          1           0       -2.230505   -1.530181   -0.917988
     16         17           0        2.539953   -2.052717   -0.186947
     17          1           0       -2.333240    0.781357   -0.086380
 ---------------------------------------------------------------------

 SCF Done:  E(UB3LYP) =  -994.155635034     A.U. after    1 cycles

 Alpha  occ. eigenvalues -- -101.51948 -19.08277 -19.02820 -19.02045 -10.23542
 Alpha  occ. eigenvalues --  -10.19149 -10.18587 -10.18264 -10.14605 -10.14465
 Alpha  occ. eigenvalues --  -10.14284 -10.13563  -9.43404  -7.19797  -7.18956
 Alpha  occ. eigenvalues --   -7.18865  -1.01055  -0.94419  -0.93332  -0.83011
 Alpha  occ. eigenvalues --   -0.78136  -0.73377  -0.69543  -0.65760  -0.59516
 Alpha  occ. eigenvalues --   -0.54005  -0.50618  -0.45488  -0.44381  -0.43208
 Alpha  occ. eigenvalues --   -0.42075  -0.40285  -0.39545  -0.37918  -0.36846
 Alpha  occ. eigenvalues --   -0.36515  -0.34627  -0.33895  -0.33097  -0.32562
 Alpha  occ. eigenvalues --   -0.30318  -0.28558  -0.23392  -0.23328  -0.22041
 Alpha  occ. eigenvalues --   -0.20370  -0.20159  -0.13259
 Alpha virt. eigenvalues --   -0.03003   0.00327   0.01433   0.01731   0.03047
 Alpha virt. eigenvalues --    0.03227   0.03726   0.04471   0.05052   0.06483
 Alpha virt. eigenvalues --    0.06643   0.07151   0.07595   0.07828   0.08177

  Beta  occ. eigenvalues -- -101.51948 -19.08277 -19.02820 -19.02045 -10.23542
  Beta  occ. eigenvalues --  -10.19149 -10.18587 -10.18264 -10.14605 -10.14465
  Beta  occ. eigenvalues --  -10.14284 -10.13563  -9.43404  -7.19797  -7.18956
  Beta  occ. eigenvalues --   -7.18865  -1.01055  -0.94419  -0.93332  -0.83011
  Beta  occ. eigenvalues --   -0.78136  -0.73377  -0.69543  -0.65760  -0.59516
  Beta  occ. eigenvalues --   -0.54005  -0.50618  -0.45488  -0.44381  -0.43208
  Beta  occ. eigenvalues --   -0.42075  -0.40285  -0.39545  -0.37918  -0.36846
  Beta  occ. eigenvalues --   -0.36515  -0.34627  -0.33895  -0.33097  -0.32562
  Beta  occ. eigenvalues --   -0.30318  -0.28558  -0.23392  -0.23328  -0.22041
  Beta  occ. eigenvalues --   -0.20370  -0.20159  -0.13259
  Beta virt. eigenvalues --   -0.03003   0.00327   0.01433   0.01731   0.03047
  Beta virt. eigenvalues --    0.03227   0.03726   0.04471   0.05052   0.06483
  Beta virt. eigenvalues --    0.06643   0.07151   0.07595   0.07828   0.08177

 Mulliken charges and spin densities:
               1          2
     1  C   -1.212059  -0.000000
     2  C    0.133328   0.000000
     3  C   -0.141965  -0.000000
     4  C   -0.824497   0.000000
     5  C    0.380330  -0.000000
     6  C    1.374492   0.000000
     7  O   -0.611534  -0.000000
     8  O   -0.669621  -0.000000
     9  C   -0.456891   0.000000
    10  C   -0.601944  -0.000000
    11  O   -0.376835   0.000000
    12  H    0.158630  -0.000000
    13  H    0.161957   0.000000
    14  H    0.165101   0.000000
    15  H    0.160456  -0.000000
    16  Cl   0.202965   0.000000
    17  H    0.158086   0.000000
 Sum of Mulliken charges =  -2.00000   0.00000

 Dipole moment (field-independent basis, Debye):
    X=             -7.2900    Y=              5.5782    Z=              3.2932  Tot=              9.7522
 Quadrupole moment (field-independent basis, Debye-Ang):
   XX=           -113.8234   YY=           -141.1604   ZZ=            -89.1035
   XY=              3.6861   XZ=              4.2230   YZ=            -16.7103

  Exact polarizability: 271.418  -0.047 227.140  20.260  41.915 136.018
 Approx polarizability: 309.084  -4.916 249.461  16.370  44.531 147.183

                      1                      2                      3
                      A                      A                      A
 Frequencies --     38.9215                70.6316               121.2623
 Red. masses --      2.8634                 9.1692                 5.1996
 Frc consts  --      0.0026                 0.0270                 0.0450
 IR Inten    --     16.1247                 6.9166                19.1762

                      4                      5                      6
                      A                      A                      A
 Frequencies --    161.6752               192.7030               205.3623
 Red. masses --      1.5910                 5.1240                 6.4574
 Frc consts  --      0.0245                 0.1121                 0.1605
 IR Inten    --      6.6320                 0.3744                20.8998

                      7                      8                      9
                      A                      A                      A
 Frequencies --    259.7955               322.0389               327.5318
 Red. masses --      7.5397                 7.4540                 8.7240
 Frc consts  --      0.2998                 0.4555                 0.5514
 IR Inten    --      3.4966                11.2691                 8.5082

                     10                     11                     12
                      A                      A                      A
 Frequencies --    332.8877               385.4056               453.0138
 Red. masses --     13.4048                 4.5661                 6.4262
 Frc consts  --      0.8752                 0.3996                 0.7770
 IR Inten    --      1.7394                 2.7508                 6.8095

                     13                     14                     15
                      A                      A                      A
 Frequencies --    475.5686               519.7211               583.1687
 Red. masses --      8.5766                 7.3141                 3.9839
 Frc consts  --      1.1429                 1.1640                 0.7983
 IR Inten    --     17.4107                19.0991                59.4200

                     16                     17                     18
                      A                      A                      A
 Frequencies --    591.5566               623.6292               648.4520
 Red. masses --      3.4089                 3.8528                 2.8297
 Frc consts  --      0.7028                 0.8828                 0.7010
 IR Inten    --     46.3936                 2.4123                20.9127

                     19                     20                     21
                      A                      A                      A
 Frequencies --    732.1404               750.7381               825.8885
 Red. masses --      7.1835                 5.6683                 2.0075
 Frc consts  --      2.2687                 1.8823                 0.8067
 IR Inten    --     18.3035                 6.6859                80.3666

                     22                     23                     24
                      A                      A                      A
 Frequencies --    849.5336               919.9808               941.1807
 Red. masses --      8.2880                 6.3512                 1.3285
 Frc consts  --      3.5242                 3.1671                 0.6933
 IR Inten    --    313.0314                24.6722                17.2330

                     25                     26                     27
                      A                      A                      A
 Frequencies --   1009.1732              1023.1638              1091.5494
 Red. masses --      1.8064                 1.8745                 3.3893
 Frc consts  --      1.0839                 1.1562                 2.3793
 IR Inten    --    155.6409                24.9849                41.9023

                     28                     29                     30
                      A                      A                      A
 Frequencies --   1116.5524              1174.9527              1226.5474
 Red. masses --      1.7272                 2.2610                 6.4176
 Frc consts  --      1.2686                 1.8390                 5.6884
 IR Inten    --     30.2341               683.0459                47.7271

                     31                     32                     33
                      A                      A                      A
 Frequencies --   1297.7818              1327.5841              1373.4655
 Red. masses --      2.9092                 4.4469                 1.2590
 Frc consts  --      2.8869                 4.6178                 1.3993
 IR Inten    --    227.1717               591.9283                59.1696

                     34                     35                     36
                      A                      A                      A
 Frequencies --   1402.0492              1416.4935              1444.1656
 Red. masses --      8.4856                 5.5546                 1.0761
 Frc consts  --      9.8278                 6.5665                 1.3223
 IR Inten    --    551.0909              1024.7446                41.7585

                     37                     38                     39
                      A                      A                      A
 Frequencies --   1468.3469              1481.5114              1599.7096
 Red. masses --      1.1734                 3.1198                 8.6520
 Frc consts  --      1.4906                 4.0345                13.0451
 IR Inten    --     75.6636               679.1190               834.5398

                     40                     41                     42
                      A                      A                      A
 Frequencies --   1621.1689              3017.5185              3070.2334
 Red. masses --      8.2013                 1.0410                 1.0986
 Frc consts  --     12.6996                 5.5845                 6.1014
 IR Inten    --    233.7301                68.6084                31.2644

                     43                     44                     45
                      A                      A                      A
 Frequencies --   3117.8119              3140.1981              3153.6646
 Red. masses --      1.0847                 1.0939                 1.0974
 Frc consts  --      6.2125                 6.3554                 6.4303
 IR Inten    --     46.8603                98.5248                20.5654

 - Thermochemistry -
 -------------------
 Temperature   298.150 Kelvin.  Pressure   1.00000 Atm.
 Atom     1 has atomic number  6 and mass  12.00000

 Molecular mass:   183.99272 amu.
 Principal axes and moments of inertia in atomic units:
                           1         2         3
     Eigenvalues --  1679.799002197.201603723.89354
           X            0.24381   0.95897  -0.14472
           Y            0.89474  -0.27998  -0.34791
           Z            0.37415   0.04466   0.92629
 This molecule is an asymmetric top.
 Rotational symmetry number  1.
 Warning -- assumption of classical behavior for rotation
           may cause significant error
 Rotational temperatures (Kelvin)      0.05156     0.03942     0.02326
 Rotational constants (GHZ):           1.07438     0.82138     0.48464
 Zero-point vibrational energy     286544.1 (Joules/Mol)
                                   68.48568 (Kcal/Mol)
 Warning -- explicit consideration of  16 degrees of freedom as
           vibrations may cause significant error
 Vibrational temperatures:     56.00   101.62   174.47   232.61   277.26
          (Kelvin)            295.47   373.79   463.34   471.25   478.95
                              554.51   651.79   684.24   747.76   839.05
                              851.12   897.26   932.98  1053.39  1080.14
                             1188.27  1222.29  1323.65  1354.15  1451.98
                             1472.10  1570.50  1606.47  1690.49  1764.73
                             1867.22  1910.10  1976.11  2017.24  2038.02
                             2077.83  2112.62  2131.56  2301.63  2332.50
                             4341.54  4417.38  4485.84  4518.04  4537.42

 Zero-point correction=                           0.109139 (Hartree/Particle)
 Thermal correction to Energy=                    0.119999
 Thermal correction to Enthalpy=                  0.120943
 Thermal correction to Gibbs Free Energy=         0.071579
 Sum of electronic and zero-point Energies=           -994.046496
 Sum of electronic and thermal Energies=              -994.035636
 Sum of electronic and thermal Enthalpies=            -994.034692
 Sum of electronic and thermal Free Energies=         -994.084056

                     E (Thermal)             CV                S
                      KCal/Mol        Cal/Mol-Kelvin    Cal/Mol-Kelvin
 Total                   75.301             39.669            103.895
 Electronic               0.000              0.000              0.000
 Translational            0.889              2.981             41.535
 Rotational               0.889              2.981             30.997
 Vibrational             73.523             33.707             31.362
 Vibration     1          0.594              1.981              5.313
 Vibration     2          0.598              1.968              4.136
 Vibration     3          0.609              1.931              3.080
 Vibration     4          0.622              1.889              2.530
 Vibration     5          0.635              1.850              2.202
 Vibration     6          0.640              1.832              2.085
 Vibration     7          0.668              1.746              1.663
 Vibration     8          0.707              1.631              1.300
 Vibration     9          0.711              1.620              1.272
 Vibration    10          0.715              1.610              1.246
 Vibration    11          0.754              1.501              1.018
 Vibration    12          0.812              1.354              0.787
 Vibration    13          0.832              1.304              0.722
 Vibration    14          0.875              1.206              0.611
 Vibration    15          0.940              1.068              0.480
 Vibration    16          0.949              1.050              0.464

 Optimization completed.
    -- Stationary point found.
 Normal termination of Gaussian 16 at Sat Feb 10 11:16:00 2024.
