 Q-Chem 5.4, Q-Chem, Inc., Pleasanton, CA (2021)
 Q-Chem 5.4.0 for Intel X86 EM64T Linux

User input:
--------------------------------------------------------------
$molecule
-1 2
C                 -1.0894580000      0.7787010000     -3.0714360000
C                 -1.9200780000      1.0754730000     -1.9162290000
C                  0.3170340000      0.6433310000     -2.7308980000
C                  0.7607990000      0.4796370000     -1.4454480000
C                 -0.2073770000      0.2485320000     -0.3680110000
C                 -1.4886930000      0.9142270000     -0.6262470000
C                  0.0591110000     -0.5496940000      0.7872880000
C                 -0.9090770000     -0.7809580000      1.8646830000
C                  1.3404600000     -1.2153260000      1.0455020000
C                 -0.4653240000     -0.9447410000      3.1501270000
C                  1.7718260000     -1.3766530000      2.3354800000
C                  0.9411690000     -1.0800160000      3.4906890000
O                 -1.5131650000      0.8044650000     -4.2486160000
O                  1.3648440000     -1.1058920000      4.6678810000
C                  2.2264150000      0.7965990000     -1.1640310000
C                  2.4982240000      2.3124590000     -1.2563620000
C                  3.9558310000      2.6750570000     -0.9494920000
C                  4.2354020000      4.1788790000     -1.0398840000
C                  2.1002600000     -1.9624460000     -0.0463920000
C                  1.8477060000     -3.4821160000      0.0370150000
C                  2.5706150000     -4.2664600000     -1.0641090000
C                  2.3260000000     -5.7771800000     -0.9888350000
C                 -2.3746640000     -1.0980330000      1.5832130000
C                 -2.6463880000     -2.6139020000      1.6755540000
C                 -4.1039570000     -2.9765880000      1.3685960000
C                 -4.3834500000     -4.4804240000      1.4590080000
C                 -2.2483520000      1.6615860000      0.4655740000
C                 -1.9956070000      3.1812160000      0.3819260000
C                 -2.7183640000      3.9658190000      1.4829630000
C                 -2.4735490000      5.4764950000      1.4074540000
H                 -2.8799670000      1.5429750000     -2.1204200000
H                  1.0253210000      0.7884920000     -3.5426170000
H                 -1.1736150000     -1.0900360000      3.9618170000
H                  2.7317490000     -1.8440920000      2.5396520000
H                  2.8754780000      0.2802020000     -1.8813630000
H                  2.5220350000      0.4699090000     -0.1690310000
H                  1.8374340000      2.8353810000     -0.5546550000
H                  2.2308860000      2.6732980000     -2.2556440000
H                  4.6156440000      2.1398380000     -1.6445200000
H                  4.2154400000      2.3155950000      0.0535860000
H                  4.0153300000      4.5618220000     -2.0419120000
H                  5.2825540000      4.4082500000     -0.8176610000
H                  3.6152330000      4.7376200000     -0.3314730000
H                  3.1780400000     -1.7810830000      0.0430910000
H                  1.7996530000     -1.6336560000     -1.0391980000
H                  0.7691010000     -3.6672710000     -0.0321730000
H                  2.1596990000     -3.8528510000      1.0195850000
H                  3.6484740000     -4.0687400000     -1.0007930000
H                  2.2504600000     -3.8937020000     -2.0445940000
H                  2.6658240000     -6.1849740000     -0.0310400000
H                  2.8545270000     -6.3112040000     -1.7850810000
H                  1.2601350000     -6.0083800000     -1.0843620000
H                 -2.6702310000     -0.7713730000      0.5881830000
H                 -3.0238160000     -0.5816600000      2.3004790000
H                 -2.3790990000     -2.9747170000      2.6748570000
H                 -1.9855220000     -3.1368050000      0.9739020000
H                 -4.3635230000     -2.6171640000      0.3654940000
H                 -4.7638440000     -2.4413900000      2.0635700000
H                 -3.7632030000     -5.0391480000      0.7506510000
H                 -5.4305750000     -4.7098590000      1.2367210000
H                 -4.1634230000     -4.8633300000      2.4610590000
H                 -1.9477490000      1.3329140000      1.4584170000
H                 -3.3261580000      1.4803480000      0.3761500000
H                 -2.3075970000      3.5518380000     -0.6006870000
H                 -0.9169750000      3.3662390000      0.4510400000
H                 -2.3982150000      3.5931640000      2.4634900000
H                 -3.7962530000      3.7682350000      1.4197240000
H                 -1.4076490000      5.7075660000      1.5029010000
H                 -3.0019700000      6.0107080000      2.2036450000
H                 -2.8133610000      5.8841920000      0.4496140000
$end
$rem
MAX_SCF_CYCLES=200
BASIS  =  6-311++G(d,p)
GUI  =  2
JOB_TYPE  =  SP
METHOD  =  B3LYP
SCF_ALGORITHM = RCA_DIIS
THRESH = 14
SOLVENT_METHOD = PCM
$end
$pcm
theory = CPCM
$end
$solvent
dielectric 37.219
opticaldielectric 1.43
$end

--------------------------------------------------------------

             Standard Nuclear Orientation (Angstroms)
    I     Atom           X                Y                Z
 ----------------------------------------------------------------
    1      C      -1.0894580000     0.7787010000    -3.0714360000
    2      C      -1.9200780000     1.0754730000    -1.9162290000
    3      C       0.3170340000     0.6433310000    -2.7308980000
    4      C       0.7607990000     0.4796370000    -1.4454480000
    5      C      -0.2073770000     0.2485320000    -0.3680110000
    6      C      -1.4886930000     0.9142270000    -0.6262470000
    7      C       0.0591110000    -0.5496940000     0.7872880000
    8      C      -0.9090770000    -0.7809580000     1.8646830000
    9      C       1.3404600000    -1.2153260000     1.0455020000
   10      C      -0.4653240000    -0.9447410000     3.1501270000
   11      C       1.7718260000    -1.3766530000     2.3354800000
   12      C       0.9411690000    -1.0800160000     3.4906890000
   13      O      -1.5131650000     0.8044650000    -4.2486160000
   14      O       1.3648440000    -1.1058920000     4.6678810000
   15      C       2.2264150000     0.7965990000    -1.1640310000
   16      C       2.4982240000     2.3124590000    -1.2563620000
   17      C       3.9558310000     2.6750570000    -0.9494920000
   18      C       4.2354020000     4.1788790000    -1.0398840000
   19      C       2.1002600000    -1.9624460000    -0.0463920000
   20      C       1.8477060000    -3.4821160000     0.0370150000
   21      C       2.5706150000    -4.2664600000    -1.0641090000
   22      C       2.3260000000    -5.7771800000    -0.9888350000
   23      C      -2.3746640000    -1.0980330000     1.5832130000
   24      C      -2.6463880000    -2.6139020000     1.6755540000
   25      C      -4.1039570000    -2.9765880000     1.3685960000
   26      C      -4.3834500000    -4.4804240000     1.4590080000
   27      C      -2.2483520000     1.6615860000     0.4655740000
   28      C      -1.9956070000     3.1812160000     0.3819260000
   29      C      -2.7183640000     3.9658190000     1.4829630000
   30      C      -2.4735490000     5.4764950000     1.4074540000
   31      H      -2.8799670000     1.5429750000    -2.1204200000
   32      H       1.0253210000     0.7884920000    -3.5426170000
   33      H      -1.1736150000    -1.0900360000     3.9618170000
   34      H       2.7317490000    -1.8440920000     2.5396520000
   35      H       2.8754780000     0.2802020000    -1.8813630000
   36      H       2.5220350000     0.4699090000    -0.1690310000
   37      H       1.8374340000     2.8353810000    -0.5546550000
   38      H       2.2308860000     2.6732980000    -2.2556440000
   39      H       4.6156440000     2.1398380000    -1.6445200000
   40      H       4.2154400000     2.3155950000     0.0535860000
   41      H       4.0153300000     4.5618220000    -2.0419120000
   42      H       5.2825540000     4.4082500000    -0.8176610000
   43      H       3.6152330000     4.7376200000    -0.3314730000
   44      H       3.1780400000    -1.7810830000     0.0430910000
   45      H       1.7996530000    -1.6336560000    -1.0391980000
   46      H       0.7691010000    -3.6672710000    -0.0321730000
   47      H       2.1596990000    -3.8528510000     1.0195850000
   48      H       3.6484740000    -4.0687400000    -1.0007930000
   49      H       2.2504600000    -3.8937020000    -2.0445940000
   50      H       2.6658240000    -6.1849740000    -0.0310400000
   51      H       2.8545270000    -6.3112040000    -1.7850810000
   52      H       1.2601350000    -6.0083800000    -1.0843620000
   53      H      -2.6702310000    -0.7713730000     0.5881830000
   54      H      -3.0238160000    -0.5816600000     2.3004790000
   55      H      -2.3790990000    -2.9747170000     2.6748570000
   56      H      -1.9855220000    -3.1368050000     0.9739020000
   57      H      -4.3635230000    -2.6171640000     0.3654940000
   58      H      -4.7638440000    -2.4413900000     2.0635700000
   59      H      -3.7632030000    -5.0391480000     0.7506510000
   60      H      -5.4305750000    -4.7098590000     1.2367210000
   61      H      -4.1634230000    -4.8633300000     2.4610590000
   62      H      -1.9477490000     1.3329140000     1.4584170000
   63      H      -3.3261580000     1.4803480000     0.3761500000
   64      H      -2.3075970000     3.5518380000    -0.6006870000
   65      H      -0.9169750000     3.3662390000     0.4510400000
   66      H      -2.3982150000     3.5931640000     2.4634900000
   67      H      -3.7962530000     3.7682350000     1.4197240000
   68      H      -1.4076490000     5.7075660000     1.5029010000
   69      H      -3.0019700000     6.0107080000     2.2036450000
   70      H      -2.8133610000     5.8841920000     0.4496140000
 ----------------------------------------------------------------

   94   -1241.9593826797      8.61E-06 Convergence criterion met
 Total energy in the final basis set = -1241.95938268

                    Orbital Energies (a.u.)
 --------------------------------------------------------------

 Alpha MOs
 -- Occupied --
-19.0779 -19.0764 -10.2242 -10.2226 -10.1853 -10.1843 -10.1827 -10.1824
-10.1817 -10.1814 -10.1619 -10.1617 -10.1615 -10.1614 -10.1582 -10.1581
-10.1581 -10.1580 -10.1574 -10.1574 -10.1574 -10.1572 -10.1513 -10.1513
-10.1513 -10.1512 -10.1503 -10.1502 -10.1492 -10.1492  -1.0029  -1.0015
 -0.8648  -0.8361  -0.8088  -0.8003  -0.7877  -0.7854  -0.7636  -0.7574
 -0.7441  -0.7250  -0.7230  -0.6972  -0.6966  -0.6732  -0.6427  -0.6416
 -0.6262  -0.6226  -0.5819  -0.5778  -0.5757  -0.5744  -0.5724  -0.5614
 -0.5485  -0.5452  -0.5054  -0.4909  -0.4734  -0.4660  -0.4644  -0.4557
 -0.4518  -0.4435  -0.4393  -0.4299  -0.4284  -0.4283  -0.4270  -0.4210
 -0.4125  -0.4123  -0.4122  -0.4118  -0.4020  -0.3977  -0.3967  -0.3964
 -0.3960  -0.3822  -0.3793  -0.3781  -0.3684  -0.3670  -0.3649  -0.3626
 -0.3522  -0.3507  -0.3487  -0.3479  -0.3414  -0.3356  -0.3332  -0.3315
 -0.3271  -0.3263  -0.3229  -0.3217  -0.3201  -0.3197  -0.3184  -0.3158
 -0.3143  -0.3038  -0.2775  -0.2416  -0.2397  -0.2288  -0.2271  -0.2238
 -0.1494

 Beta MOs
 -- Occupied --
-19.0744 -19.0728 -10.2234 -10.2217 -10.1831 -10.1826 -10.1822 -10.1819
-10.1808 -10.1806 -10.1619 -10.1617 -10.1616 -10.1615 -10.1582 -10.1581
-10.1581 -10.1580 -10.1574 -10.1573 -10.1573 -10.1571 -10.1513 -10.1513
-10.1513 -10.1512 -10.1495 -10.1494 -10.1486 -10.1485  -0.9966  -0.9951
 -0.8608  -0.8331  -0.8082  -0.7999  -0.7872  -0.7848  -0.7629  -0.7566
 -0.7394  -0.7242  -0.7219  -0.6963  -0.6958  -0.6678  -0.6421  -0.6406
 -0.6254  -0.6212  -0.5813  -0.5777  -0.5740  -0.5728  -0.5721  -0.5597
 -0.5464  -0.5434  -0.5040  -0.4897  -0.4730  -0.4654  -0.4642  -0.4553
 -0.4490  -0.4413  -0.4382  -0.4288  -0.4282  -0.4267  -0.4246  -0.4208
 -0.4119  -0.4114  -0.4114  -0.4107  -0.4002  -0.3963  -0.3952  -0.3940
 -0.3898  -0.3782  -0.3778  -0.3777  -0.3674  -0.3668  -0.3584  -0.3568
 -0.3519  -0.3499  -0.3476  -0.3456  -0.3412  -0.3354  -0.3330  -0.3302
 -0.3261  -0.3258  -0.3227  -0.3216  -0.3198  -0.3195  -0.3182  -0.3155
 -0.3054  -0.3027  -0.2641  -0.2382  -0.2364  -0.2248  -0.2228  -0.2051

          Ground-State Mulliken Net Atomic Charges

     Atom                 Charge (a.u.)    Spin (a.u.)
  --------------------------------------------------------
      1 C                    -0.462346       0.074938
      2 C                    -0.345398       0.054918
      3 C                    -0.345346       0.056463
      4 C                     1.141209       0.046929
      5 C                    -0.030026       0.103360
      6 C                     1.152890       0.046565
      7 C                    -0.029546       0.131127
      8 C                     1.145127       0.027571
      9 C                     1.153897       0.030937
     10 C                    -0.345928       0.069662
     11 C                    -0.345365       0.066547
     12 C                    -0.466634       0.068505
     13 O                    -0.528905       0.128481
     14 O                    -0.524288       0.129283
     15 C                    -0.415088      -0.018993
     16 C                    -0.720816       0.009085
     17 C                    -0.187509      -0.001631
     18 C                    -0.705982       0.000314
     19 C                    -0.420342      -0.017681
     20 C                    -0.719209       0.010169
     21 C                    -0.189453      -0.002195
     22 C                    -0.705616       0.000375
     23 C                    -0.414561      -0.017007
     24 C                    -0.723002       0.009669
     25 C                    -0.187595      -0.002055
     26 C                    -0.706186       0.000280
     27 C                    -0.421827      -0.019213
     28 C                    -0.717338       0.009162
     29 C                    -0.189816      -0.001665
     30 C                    -0.705699       0.000319
     31 H                     0.202017      -0.004206
     32 H                     0.201534      -0.004464
     33 H                     0.203201      -0.005381
     34 H                     0.203496      -0.005119
     35 H                     0.218099       0.000981
     36 H                     0.111340       0.005164
     37 H                     0.050947       0.001301
     38 H                     0.171476      -0.000517
     39 H                     0.144534       0.000280
     40 H                     0.140636      -0.000407
     41 H                     0.143099       0.000014
     42 H                     0.154973       0.000080
     43 H                     0.149516      -0.000083
     44 H                     0.218213       0.000565
     45 H                     0.114430       0.004542
     46 H                     0.051970       0.000938
     47 H                     0.171860      -0.000543
     48 H                     0.144713       0.000287
     49 H                     0.141299      -0.000362
     50 H                     0.143238       0.000003
     51 H                     0.155050       0.000071
     52 H                     0.149611      -0.000090
     53 H                     0.112566       0.004749
     54 H                     0.218766       0.000558
     55 H                     0.171527      -0.000448
     56 H                     0.051401       0.001257
     57 H                     0.140828      -0.000388
     58 H                     0.144717       0.000286
     59 H                     0.149608      -0.000057
     60 H                     0.155118       0.000064
     61 H                     0.143188       0.000023
     62 H                     0.113106       0.005132
     63 H                     0.217483       0.000991
     64 H                     0.171814      -0.000469
     65 H                     0.051614       0.001134
     66 H                     0.141224      -0.000395
     67 H                     0.144652       0.000272
     68 H                     0.149598      -0.000076
     69 H                     0.154994       0.000078
     70 H                     0.143241       0.000016
  --------------------------------------------------------
  Sum of atomic charges =    -1.000000

                    Cartesian Multipole Moments
 -----------------------------------------------------------------
    Charge (ESU x 10^10)
                -4.8032
    Dipole Moment (Debye)
         X       0.3927      Y       0.6693      Z      -0.8708
       Tot       1.1664
    Quadrupole Moments (Debye-Ang)
        XX    -194.6999     XY       4.1590     YY    -198.0224
        XZ     -39.0106     YZ      20.5528     ZZ    -299.5861

 Total job time:  10836.54s(wall), 70609.65s(cpu)
        *  Thank you very much for using Q-Chem.  Have a nice day.  *
