 Q-Chem 5.4, Q-Chem, Inc., Pleasanton, CA (2021)
 Q-Chem 5.4.0 for Intel X86 EM64T Linux

User input:
--------------------------------------------------------------
$molecule
-2 1
O                 -1.3310070000     -2.6169420000      0.8440890000
C                 -1.1533770000     -1.4172400000      0.4306170000
C                 -2.3706430000     -0.6204920000      0.0835230000
O                 -2.5271770000     -0.1355500000     -1.2810310000
C                 -2.2744870000      0.8365060000     -0.2232560000
C                 -0.9575030000      1.5431750000     -0.1970050000
O                 -0.9650910000      2.8169220000     -0.3381710000
C                  0.1789950000      0.7150270000      0.0023190000
C                  1.4859240000      1.2858410000     -0.0761510000
C                  2.6303810000      0.5688270000      0.1723880000
C                  2.5340850000     -0.8188330000      0.5359790000
C                  1.3005080000     -1.4191020000      0.6021560000
C                  0.0835240000     -0.7279300000      0.3200120000
H                 -3.2977840000     -1.0277410000      0.4930590000
H                 -3.1325800000      1.4875460000     -0.0426090000
H                  1.5396780000      2.3385700000     -0.3396700000
H                  3.6083350000      1.0437780000      0.1067750000
H                  3.4391250000     -1.3857420000      0.7478070000
H                  1.2090960000     -2.4666200000      0.8751590000
$end
$rem
MAX_SCF_CYCLES=200
BASIS  =  6-311++G(d,p)
GUI  =  2
JOB_TYPE  =  SP
METHOD  =  B3LYP
SOLVENT_METHOD = PCM
$end
$pcm
theory = CPCM
$end
$solvent
dielectric 37.219
opticaldielectric 1.43
$end

--------------------------------------------------------------

             Standard Nuclear Orientation (Angstroms)
    I     Atom           X                Y                Z
 ----------------------------------------------------------------
    1      O      -1.3310070000    -2.6169420000     0.8440890000
    2      C      -1.1533770000    -1.4172400000     0.4306170000
    3      C      -2.3706430000    -0.6204920000     0.0835230000
    4      O      -2.5271770000    -0.1355500000    -1.2810310000
    5      C      -2.2744870000     0.8365060000    -0.2232560000
    6      C      -0.9575030000     1.5431750000    -0.1970050000
    7      O      -0.9650910000     2.8169220000    -0.3381710000
    8      C       0.1789950000     0.7150270000     0.0023190000
    9      C       1.4859240000     1.2858410000    -0.0761510000
   10      C       2.6303810000     0.5688270000     0.1723880000
   11      C       2.5340850000    -0.8188330000     0.5359790000
   12      C       1.3005080000    -1.4191020000     0.6021560000
   13      C       0.0835240000    -0.7279300000     0.3200120000
   14      H      -3.2977840000    -1.0277410000     0.4930590000
   15      H      -3.1325800000     1.4875460000    -0.0426090000
   16      H       1.5396780000     2.3385700000    -0.3396700000
   17      H       3.6083350000     1.0437780000     0.1067750000
   18      H       3.4391250000    -1.3857420000     0.7478070000
   19      H       1.2090960000    -2.4666200000     0.8751590000
 ----------------------------------------------------------------

   10    -610.6930223291      2.18e-06  Convergence criterion met
 Total energy in the final basis set =     -610.6930223291

                    Orbital Energies (a.u.)
 --------------------------------------------------------------

 Alpha MOs
 -- Occupied --
-19.1161 -19.0332 -19.0330 -10.1971 -10.1967 -10.1754 -10.1751 -10.1419
-10.1419 -10.1385 -10.1381 -10.1242 -10.1239  -1.0448  -0.9472  -0.9469
 -0.8132  -0.7337  -0.7183  -0.6672  -0.6550  -0.5933  -0.5817  -0.5253
 -0.4885  -0.4836  -0.4723  -0.4237  -0.4071  -0.3957  -0.3949  -0.3776
 -0.3718  -0.3676  -0.3618  -0.3253  -0.3166  -0.3085  -0.3032  -0.2812
 -0.2662  -0.2279  -0.2160  -0.2066  -0.2051  -0.0966

          Ground-State Mulliken Net Atomic Charges

     Atom                 Charge (a.u.)
  ----------------------------------------
      1 O                    -0.676458
      2 C                    -0.215362
      3 C                    -0.038088
      4 O                    -0.261880
      5 C                    -0.116392
      6 C                    -0.266986
      7 O                    -0.676203
      8 C                     0.136499
      9 C                     0.059075
     10 C                    -0.426056
     11 C                    -0.502490
     12 C                    -0.016153
     13 C                     0.033896
     14 H                     0.184560
     15 H                     0.186392
     16 H                     0.135071
     17 H                     0.162432
     18 H                     0.161048
     19 H                     0.137095
  ----------------------------------------
  Sum of atomic charges =    -2.000000

                    Cartesian Multipole Moments
 -----------------------------------------------------------------
    Charge (ESU x 10^10)
                -9.6064
    Dipole Moment (Debye)
         X       6.0198      Y      -0.0638      Z       0.3271
       Tot       6.0291
    Quadrupole Moments (Debye-Ang)
        XX     -98.8519     XY      -3.8506     YY    -135.8341
        XZ      -4.9073     YZ      10.1732     ZZ     -92.4392

 Total job time:  42.75s(wall), 172.54s(cpu)
        *  Thank you very much for using Q-Chem.  Have a nice day.  *
