 Gaussian 16, Revision A.03,
 Gaussian 16:  ES64L-G16RevA.03 25-Dec-2016

 ----------------------------------------------------------------
 #P UB3LYP/6-311++G(d,p) SCRF=(PCM,Solvent=n,n-DiMethylFormamide)
 ----------------------------------------------------------------

 -------
 Reduced
 -------
 Symbolic Z-matrix:
 Charge =  0 Multiplicity = 1

                         Standard orientation:
 ---------------------------------------------------------------------
 Center     Atomic      Atomic             Coordinates (Angstroms)
 Number     Number       Type             X           Y           Z
 ---------------------------------------------------------------------
      1          6           0       -3.680589   -1.737390    0.000107
      2          6           0       -5.017115   -1.357757    0.000981
      3          6           0       -5.361018   -0.003380    0.001374
      4          6           0       -2.675618   -0.762819   -0.000281
      5          6           0       -3.022601    0.600687    0.000025
      6          6           0       -4.368771    0.971306    0.000816
      7          6           0       -1.259967   -1.192994   -0.000935
      8          6           0       -1.976998    1.663157   -0.000565
      9          6           0       -0.203993   -0.142857   -0.000483
     10          6           0       -0.547572    1.227738   -0.000448
     11          6           0        1.157384   -0.462445   -0.000163
     12          6           0        2.150740    0.510595    0.000023
     13          6           0        1.793909    1.853835   -0.000017
     14          6           0        0.447617    2.206348   -0.000233
     15          8           0       -0.968117   -2.391530   -0.001729
     16          8           0       -2.273778    2.844250   -0.001131
     17          7           0        1.622909   -1.859718   -0.000181
     18          1           0       -3.394620   -2.781446   -0.000255
     19          1           0       -5.792976   -2.114331    0.001320
     20          1           0       -6.404478    0.289787    0.002061
     21          1           0       -4.614693    2.025829    0.001019
     22         16           0        3.881368   -0.090120    0.000485
     23          1           0        2.578538    2.601317    0.000127
     24          1           0        0.804565   -2.493484   -0.001858
     25          1           0        2.269263   -1.977151   -0.809765
     26          1           0        0.142631    3.245398   -0.000226
     27          8           0        3.880604   -0.934238   -1.231708
     28          8           0        4.739445    1.088881   -0.000489
     29          8           0        3.880719   -0.932547    1.233622
     30          1           0        2.266116   -1.978631    0.811360
 ---------------------------------------------------------------------

 SCF Done:  E(UB3LYP) =  -1368.24192945     A.U. after   15 cycles

 The electronic state is 1-A.
 Alpha  occ. eigenvalues --  -89.07868 -19.15792 -19.14427 -19.12860 -19.12040
 Alpha  occ. eigenvalues --  -19.12038 -14.43432 -10.31131 -10.29678 -10.28063
 Alpha  occ. eigenvalues --  -10.24416 -10.24063 -10.23312 -10.22443 -10.22179
 Alpha  occ. eigenvalues --  -10.22010 -10.21946 -10.20843 -10.20766 -10.20649
 Alpha  occ. eigenvalues --  -10.20631  -8.13757  -6.10023  -6.09998  -6.09963
 Alpha  occ. eigenvalues --   -1.14684  -1.09182  -1.07970  -1.02791  -1.00948
 Alpha  occ. eigenvalues --   -1.00133  -0.91482  -0.89684  -0.83656  -0.80102
 Alpha  occ. eigenvalues --   -0.79223  -0.78917  -0.71691  -0.69679  -0.67531
 Alpha  occ. eigenvalues --   -0.64258  -0.63135  -0.61467  -0.60330  -0.57879
 Alpha  occ. eigenvalues --   -0.57118  -0.55988  -0.53219  -0.52818  -0.52244
 Alpha  occ. eigenvalues --   -0.50201  -0.49330  -0.48650  -0.47936  -0.47607
 Alpha  occ. eigenvalues --   -0.47160  -0.47151  -0.46119  -0.45753  -0.43735
 Alpha  occ. eigenvalues --   -0.43697  -0.41254  -0.41218  -0.39359  -0.38665
 Alpha  occ. eigenvalues --   -0.37915  -0.36728  -0.36451  -0.33987  -0.33657
 Alpha  occ. eigenvalues --   -0.32154  -0.30931  -0.30828  -0.30075  -0.29288
 Alpha  occ. eigenvalues --   -0.28972  -0.28809  -0.28637
 Alpha virt. eigenvalues --   -0.13771  -0.09532  -0.05573  -0.04480  -0.01370
 Alpha virt. eigenvalues --   -0.00270   0.00374   0.01389   0.01449   0.01738
 Alpha virt. eigenvalues --    0.01940   0.02993   0.03109   0.03482   0.04011

  Beta  occ. eigenvalues --  -89.07868 -19.15792 -19.14427 -19.12860 -19.12040
  Beta  occ. eigenvalues --  -19.12038 -14.43432 -10.31131 -10.29678 -10.28063
  Beta  occ. eigenvalues --  -10.24416 -10.24063 -10.23312 -10.22443 -10.22179
  Beta  occ. eigenvalues --  -10.22010 -10.21946 -10.20843 -10.20766 -10.20649
  Beta  occ. eigenvalues --  -10.20631  -8.13757  -6.10023  -6.09998  -6.09963
  Beta  occ. eigenvalues --   -1.14684  -1.09182  -1.07970  -1.02791  -1.00948
  Beta  occ. eigenvalues --   -1.00133  -0.91482  -0.89684  -0.83656  -0.80102
  Beta  occ. eigenvalues --   -0.79223  -0.78917  -0.71691  -0.69679  -0.67531
  Beta  occ. eigenvalues --   -0.64258  -0.63135  -0.61467  -0.60330  -0.57879
  Beta  occ. eigenvalues --   -0.57118  -0.55988  -0.53219  -0.52818  -0.52244
  Beta  occ. eigenvalues --   -0.50201  -0.49330  -0.48650  -0.47936  -0.47607
  Beta  occ. eigenvalues --   -0.47160  -0.47151  -0.46119  -0.45753  -0.43735
  Beta  occ. eigenvalues --   -0.43697  -0.41254  -0.41218  -0.39359  -0.38665
  Beta  occ. eigenvalues --   -0.37915  -0.36728  -0.36451  -0.33987  -0.33657
  Beta  occ. eigenvalues --   -0.32154  -0.30931  -0.30828  -0.30075  -0.29288
  Beta  occ. eigenvalues --   -0.28972  -0.28809  -0.28637
  Beta virt. eigenvalues --   -0.13771  -0.09532  -0.05573  -0.04480  -0.01370
  Beta virt. eigenvalues --   -0.00270   0.00374   0.01389   0.01449   0.01738
  Beta virt. eigenvalues --    0.01940   0.02993   0.03109   0.03482   0.04011

 Mulliken charges and spin densities:
               1          2
     1  C    0.142086  -0.000000
     2  C   -0.466774  -0.000000
     3  C   -0.392485  -0.000000
     4  C    0.210283   0.000000
     5  C    0.207639   0.000000
     6  C    0.155628  -0.000000
     7  C   -0.360069   0.000000
     8  C   -0.449455   0.000000
     9  C    0.306475  -0.000000
    10  C    0.595521  -0.000000
    11  C   -0.259181  -0.000000
    12  C   -1.049458  -0.000000
    13  C    0.127240   0.000000
    14  C    0.198169   0.000000
    15  O   -0.260801  -0.000000
    16  O   -0.237631  -0.000000
    17  N   -0.385316   0.000000
    18  H    0.193114   0.000000
    19  H    0.215217  -0.000000
    20  H    0.216647  -0.000000
    21  H    0.187982  -0.000000
    22  S    0.288852   0.000000
    23  H    0.260285  -0.000000
    24  H    0.411065  -0.000000
    25  H    0.396869  -0.000000
    26  H    0.205141   0.000000
    27  O   -0.391838  -0.000000
    28  O   -0.070650  -0.000000
    29  O   -0.391452  -0.000000
    30  H    0.396896  -0.000000
 Sum of Mulliken charges =  -0.00000  -0.00000

 Dipole moment (field-independent basis, Debye):
    X=            -14.5930    Y=             -3.7575    Z=              0.0036  Tot=             15.0690
 Quadrupole moment (field-independent basis, Debye-Ang):
   XX=           -160.0438   YY=           -123.4902   ZZ=           -134.4483
   XY=              6.1084   XZ=             -0.0195   YZ=             -0.0014

 Normal termination of Gaussian 16 at Wed Jan 17 09:58:35 2024.
