 Gaussian 16, Revision A.03,
 Gaussian 16:  ES64L-G16RevA.03 25-Dec-2016

 ----------------------------------------------------------------------
 #P UB3LYP/6-311++G(d,p) nosym opt freq SCRF=(PCM,Solvent=n,n-DiMethylF
 ormamide)
 ----------------------------------------------------------------------

 -------
 Reduced
 -------
 Symbolic Z-matrix:
 Charge = -2 Multiplicity = 1

 SCF Done:  E(UB3LYP) =  -1110.07648678     A.U. after   18 cycles
 SCF Done:  E(UB3LYP) =  -1110.07539318     A.U. after   17 cycles
 SCF Done:  E(UB3LYP) =  -1110.07755330     A.U. after   15 cycles
 SCF Done:  E(UB3LYP) =  -1110.07794719     A.U. after   14 cycles
 SCF Done:  E(UB3LYP) =  -1110.07799144     A.U. after   16 cycles
 SCF Done:  E(UB3LYP) =  -1110.07827327     A.U. after   14 cycles
 SCF Done:  E(UB3LYP) =  -1110.07838663     A.U. after   12 cycles
 SCF Done:  E(UB3LYP) =  -1110.07844140     A.U. after   13 cycles
 SCF Done:  E(UB3LYP) =  -1110.07845112     A.U. after   12 cycles
 SCF Done:  E(UB3LYP) =  -1110.07845693     A.U. after   11 cycles
 SCF Done:  E(UB3LYP) =  -1110.07845769     A.U. after   10 cycles
 SCF Done:  E(UB3LYP) =  -1110.07845785     A.U. after    9 cycles
 Optimization completed.
    -- Stationary point found.
 Normal termination of Gaussian 16 at Sat Feb 10 19:39:01 2024.

 ----------------------------------------------------------------------
 #P Geom=AllCheck Guess=TCheck SCRF=Check GenChk UB3LYP/6-311++G(d,p) F
 req
 ----------------------------------------------------------------------

 Structure from the checkpoint file:  "149-an.chk"
 -------
 Reduced
 -------
 Charge = -2 Multiplicity = 1

                          Input orientation:
 ---------------------------------------------------------------------
 Center     Atomic      Atomic             Coordinates (Angstroms)
 Number     Number       Type             X           Y           Z
 ---------------------------------------------------------------------
      1          6           0       -3.105719    3.514241    1.038995
      2          6           0       -3.999409    2.906595    1.892039
      3          6           0       -3.811889    1.544088    2.253407
      4          6           0       -1.982025    2.829664    0.496052
      5          6           0       -1.793762    1.444615    0.862926
      6          6           0       -2.738876    0.847815    1.747366
      7          6           0       -1.089121    3.538857   -0.395976
      8          6           0        0.038244    2.774593   -0.872208
      9          6           0        0.203886    1.360384   -0.519412
     10          6           0       -0.698066    0.666406    0.355825
     11          6           0        1.055901    3.313695   -1.728545
     12          6           0        2.092984    2.574667   -2.241974
     13          6           0        2.213803    1.197591   -1.915246
     14          6           0        1.296019    0.628407   -1.071056
     15          8           0       -1.324527    4.769612   -0.727639
     16          8           0       -0.538812   -0.589790    0.669861
     17          1           0       -2.581199   -0.191683    2.012679
     18          1           0        1.369618   -0.417279   -0.797124
     19          1           0       -3.235512    4.552486    0.756090
     20          8           0        1.021460    4.652933   -2.150561
     21          1           0        3.031531    0.614893   -2.326797
     22          1           0       -4.513410    1.059050    2.925536
     23          6           0        1.528536    5.624737   -1.344807
     24          6           0        1.417679    6.950706   -1.813510
     25          6           0        2.182962    5.383896   -0.134857
     26          6           0        2.723448    6.442394    0.598291
     27          6           0        1.967467    7.995083   -1.077809
     28          6           0        2.624668    7.750265    0.130698
     29          8           0        0.826658    7.214475   -3.030135
     30          6           0       -0.613331    7.099134   -3.031819
     31          1           0       -4.843171    3.462666    2.289227
     32          1           0        2.814115    3.064107   -2.887028
     33          1           0        2.269497    4.367371    0.226130
     34          1           0        3.227020    6.234129    1.535870
     35          1           0        1.873502    9.002136   -1.469195
     36          1           0        3.048660    8.572595    0.695122
     37          1           0       -0.918636    7.077266   -4.078291
     38          1           0       -1.052703    7.977082   -2.544745
     39          1           0       -0.927503    6.190687   -2.513730
 ---------------------------------------------------------------------

 SCF Done:  E(UB3LYP) =  -1110.07845785     A.U. after    2 cycles

 Alpha  occ. eigenvalues --  -19.14660 -19.13436 -19.01673 -19.01509 -10.23228
 Alpha  occ. eigenvalues --  -10.22134 -10.21432 -10.19947 -10.17875 -10.17208
 Alpha  occ. eigenvalues --  -10.17102 -10.17077 -10.16752 -10.16706 -10.15101
 Alpha  occ. eigenvalues --  -10.15043 -10.14956 -10.14940 -10.14755 -10.14701
 Alpha  occ. eigenvalues --  -10.14678 -10.14564 -10.14026 -10.13862 -10.13823
 Alpha  occ. eigenvalues --   -1.07055  -1.04119  -0.93198  -0.92691  -0.85079
 Alpha  occ. eigenvalues --   -0.82886  -0.82258  -0.75761  -0.75175  -0.74786
 Alpha  occ. eigenvalues --   -0.72340  -0.71570  -0.70972  -0.67737  -0.64331
 Alpha  occ. eigenvalues --   -0.62894  -0.60568  -0.59443  -0.59121  -0.56166
 Alpha  occ. eigenvalues --   -0.54109  -0.51796  -0.51207  -0.50231  -0.48737
 Alpha  occ. eigenvalues --   -0.47725  -0.45736  -0.45600  -0.44703  -0.44275
 Alpha  occ. eigenvalues --   -0.43261  -0.43069  -0.42849  -0.42257  -0.40063
 Alpha  occ. eigenvalues --   -0.39886  -0.39164  -0.38063  -0.37676  -0.37224
 Alpha  occ. eigenvalues --   -0.36691  -0.36536  -0.35723  -0.35256  -0.34209
 Alpha  occ. eigenvalues --   -0.33682  -0.32815  -0.32564  -0.31954  -0.31634
 Alpha  occ. eigenvalues --   -0.30195  -0.30016  -0.27587  -0.24672  -0.23396
 Alpha  occ. eigenvalues --   -0.22488  -0.22224  -0.22059  -0.21583  -0.19829
 Alpha  occ. eigenvalues --   -0.19015  -0.10839
 Alpha virt. eigenvalues --   -0.02904  -0.01050  -0.00237  -0.00009   0.00398
 Alpha virt. eigenvalues --    0.00614   0.00889   0.01273   0.01819   0.02080
 Alpha virt. eigenvalues --    0.02210   0.02682   0.03625   0.03696   0.04015

  Beta  occ. eigenvalues --  -19.14660 -19.13436 -19.01673 -19.01509 -10.23228
  Beta  occ. eigenvalues --  -10.22134 -10.21432 -10.19947 -10.17875 -10.17208
  Beta  occ. eigenvalues --  -10.17102 -10.17077 -10.16752 -10.16706 -10.15101
  Beta  occ. eigenvalues --  -10.15043 -10.14956 -10.14940 -10.14755 -10.14701
  Beta  occ. eigenvalues --  -10.14678 -10.14564 -10.14026 -10.13862 -10.13823
  Beta  occ. eigenvalues --   -1.07055  -1.04119  -0.93198  -0.92691  -0.85079
  Beta  occ. eigenvalues --   -0.82886  -0.82258  -0.75761  -0.75175  -0.74786
  Beta  occ. eigenvalues --   -0.72340  -0.71570  -0.70972  -0.67737  -0.64331
  Beta  occ. eigenvalues --   -0.62894  -0.60568  -0.59443  -0.59121  -0.56166
  Beta  occ. eigenvalues --   -0.54109  -0.51796  -0.51207  -0.50231  -0.48737
  Beta  occ. eigenvalues --   -0.47725  -0.45736  -0.45600  -0.44703  -0.44275
  Beta  occ. eigenvalues --   -0.43261  -0.43069  -0.42849  -0.42257  -0.40063
  Beta  occ. eigenvalues --   -0.39886  -0.39164  -0.38063  -0.37676  -0.37224
  Beta  occ. eigenvalues --   -0.36691  -0.36536  -0.35723  -0.35256  -0.34209
  Beta  occ. eigenvalues --   -0.33682  -0.32815  -0.32564  -0.31954  -0.31634
  Beta  occ. eigenvalues --   -0.30195  -0.30016  -0.27587  -0.24672  -0.23396
  Beta  occ. eigenvalues --   -0.22488  -0.22224  -0.22059  -0.21583  -0.19829
  Beta  occ. eigenvalues --   -0.19015  -0.10839
  Beta virt. eigenvalues --   -0.02904  -0.01050  -0.00237  -0.00009   0.00398
  Beta virt. eigenvalues --    0.00614   0.00889   0.01273   0.01819   0.02080
  Beta virt. eigenvalues --    0.02210   0.02682   0.03625   0.03696   0.04015

 Mulliken charges and spin densities:
               1          2
     1  C   -0.149171   0.000000
     2  C   -0.482543   0.000000
     3  C   -0.476224  -0.000000
     4  C   -0.084087   0.000000
     5  C    0.448092  -0.000000
     6  C   -0.172770  -0.000000
     7  C   -0.266829  -0.000000
     8  C    0.254901   0.000000
     9  C    0.778760  -0.000000
    10  C   -0.605279   0.000000
    11  C   -0.515113  -0.000000
    12  C    0.204361   0.000000
    13  C   -0.509749  -0.000000
    14  C   -0.065463  -0.000000
    15  O   -0.595017   0.000000
    16  O   -0.674848  -0.000000
    17  H    0.144257   0.000000
    18  H    0.165562  -0.000000
    19  H    0.130253   0.000000
    20  O   -0.027746   0.000000
    21  H    0.171061  -0.000000
    22  H    0.157737   0.000000
    23  C    0.413451  -0.000000
    24  C   -0.552670  -0.000000
    25  C   -0.198820   0.000000
    26  C   -0.452268   0.000000
    27  C    0.103251  -0.000000
    28  C   -0.267051  -0.000000
    29  O   -0.191507  -0.000000
    30  C   -0.288826   0.000000
    31  H    0.161454   0.000000
    32  H    0.164079  -0.000000
    33  H    0.184596   0.000000
    34  H    0.200307  -0.000000
    35  H    0.200411   0.000000
    36  H    0.175533  -0.000000
    37  H    0.147673  -0.000000
    38  H    0.128544   0.000000
    39  H    0.241701  -0.000000
 Sum of Mulliken charges =  -2.00000  -0.00000

 Dipole moment (field-independent basis, Debye):
    X=              6.2849    Y=            -22.5588    Z=              2.5839  Tot=             23.5600
 Quadrupole moment (field-independent basis, Debye-Ang):
   XX=           -175.0048   YY=           -268.3486   ZZ=           -172.2073
   XY=              8.5487   XZ=             11.9633   YZ=             29.1122

  Exact polarizability: 525.563 -15.782 521.859-145.573 -43.749 404.002
 Approx polarizability: 578.958 -36.037 586.911-160.463 -53.243 466.247

                      1                      2                      3
                      A                      A                      A
 Frequencies --     19.4720                44.1111                53.0178
 Red. masses --      5.7079                 6.3282                 5.2120
 Frc consts  --      0.0013                 0.0073                 0.0086
 IR Inten    --      2.3363                 1.6535                 2.2936

                      4                      5                      6
                      A                      A                      A
 Frequencies --     79.9140                90.8939               109.0118
 Red. masses --      6.1999                 3.0734                 4.6841
 Frc consts  --      0.0233                 0.0150                 0.0328
 IR Inten    --     19.0793                10.6241                 4.2152

                      7                      8                      9
                      A                      A                      A
 Frequencies --    131.4182               153.0836               169.7718
 Red. masses --      3.7157                 4.8579                 2.2390
 Frc consts  --      0.0378                 0.0671                 0.0380
 IR Inten    --      5.1932                 1.1840                 3.6783

                     10                     11                     12
                      A                      A                      A
 Frequencies --    177.9460               186.7624               215.5548
 Red. masses --      3.1335                 2.2724                 4.7220
 Frc consts  --      0.0585                 0.0467                 0.1293
 IR Inten    --     12.3731                10.5763                 8.6714

                     13                     14                     15
                      A                      A                      A
 Frequencies --    223.6336               241.4690               288.6508
 Red. masses --      4.7003                 5.2130                 5.2178
 Frc consts  --      0.1385                 0.1791                 0.2561
 IR Inten    --      2.0734                 8.2849                 1.2321

                     16                     17                     18
                      A                      A                      A
 Frequencies --    311.9792               349.7238               358.1253
 Red. masses --      7.9674                 4.4181                 6.2852
 Frc consts  --      0.4569                 0.3184                 0.4749
 IR Inten    --      2.6232                 7.5600                 2.6318

                     19                     20                     21
                      A                      A                      A
 Frequencies --    375.0667               397.5214               402.4772
 Red. masses --     12.1353                 7.5883                 8.0080
 Frc consts  --      1.0058                 0.7065                 0.7643
 IR Inten    --      1.5482                 0.7518                 3.3000

                     22                     23                     24
                      A                      A                      A
 Frequencies --    446.0243               462.3912               474.1081
 Red. masses --      3.8287                 5.0420                 5.6309
 Frc consts  --      0.4488                 0.6351                 0.7457
 IR Inten    --      3.8189                 3.8835                 4.3429

                     25                     26                     27
                      A                      A                      A
 Frequencies --    480.9040               500.1795               502.9222
 Red. masses --      5.4573                 4.0763                 6.6143
 Frc consts  --      0.7436                 0.6008                 0.9857
 IR Inten    --      1.9116                 1.4187                 4.3229

                     28                     29                     30
                      A                      A                      A
 Frequencies --    515.5886               563.6917               593.5908
 Red. masses --      5.7012                 4.9199                 6.8269
 Frc consts  --      0.8929                 0.9211                 1.4173
 IR Inten    --      3.1450                 8.8474                16.0453

                     31                     32                     33
                      A                      A                      A
 Frequencies --    597.2485               602.7059               618.4053
 Red. masses --      4.0465                 6.3148                 5.2514
 Frc consts  --      0.8504                 1.3515                 1.1832
 IR Inten    --     11.4180                60.4161                 2.6744

                     34                     35                     36
                      A                      A                      A
 Frequencies --    649.3522               670.6774               688.1802
 Red. masses --      5.1649                 4.7737                 6.1271
 Frc consts  --      1.2831                 1.2651                 1.7097
 IR Inten    --     20.2728                22.1506                11.4589

                     37                     38                     39
                      A                      A                      A
 Frequencies --    699.2705               732.5350               747.7529
 Red. masses --      2.6300                 2.9591                 1.9974
 Frc consts  --      0.7577                 0.9355                 0.6580
 IR Inten    --    105.7056                 5.8720                80.4791

                     40                     41                     42
                      A                      A                      A
 Frequencies --    754.8376               762.9906               779.4158
 Red. masses --      1.8832                 1.8295                 2.0753
 Frc consts  --      0.6322                 0.6275                 0.7428
 IR Inten    --     13.5565                41.1808                55.6350

                     43                     44                     45
                      A                      A                      A
 Frequencies --    783.9628               797.0166               820.8740
 Red. masses --      3.3116                 5.4873                 3.4946
 Frc consts  --      1.1992                 2.0537                 1.3874
 IR Inten    --     46.2813                 3.0428                23.8408

                     46                     47                     48
                      A                      A                      A
 Frequencies --    836.5683               859.2031               859.4299
 Red. masses --      4.7144                 1.6359                 1.6514
 Frc consts  --      1.9439                 0.7115                 0.7187
 IR Inten    --      6.5901                 0.5908                 3.0925

                     49                     50                     51
                      A                      A                      A
 Frequencies --    875.9369               884.3805               934.1972
 Red. masses --      1.8654                 4.9077                 6.5644
 Frc consts  --      0.8433                 2.2615                 3.3754
 IR Inten    --     30.5111               141.3773                 5.2794

                     52                     53                     54
                      A                      A                      A
 Frequencies --    940.5935               975.4049               980.0073
 Red. masses --      1.4028                 1.2662                 1.2813
 Frc consts  --      0.7312                 0.7098                 0.7251
 IR Inten    --      6.4462                 0.1638                 2.2822

                     55                     56                     57
                      A                      A                      A
 Frequencies --    984.0596               989.4607               996.4839
 Red. masses --      1.3421                 1.2510                 6.7492
 Frc consts  --      0.7657                 0.7216                 3.9486
 IR Inten    --      5.4031                 1.8517               223.6547

                     58                     59                     60
                      A                      A                      A
 Frequencies --   1001.9555              1022.4176              1054.2463
 Red. masses --      7.4042                 2.0778                 1.9991
 Frc consts  --      4.3795                 1.2797                 1.3091
 IR Inten    --    256.3723               140.2862                66.7767

                     61                     62                     63
                      A                      A                      A
 Frequencies --   1060.7239              1097.4889              1114.3160
 Red. masses --      2.0155                 2.7074                 1.6247
 Frc consts  --      1.3361                 1.9213                 1.1886
 IR Inten    --    217.2123               351.6522               362.7639

                     64                     65                     66
                      A                      A                      A
 Frequencies --   1118.2904              1148.8494              1162.2529
 Red. masses --      1.8339                 1.4688                 1.9063
 Frc consts  --      1.3512                 1.1422                 1.5172
 IR Inten    --    137.1454                85.2725                67.3406

                     67                     68                     69
                      A                      A                      A
 Frequencies --   1169.5182              1171.6098              1182.2171
 Red. masses --      1.1464                 1.2518                 1.9958
 Frc consts  --      0.9238                 1.0124                 1.6435
 IR Inten    --     15.2759                19.4223               258.2946

                     70                     71                     72
                      A                      A                      A
 Frequencies --   1190.4026              1203.9093              1215.8508
 Red. masses --      1.7153                 2.6803                 2.2200
 Frc consts  --      1.4321                 2.2889                 1.9336
 IR Inten    --     45.9188                59.3003               245.9602

                     73                     74                     75
                      A                      A                      A
 Frequencies --   1235.4064              1240.5095              1271.5516
 Red. masses --      2.5866                 2.4675                 3.3910
 Frc consts  --      2.3259                 2.2372                 3.2303
 IR Inten    --    630.3375                96.8778               523.2272

                     76                     77                     78
                      A                      A                      A
 Frequencies --   1288.9276              1294.0923              1329.9363
 Red. masses --      2.1094                 3.3854                 7.3890
 Frc consts  --      2.0647                 3.3404                 7.7002
 IR Inten    --    221.0365               180.4384                39.0234

                     79                     80                     81
                      A                      A                      A
 Frequencies --   1332.8548              1344.2406              1364.8520
 Red. masses --      3.6420                 7.1189                 2.2614
 Frc consts  --      3.8120                 7.5791                 2.4820
 IR Inten    --   2121.9687               543.3825               618.1015

                     82                     83                     84
                      A                      A                      A
 Frequencies --   1424.5739              1446.1868              1460.7496
 Red. masses --      3.2673                 6.5248                 2.8879
 Frc consts  --      3.9067                 8.0402                 3.6307
 IR Inten    --    130.3704                 4.9513               476.9426

                     85                     86                     87
                      A                      A                      A
 Frequencies --   1466.9171              1476.9672              1481.0533
 Red. masses --      1.4808                 2.0035                 1.8243
 Frc consts  --      1.8775                 2.5750                 2.3577
 IR Inten    --      6.7917                53.9491                34.1536

                     88                     89                     90
                      A                      A                      A
 Frequencies --   1488.3482              1491.9069              1505.2872
 Red. masses --      1.1890                 4.8762                 1.0631
 Frc consts  --      1.5519                 6.3947                 1.4193
 IR Inten    --     15.7092                28.9164                 7.7728

                     91                     92                     93
                      A                      A                      A
 Frequencies --   1515.5107              1534.3183              1578.5608
 Red. masses --      2.6338                 5.2137                 7.7836
 Frc consts  --      3.5640                 7.2315                11.4275
 IR Inten    --    301.7025               107.9855                35.3944

                     94                     95                     96
                      A                      A                      A
 Frequencies --   1604.0866              1609.9027              1614.8697
 Red. masses --      5.5228                 5.3393                 6.5424
 Frc consts  --      8.3726                 8.1532                10.0522
 IR Inten    --     81.1304                 6.7326                14.4866

                     97                     98                     99
                      A                      A                      A
 Frequencies --   1626.1344              2998.6320              3078.6995
 Red. masses --      6.1181                 1.0348                 1.1008
 Frc consts  --      9.5319                 5.4821                 6.1474
 IR Inten    --     39.0828               148.5305                48.5733

                    100                    101                    102
                      A                      A                      A
 Frequencies --   3123.8012              3139.2715              3151.7070
 Red. masses --      1.1074                 1.0848                 1.0859
 Frc consts  --      6.3668                 6.2987                 6.3555
 IR Inten    --     27.3785                27.2137                37.2273

                    103                    104                    105
                      A                      A                      A
 Frequencies --   3154.9428              3163.9580              3173.4791
 Red. masses --      1.0895                 1.0858                 1.0907
 Frc consts  --      6.3896                 6.4043                 6.4716
 IR Inten    --     36.9365                 0.9732                 4.4304

                    106                    107                    108
                      A                      A                      A
 Frequencies --   3173.6586              3173.7793              3179.4185
 Red. masses --      1.0904                 1.0917                 1.0926
 Frc consts  --      6.4705                 6.4787                 6.5073
 IR Inten    --     25.8013                69.3310                88.9604

                    109                    110                    111
                      A                      A                      A
 Frequencies --   3181.7088              3187.2788              3201.2132
 Red. masses --      1.0944                 1.0957                 1.0926
 Frc consts  --      6.5274                 6.5584                 6.5968
 IR Inten    --     41.0844                32.1009                 4.2115

 - Thermochemistry -
 -------------------
 Temperature   298.150 Kelvin.  Pressure   1.00000 Atm.
 Atom     1 has atomic number  6 and mass  12.00000

 Molecular mass:   330.08921 amu.
 Principal axes and moments of inertia in atomic units:
                           1         2         3
     Eigenvalues --  4829.26790********************
           X            0.50640   0.71514   0.48180
           Y            0.78583  -0.61276   0.08357
           Z           -0.35499  -0.33629   0.87229
 This molecule is an asymmetric top.
 Rotational symmetry number  1.
 Warning -- assumption of classical behavior for rotation
           may cause significant error
 Rotational temperatures (Kelvin)      0.01794     0.00755     0.00628
 Rotational constants (GHZ):           0.37371     0.15734     0.13082
 Zero-point vibrational energy     764194.2 (Joules/Mol)
                                  182.64680 (Kcal/Mol)
 Warning -- explicit consideration of  33 degrees of freedom as
           vibrations may cause significant error
 Vibrational temperatures:     28.02    63.47    76.28   114.98   130.78
          (Kelvin)            156.84   189.08   220.25   244.26   256.02
                              268.71   310.14   321.76   347.42   415.30
                              448.87   503.17   515.26   539.64   571.94
                              579.07   641.73   665.28   682.14   691.91
                              719.65   723.59   741.82   811.03   854.04
                              859.31   867.16   889.75   934.27   964.96
                              990.14  1006.09  1053.95  1075.85  1086.04
                             1097.77  1121.41  1127.95  1146.73  1181.05
                             1203.64  1236.20  1236.53  1260.28  1272.43
                             1344.10  1353.30  1403.39  1410.01  1415.84
                             1423.61  1433.72  1441.59  1471.03  1516.83
                             1526.15  1579.04  1603.25  1608.97  1652.94
                             1672.22  1682.68  1685.69  1700.95  1712.72
                             1732.16  1749.34  1777.47  1784.82  1829.48
                             1854.48  1861.91  1913.48  1917.68  1934.06
                             1963.72  2049.64  2080.74  2101.69  2110.57
                             2125.03  2130.91  2141.40  2146.52  2165.77
                             2180.48  2207.54  2271.20  2307.92  2316.29
                             2323.44  2339.64  4314.36  4429.56  4494.45
                             4516.71  4534.60  4539.26  4552.23  4565.93
                             4566.19  4566.36  4574.47  4577.77  4585.78
                             4605.83

 Zero-point correction=                           0.291066 (Hartree/Particle)
 Thermal correction to Energy=                    0.310674
 Thermal correction to Enthalpy=                  0.311618
 Thermal correction to Gibbs Free Energy=         0.242606
 Sum of electronic and zero-point Energies=          -1109.787392
 Sum of electronic and thermal Energies=             -1109.767784
 Sum of electronic and thermal Enthalpies=           -1109.766839
 Sum of electronic and thermal Free Energies=        -1109.835852

                     E (Thermal)             CV                S
                      KCal/Mol        Cal/Mol-Kelvin    Cal/Mol-Kelvin
 Total                  194.951             78.891            145.248
 Electronic               0.000              0.000              0.000
 Translational            0.889              2.981             43.278
 Rotational               0.889              2.981             34.990
 Vibrational            193.174             72.930             66.981
 Vibration     1          0.593              1.986              6.687
 Vibration     2          0.595              1.980              5.065
 Vibration     3          0.596              1.976              4.702
 Vibration     4          0.600              1.963              3.893
 Vibration     5          0.602              1.956              3.641
 Vibration     6          0.606              1.942              3.286
 Vibration     7          0.612              1.922              2.925
 Vibration     8          0.619              1.899              2.634
 Vibration     9          0.625              1.880              2.438
 Vibration    10          0.628              1.869              2.350
 Vibration    11          0.632              1.858              2.260
 Vibration    12          0.645              1.817              1.996
 Vibration    13          0.649              1.805              1.929
 Vibration    14          0.658              1.777              1.792
 Vibration    15          0.685              1.695              1.482
 Vibration    16          0.700              1.651              1.352
 Vibration    17          0.727              1.576              1.167
 Vibration    18          0.733              1.559              1.130
 Vibration    19          0.746              1.523              1.059
 Vibration    20          0.764              1.475              0.972
 Vibration    21          0.768              1.465              0.954
 Vibration    22          0.805              1.370              0.808
 Vibration    23          0.820              1.333              0.759
 Vibration    24          0.831              1.307              0.726
 Vibration    25          0.837              1.292              0.708
 Vibration    26          0.856              1.250              0.658
 Vibration    27          0.858              1.244              0.651
 Vibration    28          0.871              1.215              0.620
 Vibration    29          0.919              1.110              0.517
 Vibration    30          0.951              1.045              0.461
 Vibration    31          0.955              1.038              0.454
 Vibration    32          0.961              1.026              0.445
 Vibration    33          0.978              0.993              0.419

                           ! Non-Optimized Parameters !
 Normal termination of Gaussian 16 at Sat Feb 10 23:54:14 2024.
