 Q-Chem 5.4, Q-Chem, Inc., Pleasanton, CA (2021)
 Q-Chem 5.4.0 for Intel X86 EM64T Linux

User input:
--------------------------------------------------------------
$molecule
-1 2
C                 -1.2647740000      2.8505540000      0.2442110000
C                 -2.5930790000      2.4457440000      0.1703220000
C                 -2.9206720000      1.1060960000     -0.0594860000
C                 -0.2061580000      1.9218960000      0.0596170000
C                 -0.5611830000      0.5573030000     -0.1958270000
C                 -1.9221180000      0.1637300000     -0.2189540000
C                  1.2201140000      2.3231100000      0.1172440000
C                  2.1738860000      1.2692790000     -0.1357950000
C                  1.8251370000     -0.0235550000     -0.4274960000
C                  0.4619020000     -0.4562440000     -0.5000110000
O                  1.6042970000      3.4905970000      0.3667540000
O                  0.1357330000     -1.6325530000     -0.8250510000
O                 -0.9830330000      4.1684650000      0.4861890000
H                 -3.9613770000      0.8028370000     -0.0997820000
H                  2.5817670000     -0.7752590000     -0.6338300000
C                 -2.3464870000     -1.2624390000     -0.3915230000
O                 -2.9681690000     -1.6980150000     -1.3355300000
O                 -2.1281940000     -1.9843400000      0.7392180000
C                 -2.2927360000     -3.3970450000      0.5996770000
H                 -3.3818210000      3.1831100000      0.3037410000
H                  3.2165440000      1.5702820000     -0.0929550000
H                 -1.8247500000      4.6306790000      0.5639390000
H                 -2.0857390000     -3.8175530000      1.5837230000
H                 -1.5757190000     -3.7739480000     -0.1328180000
H                 -3.3078210000     -3.6488680000      0.2830140000
$end
$rem
MAX_SCF_CYCLES=200
BASIS  =  6-311++G(d,p)
GUI  =  2
JOB_TYPE  =  SP
METHOD  =  B3LYP
SOLVENT_METHOD = COSMO
$end
$solvent
dielectric 37.219
opticaldielectric 1.43
$end

--------------------------------------------------------------

             Standard Nuclear Orientation (Angstroms)
    I     Atom           X                Y                Z
 ----------------------------------------------------------------
    1      C       1.8920382868     1.4757713875     0.0648842569
    2      C       0.9324096730     2.4764293113    -0.0424541646
    3      C      -0.4230926514     2.1569862898    -0.1663705034
    4      C       1.5259180970     0.1041693684     0.0223123282
    5      C       0.1344005326    -0.2040612483    -0.1262851089
    6      C      -0.8268558265     0.8351741060    -0.1859066571
    7      C       2.5252092800    -0.9869810272     0.1190248336
    8      C       1.9965194995    -2.3262982666     0.0142107692
    9      C       0.6697608884    -2.6116415405    -0.1766449193
   10      C      -0.3302930935    -1.5919879667    -0.2819372933
   11      O       3.7534959072    -0.7923576002     0.2812327123
   12      O      -1.5448765077    -1.8489726549    -0.5153598322
   13      O       3.2083370837     1.8276272928     0.2004410586
   14      H      -1.1615192483     2.9486786403    -0.2342385285
   15      H       0.3252711934    -3.6373881818    -0.2730412780
   16      C      -2.2995528734     0.5689784534    -0.2501748991
   17      O      -3.0209425404     0.8483324621    -1.1823350050
   18      O      -2.7808786772     0.1550825057     0.9516502595
   19      C      -4.1234493604    -0.3342345697     0.9328370302
   20      H       1.2455245485     3.5180773983    -0.0189695385
   21      H       2.7339530176    -3.1205060793     0.0849181474
   22      H       3.2489534946     2.7901406718     0.1908153229
   23      H      -4.3493000609    -0.6178883736     1.9607247900
   24      H      -4.1815499387    -1.2055369411     0.2769600027
   25      H      -4.8204898441     0.4329010365     0.5868235015
 ----------------------------------------------------------------

   10    -838.5079299786      9.82e-06  Convergence criterion met
 Total energy in the final basis set =     -838.5079299786
    5    -838.6053634241      4.90e-06  Convergence criterion met
 Total energy in the final basis set =     -838.6053634241

                    Orbital Energies (a.u.)
 --------------------------------------------------------------

 Alpha MOs
 -- Occupied --
-19.1632 -19.1566 -19.1172 -19.0838 -19.0813 -10.3101 -10.2479 -10.2319
-10.2272 -10.2123 -10.1905 -10.1887 -10.1867 -10.1861 -10.1774 -10.1662
-10.1654  -1.1074  -1.0697  -1.0239  -1.0093  -1.0071  -0.8688  -0.8113
 -0.7733  -0.7518  -0.7190  -0.6829  -0.6423  -0.6283  -0.5925  -0.5691
 -0.5440  -0.5186  -0.5014  -0.4862  -0.4852  -0.4757  -0.4620  -0.4578
 -0.4346  -0.4296  -0.4230  -0.4081  -0.4055  -0.4002  -0.3887  -0.3828
 -0.3788  -0.3764  -0.3582  -0.3573  -0.3439  -0.3064  -0.2923  -0.2828
 -0.2614  -0.2510  -0.2425  -0.2404  -0.1586

 Beta MOs
 -- Occupied --
-19.1632 -19.1565 -19.1171 -19.0774 -19.0750 -10.3101 -10.2481 -10.2307
-10.2254 -10.2123 -10.1899 -10.1884 -10.1863 -10.1859 -10.1767 -10.1650
-10.1636  -1.1073  -1.0696  -1.0237  -0.9984  -0.9959  -0.8668  -0.8060
 -0.7719  -0.7496  -0.7180  -0.6742  -0.6406  -0.6256  -0.5904  -0.5679
 -0.5431  -0.5168  -0.4993  -0.4850  -0.4838  -0.4746  -0.4605  -0.4564
 -0.4298  -0.4265  -0.4195  -0.4061  -0.4029  -0.3882  -0.3864  -0.3765
 -0.3754  -0.3589  -0.3568  -0.3561  -0.3366  -0.3057  -0.2910  -0.2562
 -0.2541  -0.2450  -0.2364  -0.2342

          Ground-State Mulliken Net Atomic Charges

     Atom                 Charge (a.u.)    Spin (a.u.)
  --------------------------------------------------------
      1 C                     0.131296       0.025694
      2 C                    -0.064315       0.058830
      3 C                    -0.305756       0.007321
      4 C                     0.009798       0.019660
      5 C                     0.585412       0.061149
      6 C                     0.716037       0.043972
      7 C                    -0.383157       0.053090
      8 C                    -0.185268       0.135547
      9 C                    -0.246486       0.065853
     10 C                    -0.581771       0.086773
     11 O                    -0.507112       0.225772
     12 O                    -0.458240       0.229660
     13 O                    -0.253144      -0.000082
     14 H                     0.215652      -0.001316
     15 H                     0.203971      -0.007779
     16 C                    -0.541738       0.010488
     17 O                    -0.297399       0.002415
     18 O                    -0.019043      -0.002261
     19 C                    -0.273480       0.001566
     20 H                     0.197465      -0.004321
     21 H                     0.201791      -0.011369
     22 H                     0.318709      -0.000316
     23 H                     0.177810       0.000099
     24 H                     0.189581      -0.000386
     25 H                     0.169388      -0.000059
  --------------------------------------------------------
  Sum of atomic charges =    -1.000000

                    Cartesian Multipole Moments
 -----------------------------------------------------------------
    Charge (ESU x 10^10)
                -4.8032
    Dipole Moment (Debye)
         X      -3.7854      Y       6.5568      Z       2.5899
       Tot       8.0017
    Quadrupole Moments (Debye-Ang)
        XX    -144.3408     XY      10.2712     YY     -92.0021
        XZ     -14.2935     YZ       0.0992     ZZ    -107.8583

 Total job time:  68.71s(wall), 521.89s(cpu)
        *  Thank you very much for using Q-Chem.  Have a nice day.  *
