 Q-Chem 5.4, Q-Chem, Inc., Pleasanton, CA (2021)
 Q-Chem 5.4.0 for Intel X86 EM64T Linux

User input:
--------------------------------------------------------------
$molecule
-1 2
C                  1.1984260000      4.2487950000      5.3430360000
C                  1.4567570000      4.0030820000      3.9374910000
C                  0.9755860000      2.9123800000      3.2861320000
C                  0.1608760000      1.9022530000      3.9385210000
C                 -0.0875850000      2.1342340000      5.3564710000
C                  0.4007750000      3.2391910000      6.0321680000
O                  1.6299790000      5.2692360000      5.9359020000
O                 -0.3043540000      0.9233970000      3.3085790000
H                  2.0572540000      4.7495740000      3.4263930000
H                  1.1728370000      2.7457690000      2.2315530000
S                 -1.0857910000      0.8926350000      6.2053020000
C                  0.2338510000      3.5102970000      7.5028350000
O                  1.0108020000      3.1658090000      8.3562440000
O                 -0.8490080000      4.2822440000      7.7420170000
C                 -1.0707190000      4.6046760000      9.1194620000
H                 -1.9622550000      5.2307430000      9.1344630000
H                 -0.2166120000      5.1472270000      9.5297200000
H                 -1.2324090000      3.6928430000      9.6979490000
C                 -2.6804680000      0.8885330000      5.3371590000
C                 -2.9116430000     -0.0254480000      4.3133100000
C                 -3.6626990000      1.7865980000      5.7485500000
C                 -4.1595870000     -0.0386070000      3.6929950000
C                 -4.9041350000      1.7702650000      5.1151640000
C                 -5.1528300000      0.8569750000      4.0902180000
O                 -0.4983430000     -0.4450680000      6.0651840000
O                 -1.3778810000      1.4026610000      7.5586170000
H                 -2.1150560000     -0.6897120000      4.0096210000
H                 -3.4511190000      2.4761250000      6.5563720000
H                 -4.3524820000     -0.7446670000      2.8925090000
H                 -5.6762980000      2.4659030000      5.4258020000
H                 -6.1204470000      0.8452850000      3.5990190000
$end

$rem
BASIS  =  6-311++G(d,p)
GUI  =  2
JOB_TYPE  =  SP
METHOD  =  B3LYP
SCF_CONVERGENCE  = 8
SOLVENT_METHOD = sm12
$end

$smx
solvent dimethylformamide
charges CM5
$end

--------------------------------------------------------------

             Standard Nuclear Orientation (Angstroms)
    I     Atom           X                Y                Z
 ----------------------------------------------------------------
    1      C       1.1984260000     4.2487950000     5.3430360000
    2      C       1.4567570000     4.0030820000     3.9374910000
    3      C       0.9755860000     2.9123800000     3.2861320000
    4      C       0.1608760000     1.9022530000     3.9385210000
    5      C      -0.0875850000     2.1342340000     5.3564710000
    6      C       0.4007750000     3.2391910000     6.0321680000
    7      O       1.6299790000     5.2692360000     5.9359020000
    8      O      -0.3043540000     0.9233970000     3.3085790000
    9      H       2.0572540000     4.7495740000     3.4263930000
   10      H       1.1728370000     2.7457690000     2.2315530000
   11      S      -1.0857910000     0.8926350000     6.2053020000
   12      C       0.2338510000     3.5102970000     7.5028350000
   13      O       1.0108020000     3.1658090000     8.3562440000
   14      O      -0.8490080000     4.2822440000     7.7420170000
   15      C      -1.0707190000     4.6046760000     9.1194620000
   16      H      -1.9622550000     5.2307430000     9.1344630000
   17      H      -0.2166120000     5.1472270000     9.5297200000
   18      H      -1.2324090000     3.6928430000     9.6979490000
   19      C      -2.6804680000     0.8885330000     5.3371590000
   20      C      -2.9116430000    -0.0254480000     4.3133100000
   21      C      -3.6626990000     1.7865980000     5.7485500000
   22      C      -4.1595870000    -0.0386070000     3.6929950000
   23      C      -4.9041350000     1.7702650000     5.1151640000
   24      C      -5.1528300000     0.8569750000     4.0902180000
   25      O      -0.4983430000    -0.4450680000     6.0651840000
   26      O      -1.3778810000     1.4026610000     7.5586170000
   27      H      -2.1150560000    -0.6897120000     4.0096210000
   28      H      -3.4511190000     2.4761250000     6.5563720000
   29      H      -4.3524820000    -0.7446670000     2.8925090000
   30      H      -5.6762980000     2.4659030000     5.4258020000
   31      H      -6.1204470000     0.8452850000     3.5990190000
 ----------------------------------------------------------------

   17   -1389.3342865503      9.48e-09  Convergence criterion met
 Total energy in the final basis set =    -1389.4246668939

                    Orbital Energies (a.u.)
 --------------------------------------------------------------

 Alpha MOs
 -- Occupied --
-89.0504 -19.1657 -19.1142 -19.1137 -19.1126 -19.0915 -19.0901 -10.3086
-10.2437 -10.2392 -10.2177 -10.2137 -10.2124 -10.2076 -10.1970 -10.1934
-10.1928 -10.1911 -10.1898 -10.1839 -10.1828  -8.1140  -6.0768  -6.0758
 -6.0752  -1.1107  -1.1058  -1.0241  -1.0185  -1.0153  -1.0029  -0.8785
 -0.8514  -0.7910  -0.7781  -0.7662  -0.7417  -0.7070  -0.6773  -0.6358
 -0.6253  -0.6162  -0.5803  -0.5645  -0.5416  -0.5220  -0.5030  -0.5014
 -0.4841  -0.4810  -0.4786  -0.4713  -0.4620  -0.4576  -0.4457  -0.4413
 -0.4302  -0.4247  -0.4168  -0.4053  -0.3947  -0.3911  -0.3877  -0.3815
 -0.3811  -0.3636  -0.3593  -0.3391  -0.3261  -0.3157  -0.3047  -0.3015
 -0.3008  -0.2919  -0.2826  -0.2730  -0.2716  -0.2560  -0.2471  -0.1800

 Beta MOs
 -- Occupied --
-89.0505 -19.1656 -19.1141 -19.1134 -19.1126 -19.0835 -19.0834 -10.3087
-10.2430 -10.2385 -10.2177 -10.2137 -10.2112 -10.2049 -10.1969 -10.1934
-10.1927 -10.1911 -10.1898 -10.1833 -10.1820  -8.1141  -6.0768  -6.0758
 -6.0752  -1.1104  -1.1056  -1.0236  -1.0076  -1.0026  -1.0014  -0.8784
 -0.8449  -0.7892  -0.7767  -0.7661  -0.7390  -0.7021  -0.6732  -0.6333
 -0.6253  -0.6143  -0.5787  -0.5632  -0.5407  -0.5201  -0.5009  -0.4997
 -0.4835  -0.4805  -0.4780  -0.4704  -0.4604  -0.4574  -0.4451  -0.4410
 -0.4271  -0.4127  -0.4076  -0.4023  -0.3908  -0.3879  -0.3823  -0.3807
 -0.3635  -0.3614  -0.3583  -0.3383  -0.3249  -0.3134  -0.3013  -0.3000
 -0.2958  -0.2802  -0.2738  -0.2669  -0.2617  -0.2490  -0.2413

          Ground-State Mulliken Net Atomic Charges

     Atom                 Charge (a.u.)    Spin (a.u.)
  --------------------------------------------------------
      1 C                    -0.938994       0.045061
      2 C                     0.231574       0.055421
      3 C                     0.794539       0.056513
      4 C                    -0.690161       0.021461
      5 C                    -0.802623       0.122592
      6 C                    -0.314898       0.184728
      7 O                    -0.324404       0.293552
      8 O                    -0.282297       0.248076
      9 H                     0.277618      -0.004561
     10 H                     0.301888      -0.005761
     11 S                    -0.420067      -0.035590
     12 C                    -0.231156      -0.018924
     13 O                    -0.151214       0.006795
     14 O                     0.116415      -0.000765
     15 C                     0.098197       0.001815
     16 H                     0.267260       0.000506
     17 H                     0.186303      -0.000163
     18 H                     0.188589      -0.000021
     19 C                    -1.208164      -0.004870
     20 C                    -0.840667       0.024791
     21 C                    -0.427579       0.002399
     22 C                     0.386741      -0.002637
     23 C                     0.560397       0.000431
     24 C                     1.058672       0.002466
     25 O                    -0.141883       0.008762
     26 O                    -0.091117      -0.002521
     27 H                     0.166104      -0.000393
     28 H                     0.151322       0.000865
     29 H                     0.336465       0.000095
     30 H                     0.354307       0.000068
     31 H                     0.388835      -0.000192
  --------------------------------------------------------
  Sum of atomic charges =    -1.000000

                    Cartesian Multipole Moments
 -----------------------------------------------------------------
    Charge (ESU x 10^10)
                -4.8032
    Dipole Moment (Debye)
         X      -4.8113      Y     -10.0505      Z     -29.1157
       Tot      31.1750
    Quadrupole Moments (Debye-Ang)
        XX    -125.6809     XY     -22.9977     YY    -180.9137
        XZ     -29.8520     YZ     -58.5136     ZZ    -318.8012

 Total job time:  1023.81s(wall), 7954.94s(cpu)
        *  Thank you very much for using Q-Chem.  Have a nice day.  *
