 Gaussian 16, Revision A.03,
 Gaussian 16:  ES64L-G16RevA.03 25-Dec-2016

 --------------------------------------
 #P UB3LYP/6-311++G(d,p) nosym opt freq
 --------------------------------------

 -------
 Radical
 -------
 Symbolic Z-matrix:
 Charge = -1 Multiplicity = 2

 SCF Done:  E(UB3LYP) =  -1389.33866740     A.U. after   23 cycles
 Optimization completed.
    -- Stationary point found.
 Normal termination of Gaussian 16 at Wed Jan 10 17:07:18 2024.

 ----------------------------------------------------------------------
 #P Geom=AllCheck Guess=TCheck SCRF=Check GenChk UB3LYP/6-311++G(d,p) F
 req
 ----------------------------------------------------------------------

 Structure from the checkpoint file:  "097-rad.chk"
 -------
 Radical
 -------
 Charge = -1 Multiplicity = 2

                          Input orientation:
 ---------------------------------------------------------------------
 Center     Atomic      Atomic             Coordinates (Angstroms)
 Number     Number       Type             X           Y           Z
 ---------------------------------------------------------------------
      1          6           0        1.198426    4.248795    5.343036
      2          6           0        1.456757    4.003082    3.937491
      3          6           0        0.975586    2.912380    3.286132
      4          6           0        0.160876    1.902253    3.938521
      5          6           0       -0.087585    2.134234    5.356471
      6          6           0        0.400775    3.239191    6.032168
      7          8           0        1.629979    5.269236    5.935902
      8          8           0       -0.304354    0.923397    3.308579
      9          1           0        2.057254    4.749574    3.426393
     10          1           0        1.172837    2.745769    2.231553
     11         16           0       -1.085791    0.892635    6.205302
     12          6           0        0.233851    3.510297    7.502835
     13          8           0        1.010802    3.165809    8.356244
     14          8           0       -0.849008    4.282244    7.742017
     15          6           0       -1.070719    4.604676    9.119462
     16          1           0       -1.962255    5.230743    9.134463
     17          1           0       -0.216612    5.147227    9.529720
     18          1           0       -1.232409    3.692843    9.697949
     19          6           0       -2.680468    0.888533    5.337159
     20          6           0       -2.911643   -0.025448    4.313310
     21          6           0       -3.662699    1.786598    5.748550
     22          6           0       -4.159587   -0.038607    3.692995
     23          6           0       -4.904135    1.770265    5.115164
     24          6           0       -5.152830    0.856975    4.090218
     25          8           0       -0.498343   -0.445068    6.065184
     26          8           0       -1.377881    1.402661    7.558617
     27          1           0       -2.115056   -0.689712    4.009621
     28          1           0       -3.451119    2.476125    6.556372
     29          1           0       -4.352482   -0.744667    2.892509
     30          1           0       -5.676298    2.465903    5.425802
     31          1           0       -6.120447    0.845285    3.599019
 ---------------------------------------------------------------------

 SCF Done:  E(UB3LYP) =  -1389.33866740     A.U. after    2 cycles

 Alpha  occ. eigenvalues --  -88.93564 -19.05685 -18.99796 -18.99757 -18.99740
 Alpha  occ. eigenvalues --  -18.96963 -18.96931 -10.19310 -10.12375 -10.12253
 Alpha  occ. eigenvalues --  -10.11807 -10.11017 -10.10174 -10.09885 -10.09829
 Alpha  occ. eigenvalues --  -10.09657 -10.09377 -10.09347 -10.08828 -10.06493
 Alpha  occ. eigenvalues --  -10.06385  -7.99907  -5.96174  -5.96089  -5.96023
 Alpha  occ. eigenvalues --   -0.99867  -0.99099  -0.91053  -0.89782  -0.89348
 Alpha  occ. eigenvalues --   -0.88632  -0.78165  -0.73215  -0.68432  -0.67043
 Alpha  occ. eigenvalues --   -0.66762  -0.63361  -0.59662  -0.56460  -0.52971
 Alpha  occ. eigenvalues --   -0.52592  -0.50571  -0.47266  -0.45605  -0.43833
 Alpha  occ. eigenvalues --   -0.40708  -0.39331  -0.38650  -0.38008  -0.37497
 Alpha  occ. eigenvalues --   -0.36790  -0.36538  -0.35948  -0.34795  -0.34520
 Alpha  occ. eigenvalues --   -0.33181  -0.32192  -0.30528  -0.30045  -0.29432
 Alpha  occ. eigenvalues --   -0.28863  -0.28635  -0.27620  -0.27118  -0.26721
 Alpha  occ. eigenvalues --   -0.26645  -0.25348  -0.22286  -0.20942  -0.20191
 Alpha  occ. eigenvalues --   -0.19145  -0.18956  -0.18477  -0.17778  -0.17576
 Alpha  occ. eigenvalues --   -0.17064  -0.15746  -0.13491  -0.12745  -0.05882
 Alpha virt. eigenvalues --    0.04960   0.06218   0.06819   0.07698   0.08182
 Alpha virt. eigenvalues --    0.08591   0.09243   0.09861   0.11421   0.11776
 Alpha virt. eigenvalues --    0.11929   0.12119   0.12621   0.12962   0.13286

  Beta  occ. eigenvalues --  -88.93567 -19.05679 -18.99771 -18.99748 -18.99742
  Beta  occ. eigenvalues --  -18.96276 -18.96155 -10.19326 -10.12306 -10.12249
  Beta  occ. eigenvalues --  -10.11749 -10.11016 -10.10169 -10.09884 -10.09828
  Beta  occ. eigenvalues --  -10.09659 -10.09372 -10.09236 -10.08548 -10.06429
  Beta  occ. eigenvalues --  -10.06304  -7.99909  -5.96175  -5.96090  -5.96028
  Beta  occ. eigenvalues --   -0.99841  -0.99080  -0.91002  -0.88857  -0.88439
  Beta  occ. eigenvalues --   -0.87969  -0.78158  -0.72572  -0.68386  -0.67035
  Beta  occ. eigenvalues --   -0.66516  -0.63190  -0.59157  -0.56000  -0.52962
  Beta  occ. eigenvalues --   -0.52355  -0.50395  -0.47100  -0.45472  -0.43737
  Beta  occ. eigenvalues --   -0.40511  -0.39200  -0.38480  -0.38001  -0.37405
  Beta  occ. eigenvalues --   -0.36697  -0.36480  -0.35877  -0.34666  -0.34440
  Beta  occ. eigenvalues --   -0.33127  -0.32064  -0.29567  -0.29496  -0.29032
  Beta  occ. eigenvalues --   -0.28704  -0.28080  -0.27308  -0.26957  -0.26508
  Beta  occ. eigenvalues --   -0.25316  -0.23987  -0.22212  -0.20857  -0.20032
  Beta  occ. eigenvalues --   -0.19000  -0.18800  -0.18034  -0.17681  -0.17281
  Beta  occ. eigenvalues --   -0.15039  -0.14170  -0.12798  -0.12126
  Beta virt. eigenvalues --    0.01359   0.05258   0.06220   0.06867   0.07747
  Beta virt. eigenvalues --    0.08522   0.09237   0.09550   0.09912   0.11462
  Beta virt. eigenvalues --    0.11798   0.11941   0.12125   0.12900   0.13167

 Mulliken charges and spin densities:
               1          2
     1  C   -0.458311   0.038609
     2  C   -0.092513   0.059870
     3  C    0.236348   0.051918
     4  C   -0.379935   0.025686
     5  C   -0.093977   0.117960
     6  C    0.617206   0.196214
     7  O   -0.332349   0.297600
     8  O   -0.301790   0.241690
     9  H    0.164998  -0.005321
    10  H    0.172798  -0.005962
    11  S    0.224449  -0.035064
    12  C   -0.649707  -0.022321
    13  O   -0.134369   0.007055
    14  O    0.072656  -0.000817
    15  C   -0.229910   0.001754
    16  H    0.122559   0.000769
    17  H    0.162951  -0.000267
    18  H    0.178809  -0.000023
    19  C    0.535538  -0.004017
    20  C   -0.091307   0.026292
    21  C   -0.291061   0.001371
    22  C   -0.428477  -0.003531
    23  C   -0.444901   0.001107
    24  C   -0.293753   0.003420
    25  O   -0.077005   0.008330
    26  O   -0.115302  -0.002571
    27  H    0.285175  -0.000463
    28  H    0.176734   0.000813
    29  H    0.162330   0.000119
    30  H    0.168011   0.000075
    31  H    0.134103  -0.000294
 Sum of Mulliken charges =  -1.00000   1.00000

 Dipole moment (field-independent basis, Debye):
    X=             -2.9314    Y=            -10.1277    Z=            -28.7484  Tot=             30.6208
 Quadrupole moment (field-independent basis, Debye-Ang):
   XX=           -135.8619   YY=           -181.4231   ZZ=           -317.3833
   XY=            -19.6165   XZ=            -21.1681   YZ=            -60.1934

  Exact polarizability: 233.593  45.022 218.049   8.472  38.969 218.450
 Approx polarizability: 331.736  46.018 377.490  25.049  84.513 348.557

                      1                      2                      3
                      A                      A                      A
 Frequencies --     23.9880                35.6783                46.7923
 Red. masses --      5.7574                 5.3616                 4.8332
 Frc consts  --      0.0020                 0.0040                 0.0062
 IR Inten    --      0.3320                 0.1282                 1.7782

                      4                      5                      6
                      A                      A                      A
 Frequencies --     64.4507                80.1049               105.0896
 Red. masses --      4.2493                 6.0009                 4.7848
 Frc consts  --      0.0104                 0.0227                 0.0311
 IR Inten    --      3.0382                 1.3535                 2.3429

                      7                      8                      9
                      A                      A                      A
 Frequencies --    124.7133               150.4732               151.6291
 Red. masses --      3.4758                 3.2989                 2.1391
 Frc consts  --      0.0319                 0.0440                 0.0290
 IR Inten    --      3.2977                 2.6773                 0.7171

                     10                     11                     12
                      A                      A                      A
 Frequencies --    170.5583               180.9128               206.1594
 Red. masses --      5.8923                 6.5974                 5.6104
 Frc consts  --      0.1010                 0.1272                 0.1405
 IR Inten    --      1.4628                 1.0255                 6.7511

                     13                     14                     15
                      A                      A                      A
 Frequencies --    223.3700               250.0536               260.6665
 Red. masses --      8.2991                11.2927                 9.5296
 Frc consts  --      0.2440                 0.4160                 0.3815
 IR Inten    --      1.9397                 1.0773                 0.4568

                     16                     17                     18
                      A                      A                      A
 Frequencies --    299.4647               304.8315               314.8080
 Red. masses --      8.4418                 8.7702                 5.2759
 Frc consts  --      0.4460                 0.4802                 0.3081
 IR Inten    --      1.3134                 1.2349                 9.5858

                     19                     20                     21
                      A                      A                      A
 Frequencies --    317.9839               374.0282               412.7844
 Red. masses --      5.4507                 6.1959                 2.8945
 Frc consts  --      0.3247                 0.5107                 0.2906
 IR Inten    --      2.5357                 4.7597                 0.2156

                     22                     23                     24
                      A                      A                      A
 Frequencies --    413.8003               445.9984               462.0353
 Red. masses --      8.2210                 9.1686                 5.5226
 Frc consts  --      0.8294                 1.0745                 0.6946
 IR Inten    --      8.0199                16.4080                 4.1723

                     25                     26                     27
                      A                      A                      A
 Frequencies --    494.3018               512.0195               549.0050
 Red. masses --      7.7741                 7.5492                 5.7593
 Frc consts  --      1.1191                 1.1661                 1.0228
 IR Inten    --      4.7605                29.7016                10.5856

                     28                     29                     30
                      A                      A                      A
 Frequencies --    574.4506               595.6942               628.0568
 Red. masses --      7.5274                 8.2032                 6.4215
 Frc consts  --      1.4635                 1.7151                 1.4924
 IR Inten    --     34.1417               164.9498                 0.1679

                     31                     32                     33
                      A                      A                      A
 Frequencies --    643.8722               693.3446               699.9691
 Red. masses --      3.0211                 7.4559                 1.8163
 Frc consts  --      0.7379                 2.1118                 0.5243
 IR Inten    --      1.1483                 1.7597                50.0398

                     34                     35                     36
                      A                      A                      A
 Frequencies --    721.6834               724.8479               761.3380
 Red. masses --      7.5539                 6.7048                 1.8579
 Frc consts  --      2.3180                 2.0755                 0.6345
 IR Inten    --     32.3347                60.8441                11.3115

                     37                     38                     39
                      A                      A                      A
 Frequencies --    772.8749               802.1498               839.0329
 Red. masses --      8.1932                 5.9400                 1.9835
 Frc consts  --      2.8835                 2.2519                 0.8227
 IR Inten    --      6.4154                21.2189                37.1894

                     40                     41                     42
                      A                      A                      A
 Frequencies --    846.2627               894.0118               921.9123
 Red. masses --      1.2472                10.6347                 7.0502
 Frc consts  --      0.5263                 5.0080                 3.5305
 IR Inten    --      0.6806                19.2369                20.6455

                     43                     44                     45
                      A                      A                      A
 Frequencies --    932.0176               970.9594               981.4135
 Red. masses --      1.3849                 1.2804                 1.3747
 Frc consts  --      0.7088                 0.7112                 0.7801
 IR Inten    --      0.3524                 0.0463                 0.2309

                     46                     47                     48
                      A                      A                      A
 Frequencies --    990.4555              1014.3165              1016.1591
 Red. masses --      1.2992                 6.0215                 6.1542
 Frc consts  --      0.7509                 3.6501                 3.7441
 IR Inten    --      0.1242                 4.5161                10.9182

                     49                     50                     51
                      A                      A                      A
 Frequencies --   1040.6387              1061.4671              1086.6876
 Red. masses --      3.7261                 4.0172                 4.0295
 Frc consts  --      2.3774                 2.6668                 2.8035
 IR Inten    --     19.5941                78.2011               139.3261

                     52                     53                     54
                      A                      A                      A
 Frequencies --   1095.1415              1109.9269              1111.9267
 Red. masses --      1.5873                 3.7538                 1.9979
 Frc consts  --      1.1217                 2.7246                 1.4554
 IR Inten    --      5.0099               123.0244                43.5261

                     55                     56                     57
                      A                      A                      A
 Frequencies --   1168.0909              1176.9873              1196.2717
 Red. masses --      1.2881                 1.1146                 1.1532
 Frc consts  --      1.0355                 0.9097                 0.9724
 IR Inten    --      0.2881                 0.1082                 5.1161

                     58                     59                     60
                      A                      A                      A
 Frequencies --   1201.5592              1210.0695              1235.0433
 Red. masses --      2.1190                 1.7087                 7.0417
 Frc consts  --      1.8025                 1.4741                 6.3284
 IR Inten    --     70.2074                33.3304               143.0896

                     61                     62                     63
                      A                      A                      A
 Frequencies --   1250.2126              1318.9632              1331.1432
 Red. masses --     16.6895                 2.5783                 2.5681
 Frc consts  --     15.3695                 2.6427                 2.6811
 IR Inten    --    284.4311                 3.9266                 0.0100

                     64                     65                     66
                      A                      A                      A
 Frequencies --   1344.1378              1407.1382              1457.3728
 Red. masses --      1.9469                 3.4760                 1.4012
 Frc consts  --      2.0724                 4.0551                 1.7534
 IR Inten    --      2.3910                35.7809                22.8183

                     67                     68                     69
                      A                      A                      A
 Frequencies --   1471.1943              1473.7893              1480.0140
 Red. masses --      2.4968                 3.3184                 1.0524
 Frc consts  --      3.1840                 4.2466                 1.3582
 IR Inten    --     69.7583               111.6027                13.3343

                     70                     71                     72
                      A                      A                      A
 Frequencies --   1497.0915              1505.8757              1522.9076
 Red. masses --      1.0487                 2.0419                 9.6788
 Frc consts  --      1.3848                 2.7282                13.2257
 IR Inten    --      5.2409                 7.2993                51.2159

                     73                     74                     75
                      A                      A                      A
 Frequencies --   1548.9530              1621.0863              1623.5328
 Red. masses --      8.4079                 5.4177                 5.8522
 Frc consts  --     11.8854                 8.3884                 9.0885
 IR Inten    --    309.2213                 1.7376                 0.9417

                     76                     77                     78
                      A                      A                      A
 Frequencies --   1636.4599              1787.0827              3036.6532
 Red. masses --      7.4092                12.0434                 1.0287
 Frc consts  --     11.6904                22.6616                 5.5891
 IR Inten    --     16.9270               285.0463                61.6381

                     79                     80                     81
                      A                      A                      A
 Frequencies --   3107.2450              3130.7968              3147.6981
 Red. masses --      1.1065                 1.1058                 1.0856
 Frc consts  --      6.2941                 6.3858                 6.3372
 IR Inten    --     20.3274                24.1720                10.3893

                     82                     83                     84
                      A                      A                      A
 Frequencies --   3150.0258              3165.3492              3168.5513
 Red. masses --      1.0851                 1.0899                 1.0958
 Frc consts  --      6.3436                 6.4338                 6.4818
 IR Inten    --      1.6627                26.3454                31.8082

                     85                     86                     87
                      A                      A                      A
 Frequencies --   3176.1100              3198.7318              3226.4962
 Red. masses --      1.0953                 1.0931                 1.0927
 Frc consts  --      6.5100                 6.5897                 6.7021
 IR Inten    --     38.8961                 6.5558                 5.3411

 - Thermochemistry -
 -------------------
 Temperature   298.150 Kelvin.  Pressure   1.00000 Atm.
 Atom     1 has atomic number  6 and mass  12.00000

 Molecular mass:   306.01981 amu.
 Principal axes and moments of inertia in atomic units:
                           1         2         3
     Eigenvalues --  4040.053007511.876619088.18163
           X            0.71861  -0.51188  -0.47072
           Y            0.59478   0.10168   0.79743
           Z            0.36033   0.85302  -0.37753
 This molecule is an asymmetric top.
 Rotational symmetry number  1.
 Warning -- assumption of classical behavior for rotation
           may cause significant error
 Rotational temperatures (Kelvin)      0.02144     0.01153     0.00953
 Rotational constants (GHZ):           0.44671     0.24025     0.19858
 Zero-point vibrational energy     565109.6 (Joules/Mol)
                                  135.06443 (Kcal/Mol)
 Warning -- explicit consideration of  29 degrees of freedom as
           vibrations may cause significant error
 Vibrational temperatures:     34.51    51.33    67.32    92.73   115.25
          (Kelvin)            151.20   179.43   216.50   218.16   245.40
                              260.29   296.62   321.38   359.77   375.04
                              430.86   438.58   452.94   457.51   538.14
                              593.90   595.37   641.69   664.77   711.19
                              736.68   789.90   826.51   857.07   903.63
                              926.39   997.57  1007.10  1038.34  1042.89
                             1095.40  1111.99  1154.11  1207.18  1217.58
                             1286.28  1326.43  1340.97  1396.99  1412.04
                             1425.04  1459.38  1462.03  1497.25  1527.21
                             1563.50  1575.66  1596.94  1599.81  1680.62
                             1693.42  1721.17  1728.78  1741.02  1776.95
                             1798.78  1897.69  1915.22  1933.91  2024.56
                             2096.83  2116.72  2120.45  2129.41  2153.98
                             2166.62  2191.12  2228.60  2332.38  2335.90
                             2354.50  2571.21  4369.07  4470.63  4504.52
                             4528.84  4532.18  4554.23  4558.84  4569.71
                             4602.26  4642.21

 Zero-point correction=                           0.215239 (Hartree/Particle)
 Thermal correction to Energy=                    0.234044
 Thermal correction to Enthalpy=                  0.234988
 Thermal correction to Gibbs Free Energy=         0.166258
 Sum of electronic and zero-point Energies=          -1389.123429
 Sum of electronic and thermal Energies=             -1389.104624
 Sum of electronic and thermal Enthalpies=           -1389.103680
 Sum of electronic and thermal Free Energies=        -1389.172410

                     E (Thermal)             CV                S
                      KCal/Mol        Cal/Mol-Kelvin    Cal/Mol-Kelvin
 Total                  146.865             70.102            144.655
 Electronic               0.000              0.000              1.377
 Translational            0.889              2.981             43.052
 Rotational               0.889              2.981             33.977
 Vibrational            145.087             64.140             66.248
 Vibration     1          0.593              1.985              6.273
 Vibration     2          0.594              1.982              5.486
 Vibration     3          0.595              1.979              4.949
 Vibration     4          0.597              1.971              4.316
 Vibration     5          0.600              1.963              3.888
 Vibration     6          0.605              1.945              3.358
 Vibration     7          0.610              1.928              3.026
 Vibration     8          0.618              1.902              2.666
 Vibration     9          0.619              1.901              2.652
 Vibration    10          0.626              1.879              2.429
 Vibration    11          0.630              1.866              2.319
 Vibration    12          0.641              1.831              2.077
 Vibration    13          0.649              1.805              1.932
 Vibration    14          0.663              1.763              1.730
 Vibration    15          0.669              1.745              1.657
 Vibration    16          0.692              1.675              1.420
 Vibration    17          0.696              1.665              1.390
 Vibration    18          0.702              1.645              1.337
 Vibration    19          0.704              1.639              1.320
 Vibration    20          0.745              1.525              1.063
 Vibration    21          0.777              1.442              0.917
 Vibration    22          0.777              1.440              0.913
 Vibration    23          0.805              1.370              0.808
 Vibration    24          0.820              1.334              0.760
 Vibration    25          0.850              1.263              0.673
 Vibration    26          0.867              1.223              0.629
 Vibration    27          0.904              1.142              0.546
 Vibration    28          0.931              1.087              0.496
 Vibration    29          0.953              1.041              0.457

                           ! Non-Optimized Parameters !
 Normal termination of Gaussian 16 at Wed Jan 10 18:52:27 2024.
