 Q-Chem 5.4, Q-Chem, Inc., Pleasanton, CA (2021)
 Q-Chem 5.4.0 for Intel X86 EM64T Linux

User input:
--------------------------------------------------------------
$molecule
-2 1
I                 -2.8034190000     -2.0468300000      0.0038360000
C                 -1.0633320000     -0.7444200000      0.0011460000
C                 -1.2894660000      0.6297810000     -0.0163880000
C                 -0.2101650000      1.5764500000     -0.0197460000
O                 -0.3814680000      2.8587170000     -0.0357700000
C                  1.0792640000      0.9460470000     -0.0033110000
C                  1.2213200000     -0.4397240000      0.0137730000
I                  3.2416880000     -1.2402490000      0.0370630000
C                  0.1922730000     -1.4410330000      0.0180700000
O                  0.3610010000     -2.7078200000      0.0339720000
H                 -2.3007670000      1.0209290000     -0.0280560000
H                  1.9530710000      1.5881520000     -0.0045890000
$end
$rem
MAX_SCF_CYCLES=200
BASIS  =  6-311++G(d,p)
GUI  =  2
JOB_TYPE  =  SP
METHOD  =  B3LYP
SOLVENT_METHOD = COSMO
$end
$solvent
dielectric 37.219
opticaldielectric 1.43
$end

--------------------------------------------------------------

             Standard Nuclear Orientation (Angstroms)
    I     Atom           X                Y                Z
 ----------------------------------------------------------------
    1      I       3.0493900997    -0.6036630457     0.0000321149
    2      C       1.1523840940     0.4572563738    -0.0000745409
    3      C       1.1948855757     1.8494007755    -0.0000064602
    4      C      -0.0000979634     2.6450756219     0.0000130637
    5      O       0.0002050196     3.9388337345     0.0000190803
    6      C      -1.1949003882     1.8496182959    -0.0000636744
    7      C      -1.1525310526     0.4571248962    -0.0001399156
    8      I      -3.0493799062    -0.6036455550     0.0000384752
    9      C      -0.0001383121    -0.3993602916    -0.0001135349
   10      O       0.0000644797    -1.6774335552    -0.0001944881
   11      H       2.1456226945     2.3709000974     0.0000247578
   12      H      -2.1459306654     2.3705602784    -0.0000523982
 ----------------------------------------------------------------

   11  -14219.4130737888      5.65e-06  Convergence criterion met
 Total energy in the final basis set =   -14219.4130737888
    5  -14219.6913962349      9.98e-06  Convergence criterion met
 Total energy in the final basis set =   -14219.6913962349

                    Orbital Energies (a.u.)
 --------------------------------------------------------------

 Alpha MOs
 -- Occupied --
*****************-176.2750-176.2750-165.6784-165.6784-165.6767-165.6767
********-165.6767 -35.7714 -35.7714 -31.2638 -31.2638 -31.2591 -31.2591
-31.2589 -31.2589 -22.9145 -22.9145 -22.9134 -22.9134 -22.9133 -22.9133
-22.9100 -22.9100 -22.9100 -22.9100 -19.0381 -19.0327 -10.2033 -10.1910
-10.1888 -10.1888 -10.1438 -10.1438  -6.3208  -6.3208  -4.7312  -4.7312
 -4.7197  -4.7197  -4.7191  -4.7191  -1.9970  -1.9970  -1.9938  -1.9938
 -1.9933  -1.9933  -1.9833  -1.9833  -1.9832  -1.9832  -0.9596  -0.9460
 -0.8090  -0.7319  -0.6791  -0.6286  -0.6258  -0.5420  -0.5329  -0.4552
 -0.4499  -0.3879  -0.3838  -0.3786  -0.3731  -0.3398  -0.3351  -0.3098
 -0.2862  -0.2668  -0.2517  -0.2517  -0.2369  -0.2170  -0.2159  -0.2119
 -0.1404

          Ground-State Mulliken Net Atomic Charges

     Atom                 Charge (a.u.)
  ----------------------------------------
      1 I                    -0.148342
      2 C                     1.310435
      3 C                    -0.658384
      4 C                    -0.165087
      5 O                    -0.755221
      6 C                    -0.658658
      7 C                     1.310072
      8 I                    -0.148155
      9 C                    -1.810360
     10 O                    -0.572661
     11 H                     0.148089
     12 H                     0.148268
  ----------------------------------------
  Sum of atomic charges =    -2.000000

                    Cartesian Multipole Moments
 -----------------------------------------------------------------
    Charge (ESU x 10^10)
                -9.6064
    Dipole Moment (Debye)
         X       0.0032      Y      -8.1738      Z      -0.0001
       Tot       8.1738
    Quadrupole Moments (Debye-Ang)
        XX    -129.6555     XY       0.0082     YY    -182.0222
        XZ      -0.0012     YZ      -0.0017     ZZ    -112.5603

 Total job time:  19.62s(wall), 141.27s(cpu)
        *  Thank you very much for using Q-Chem.  Have a nice day.  *
