 Q-Chem 5.4, Q-Chem, Inc., Pleasanton, CA (2021)
 Q-Chem 5.4.0 for Intel X86 EM64T Linux

User input:
--------------------------------------------------------------
$molecule
-1 2
C                 -4.7643580000     -0.2443920000     -0.5027840000
C                 -3.9689000000     -0.4921960000      0.7917440000
C                 -2.5445040000      0.0150710000      0.7278290000
C                 -2.2690400000      1.3971280000      0.8896690000
C                 -0.9782240000      1.8740770000      0.8016090000
C                  0.1090300000      1.0092880000      0.5478990000
C                  1.4616290000      1.5611910000      0.4633330000
O                  1.6910310000      2.7885610000      0.6057530000
C                  2.5326440000      0.5966400000      0.2026730000
C                  3.8650940000      1.0553650000      0.1070910000
C                  4.9075920000      0.1838930000     -0.1370150000
C                  4.6484920000     -1.1959400000     -0.2961510000
C                  3.3544280000     -1.6680140000     -0.2068390000
C                  2.2708790000     -0.7961600000      0.0421870000
C                  0.9167570000     -1.3462500000      0.1283870000
O                  0.6867820000     -2.5745500000     -0.0125240000
C                 -0.1530690000     -0.3815550000      0.3873910000
C                 -1.4858870000     -0.8405880000      0.4844700000
H                 -4.2898410000     -0.7496390000     -1.3486710000
H                 -5.7923390000     -0.6144370000     -0.4151760000
H                 -4.8073180000      0.8229520000     -0.7387180000
H                 -4.4934220000     -0.0114310000      1.6275660000
H                 -3.9597340000     -1.5659540000      1.0059670000
H                 -3.0867560000      2.0849610000      1.0922510000
H                 -0.7565000000      2.9276600000      0.9288370000
H                  4.0338210000      2.1187500000      0.2334560000
H                  5.9253970000      0.5565660000     -0.2069660000
H                  5.4675400000     -1.8830060000     -0.4882470000
H                  3.1266040000     -2.7212990000     -0.3245080000
H                 -1.6478270000     -1.9066930000      0.3611890000
$end
$rem
MAX_SCF_CYCLES=200
BASIS  =  6-311++G(d,p)
GUI  =  2
JOB_TYPE  =  SP
METHOD  =  B3LYP
SOLVENT_METHOD = PCM
$end
$pcm
theory = CPCM
$end
$solvent
dielectric 37.219
opticaldielectric 1.43
$end

--------------------------------------------------------------

             Standard Nuclear Orientation (Angstroms)
    I     Atom           X                Y                Z
 ----------------------------------------------------------------
    1      C      -4.7643580000    -0.2443920000    -0.5027840000
    2      C      -3.9689000000    -0.4921960000     0.7917440000
    3      C      -2.5445040000     0.0150710000     0.7278290000
    4      C      -2.2690400000     1.3971280000     0.8896690000
    5      C      -0.9782240000     1.8740770000     0.8016090000
    6      C       0.1090300000     1.0092880000     0.5478990000
    7      C       1.4616290000     1.5611910000     0.4633330000
    8      O       1.6910310000     2.7885610000     0.6057530000
    9      C       2.5326440000     0.5966400000     0.2026730000
   10      C       3.8650940000     1.0553650000     0.1070910000
   11      C       4.9075920000     0.1838930000    -0.1370150000
   12      C       4.6484920000    -1.1959400000    -0.2961510000
   13      C       3.3544280000    -1.6680140000    -0.2068390000
   14      C       2.2708790000    -0.7961600000     0.0421870000
   15      C       0.9167570000    -1.3462500000     0.1283870000
   16      O       0.6867820000    -2.5745500000    -0.0125240000
   17      C      -0.1530690000    -0.3815550000     0.3873910000
   18      C      -1.4858870000    -0.8405880000     0.4844700000
   19      H      -4.2898410000    -0.7496390000    -1.3486710000
   20      H      -5.7923390000    -0.6144370000    -0.4151760000
   21      H      -4.8073180000     0.8229520000    -0.7387180000
   22      H      -4.4934220000    -0.0114310000     1.6275660000
   23      H      -3.9597340000    -1.5659540000     1.0059670000
   24      H      -3.0867560000     2.0849610000     1.0922510000
   25      H      -0.7565000000     2.9276600000     0.9288370000
   26      H       4.0338210000     2.1187500000     0.2334560000
   27      H       5.9253970000     0.5565660000    -0.2069660000
   28      H       5.4675400000    -1.8830060000    -0.4882470000
   29      H       3.1266040000    -2.7212990000    -0.3245080000
   30      H      -1.6478270000    -1.9066930000     0.3611890000
 ----------------------------------------------------------------

    8    -767.7503646885      4.33e-06  Convergence criterion met
 Total energy in the final basis set =     -767.7503646885

                    Orbital Energies (a.u.)
 --------------------------------------------------------------

 Alpha MOs
 -- Occupied --
-19.0768 -19.0767 -10.2249 -10.2238 -10.1771 -10.1725 -10.1721 -10.1714
-10.1714 -10.1709 -10.1701 -10.1692 -10.1690 -10.1687 -10.1680 -10.1661
-10.1644 -10.1551  -1.0043  -1.0018  -0.8617  -0.8515  -0.7957  -0.7656
 -0.7503  -0.7442  -0.7224  -0.6664  -0.6418  -0.6236  -0.5949  -0.5833
 -0.5549  -0.5294  -0.5156  -0.4731  -0.4668  -0.4564  -0.4494  -0.4302
 -0.4242  -0.4227  -0.4190  -0.4165  -0.4109  -0.4002  -0.3945  -0.3817
 -0.3766  -0.3605  -0.3578  -0.3474  -0.3377  -0.3339  -0.3317  -0.3261
 -0.2659  -0.2576  -0.2537  -0.2482  -0.2425  -0.2383  -0.1416

 Beta MOs
 -- Occupied --
-19.0718 -19.0715 -10.2230 -10.2218 -10.1767 -10.1718 -10.1713 -10.1709
-10.1706 -10.1704 -10.1695 -10.1691 -10.1689 -10.1686 -10.1676 -10.1661
-10.1643 -10.1551  -0.9951  -0.9924  -0.8592  -0.8503  -0.7930  -0.7634
 -0.7479  -0.7425  -0.7210  -0.6594  -0.6401  -0.6217  -0.5934  -0.5825
 -0.5523  -0.5274  -0.5138  -0.4708  -0.4652  -0.4548  -0.4488  -0.4294
 -0.4232  -0.4186  -0.4151  -0.4091  -0.4066  -0.3985  -0.3924  -0.3752
 -0.3592  -0.3586  -0.3545  -0.3467  -0.3369  -0.3325  -0.3254  -0.3213
 -0.2533  -0.2470  -0.2448  -0.2435  -0.2367  -0.2336

          Ground-State Mulliken Net Atomic Charges

     Atom                 Charge (a.u.)    Spin (a.u.)
  --------------------------------------------------------
      1 C                    -0.666739      -0.001120
      2 C                    -0.166991      -0.000693
      3 C                     0.624308       0.034109
      4 C                    -0.500734       0.036833
      5 C                     0.026275       0.027185
      6 C                     0.180849       0.024377
      7 C                    -0.600464       0.107193
      8 O                    -0.482272       0.192208
      9 C                     0.144795       0.033781
     10 C                     0.094632       0.027174
     11 C                    -0.494802       0.041781
     12 C                    -0.486932       0.035389
     13 C                     0.047440       0.030839
     14 C                     0.340228       0.033754
     15 C                    -0.553336       0.116161
     16 O                    -0.481329       0.199866
     17 C                     0.238711       0.046170
     18 C                    -0.313141       0.028625
     19 H                     0.145918       0.000818
     20 H                     0.147828       0.000223
     21 H                     0.149411      -0.000480
     22 H                     0.157225       0.001923
     23 H                     0.176859      -0.000046
     24 H                     0.204329      -0.002924
     25 H                     0.173606      -0.001479
     26 H                     0.170329      -0.001369
     27 H                     0.196336      -0.003381
     28 H                     0.197815      -0.003037
     29 H                     0.168222      -0.001712
     30 H                     0.161625      -0.002166
  --------------------------------------------------------
  Sum of atomic charges =    -1.000000

                    Cartesian Multipole Moments
 -----------------------------------------------------------------
    Charge (ESU x 10^10)
                -4.8032
    Dipole Moment (Debye)
         X      -6.5018      Y      -0.5654      Z      -1.3697
       Tot       6.6685
    Quadrupole Moments (Debye-Ang)
        XX    -107.0366     XY      -7.7103     YY    -141.3570
        XZ      -4.5936     YZ      -3.0938     ZZ    -113.7267

 Total job time:  98.31s(wall), 444.43s(cpu)
        *  Thank you very much for using Q-Chem.  Have a nice day.  *
