 Q-Chem 5.4, Q-Chem, Inc., Pleasanton, CA (2021)
 Q-Chem 5.4.0 for Intel X86 EM64T Linux

User input:
--------------------------------------------------------------
$molecule
0 1
C                  1.3505880000      4.2125280000      5.2280880000
C                  1.8316280000      4.0647430000      3.8300850000
C                  1.6453550000      2.9454210000      3.1139020000
C                  0.9817780000      1.7592570000      3.7390210000
C                  0.4061570000      1.9478340000      5.0946020000
C                  0.5317400000      3.0920030000      5.7852930000
O                  1.6623070000      5.1868750000      5.8854910000
O                  0.9428060000      0.6742420000      3.1938140000
H                  2.3632610000      4.9212260000      3.4311290000
C                 -0.1000180000      3.2018640000      7.1458710000
O                 -0.0880110000      2.3111200000      7.9599310000
O                 -0.7111250000      4.3783800000      7.3061970000
C                 -1.3524020000      4.5936360000      8.5812900000
H                 -1.7817210000      5.5903050000      8.5203820000
H                 -0.6161610000      4.5380290000      9.3834810000
H                 -2.1281030000      3.8451160000      8.7460250000
C                  2.0447260000      2.8529240000      1.6700670000
O                  3.3131550000      3.2525530000      1.4815160000
O                  1.2959490000      2.4997450000      0.7971510000
C                  3.7788110000      3.2380070000      0.1136050000
H                 -0.1175100000      1.0921720000      5.5065370000
H                  4.8140240000      3.5664840000      0.1597280000
H                  3.1822670000      3.9182970000     -0.4950860000
H                  3.7092580000      2.2297760000     -0.2950980000
$end

$rem
BASIS  =  6-311++G(d,p)
GUI  =  2
JOB_TYPE  =  SP
METHOD  =  B3LYP
SCF_CONVERGENCE  = 8
SOLVENT_METHOD = sm12
$end

$smx
solvent dimethylformamide
charges CM5
$end

--------------------------------------------------------------

             Standard Nuclear Orientation (Angstroms)
    I     Atom           X                Y                Z
 ----------------------------------------------------------------
    1      C       1.3505880000     4.2125280000     5.2280880000
    2      C       1.8316280000     4.0647430000     3.8300850000
    3      C       1.6453550000     2.9454210000     3.1139020000
    4      C       0.9817780000     1.7592570000     3.7390210000
    5      C       0.4061570000     1.9478340000     5.0946020000
    6      C       0.5317400000     3.0920030000     5.7852930000
    7      O       1.6623070000     5.1868750000     5.8854910000
    8      O       0.9428060000     0.6742420000     3.1938140000
    9      H       2.3632610000     4.9212260000     3.4311290000
   10      C      -0.1000180000     3.2018640000     7.1458710000
   11      O      -0.0880110000     2.3111200000     7.9599310000
   12      O      -0.7111250000     4.3783800000     7.3061970000
   13      C      -1.3524020000     4.5936360000     8.5812900000
   14      H      -1.7817210000     5.5903050000     8.5203820000
   15      H      -0.6161610000     4.5380290000     9.3834810000
   16      H      -2.1281030000     3.8451160000     8.7460250000
   17      C       2.0447260000     2.8529240000     1.6700670000
   18      O       3.3131550000     3.2525530000     1.4815160000
   19      O       1.2959490000     2.4997450000     0.7971510000
   20      C       3.7788110000     3.2380070000     0.1136050000
   21      H      -0.1175100000     1.0921720000     5.5065370000
   22      H       4.8140240000     3.5664840000     0.1597280000
   23      H       3.1822670000     3.9182970000    -0.4950860000
   24      H       3.7092580000     2.2297760000    -0.2950980000
 ----------------------------------------------------------------

   16    -837.4314233003      3.08e-09  Convergence criterion met
 Total energy in the final basis set =     -837.4534549133

                    Orbital Energies (a.u.)
 --------------------------------------------------------------

 Alpha MOs
 -- Occupied --
-19.1866 -19.1849 -19.1543 -19.1539 -19.1340 -19.1331 -10.3274 -10.3273
-10.3032 -10.3032 -10.2394 -10.2392 -10.2312 -10.2310 -10.2243 -10.2242
 -1.1299  -1.1293  -1.0869  -1.0849  -1.0445  -1.0438  -0.8878  -0.8329
 -0.7561  -0.7474  -0.7197  -0.6734  -0.6403  -0.5963  -0.5759  -0.5518
 -0.5454  -0.5386  -0.4999  -0.4976  -0.4943  -0.4927  -0.4828  -0.4740
 -0.4630  -0.4627  -0.4387  -0.4348  -0.4318  -0.4241  -0.4101  -0.4064
 -0.3746  -0.3732  -0.3324  -0.3292  -0.3262  -0.3239  -0.3086  -0.3053
 -0.3025  -0.2834

          Ground-State Mulliken Net Atomic Charges

     Atom                 Charge (a.u.)
  ----------------------------------------
      1 C                    -1.252641
      2 C                     0.790885
      3 C                     0.896251
      4 C                    -1.621012
      5 C                     0.473700
      6 C                     1.011718
      7 O                    -0.246770
      8 O                    -0.274924
      9 H                     0.333060
     10 C                    -0.376513
     11 O                    -0.277333
     12 O                    -0.062158
     13 C                    -0.151836
     14 H                     0.228795
     15 H                     0.208433
     16 H                     0.203754
     17 C                    -0.365323
     18 O                    -0.035855
     19 O                    -0.286447
     20 C                    -0.137311
     21 H                     0.301653
     22 H                     0.239675
     23 H                     0.211054
     24 H                     0.189143
  ----------------------------------------
  Sum of atomic charges =     0.000000

                    Cartesian Multipole Moments
 -----------------------------------------------------------------
    Charge (ESU x 10^10)
                -0.0000
    Dipole Moment (Debye)
         X       0.6862      Y       3.0107      Z      -0.3042
       Tot       3.1028
    Quadrupole Moments (Debye-Ang)
        XX     -77.1984     XY       0.9973     YY     -81.6137
        XZ     -17.8978     YZ       9.8470     ZZ     -87.9551

 Total job time:  375.88s(wall), 2933.33s(cpu)
        *  Thank you very much for using Q-Chem.  Have a nice day.  *
