 Q-Chem 5.4, Q-Chem, Inc., Pleasanton, CA (2021)
 Q-Chem 5.4.0 for Intel X86 EM64T Linux

User input:
--------------------------------------------------------------
$molecule
0 1
C                 -4.9829600000     -1.4364650000     -0.5850250000
C                 -3.5433410000     -1.7298350000     -0.2879670000
O                 -3.0962410000     -2.2596890000      0.6874190000
O                 -2.7484600000     -1.3077540000     -1.3406740000
C                 -1.3767260000     -1.3093160000     -1.1740020000
C                 -0.6773360000     -2.3148660000     -1.8312710000
C                  0.7043780000     -2.3458290000     -1.7810210000
C                  1.3985700000     -1.3714190000     -1.0732590000
O                  2.7774210000     -1.4318630000     -1.1399330000
C                  3.4740860000     -1.8854480000     -0.0321340000
C                  4.9432200000     -1.6581810000     -0.2238800000
O                  2.9339910000     -2.3909490000      0.9084980000
C                  0.7194300000     -0.3329490000     -0.4140920000
C                  1.4794020000      0.7440770000      0.2972170000
O                  2.6887770000      0.6940550000      0.4531350000
C                  0.7142610000      1.9153070000      0.8070080000
C                  1.4143070000      2.9899700000      1.3663860000
C                  0.7235610000      4.0890960000      1.8596920000
C                 -0.6736510000      4.1198550000      1.8097650000
C                 -1.3750620000      3.0513680000      1.2666900000
C                 -0.6847680000      1.9461220000      0.7569750000
C                 -1.4622420000      0.8089380000      0.1918090000
O                 -2.6806820000      0.8122380000      0.2608960000
C                 -0.7014300000     -0.3013570000     -0.4654330000
H                 -5.1356960000     -0.3597410000     -0.4788850000
H                 -5.6161060000     -1.9689750000      0.1216180000
H                 -5.2322970000     -1.7129690000     -1.6106360000
H                 -1.2361320000     -3.0657360000     -2.3756230000
H                  1.2670800000     -3.1219020000     -2.2844670000
H                  5.1366350000     -0.5895400000     -0.1031760000
H                  5.2531060000     -1.9455250000     -1.2297860000
H                  5.4988930000     -2.2189620000      0.5248240000
H                  2.4949940000      2.9398380000      1.4048920000
H                  1.2689770000      4.9224990000      2.2875810000
H                 -1.2110600000      4.9770850000      2.1989670000
H                 -2.4569000000      3.0488230000      1.2278930000
$end
$rem
MAX_SCF_CYCLES=200
BASIS  =  6-311++G(d,p)
GUI  =  2
JOB_TYPE  =  SP
METHOD  =  B3LYP
SOLVENT_METHOD = PCM
$end
$pcm
theory = CPCM
$end
$solvent
dielectric 37.219
opticaldielectric 1.43
$end

--------------------------------------------------------------

             Standard Nuclear Orientation (Angstroms)
    I     Atom           X                Y                Z
 ----------------------------------------------------------------
    1      C      -4.9829600000    -1.4364650000    -0.5850250000
    2      C      -3.5433410000    -1.7298350000    -0.2879670000
    3      O      -3.0962410000    -2.2596890000     0.6874190000
    4      O      -2.7484600000    -1.3077540000    -1.3406740000
    5      C      -1.3767260000    -1.3093160000    -1.1740020000
    6      C      -0.6773360000    -2.3148660000    -1.8312710000
    7      C       0.7043780000    -2.3458290000    -1.7810210000
    8      C       1.3985700000    -1.3714190000    -1.0732590000
    9      O       2.7774210000    -1.4318630000    -1.1399330000
   10      C       3.4740860000    -1.8854480000    -0.0321340000
   11      C       4.9432200000    -1.6581810000    -0.2238800000
   12      O       2.9339910000    -2.3909490000     0.9084980000
   13      C       0.7194300000    -0.3329490000    -0.4140920000
   14      C       1.4794020000     0.7440770000     0.2972170000
   15      O       2.6887770000     0.6940550000     0.4531350000
   16      C       0.7142610000     1.9153070000     0.8070080000
   17      C       1.4143070000     2.9899700000     1.3663860000
   18      C       0.7235610000     4.0890960000     1.8596920000
   19      C      -0.6736510000     4.1198550000     1.8097650000
   20      C      -1.3750620000     3.0513680000     1.2666900000
   21      C      -0.6847680000     1.9461220000     0.7569750000
   22      C      -1.4622420000     0.8089380000     0.1918090000
   23      O      -2.6806820000     0.8122380000     0.2608960000
   24      C      -0.7014300000    -0.3013570000    -0.4654330000
   25      H      -5.1356960000    -0.3597410000    -0.4788850000
   26      H      -5.6161060000    -1.9689750000     0.1216180000
   27      H      -5.2322970000    -1.7129690000    -1.6106360000
   28      H      -1.2361320000    -3.0657360000    -2.3756230000
   29      H       1.2670800000    -3.1219020000    -2.2844670000
   30      H       5.1366350000    -0.5895400000    -0.1031760000
   31      H       5.2531060000    -1.9455250000    -1.2297860000
   32      H       5.4988930000    -2.2189620000     0.5248240000
   33      H       2.4949940000     2.9398380000     1.4048920000
   34      H       1.2689770000     4.9224990000     2.2875810000
   35      H      -1.2110600000     4.9770850000     2.1989670000
   36      H      -2.4569000000     3.0488230000     1.2278930000
 ----------------------------------------------------------------

    9   -1144.8517682367      4.42e-06  Convergence criterion met
 Total energy in the final basis set =    -1144.8517682367

                    Orbital Energies (a.u.)
 --------------------------------------------------------------

 Alpha MOs
 -- Occupied --
-19.1895 -19.1895 -19.1364 -19.1363 -19.1357 -19.1357 -10.3267 -10.3267
-10.2917 -10.2917 -10.2717 -10.2717 -10.2279 -10.2274 -10.2100 -10.2094
-10.2088 -10.2082 -10.1981 -10.1978 -10.1974 -10.1972 -10.1809 -10.1808
 -1.1345  -1.1341  -1.0734  -1.0717  -1.0548  -1.0542  -0.9028  -0.8870
 -0.8223  -0.8072  -0.7794  -0.7793  -0.7701  -0.7460  -0.7026  -0.6822
 -0.6586  -0.6576  -0.6182  -0.6064  -0.5723  -0.5718  -0.5444  -0.5237
 -0.5130  -0.5127  -0.5076  -0.5028  -0.4974  -0.4922  -0.4840  -0.4731
 -0.4647  -0.4601  -0.4590  -0.4510  -0.4508  -0.4402  -0.4314  -0.4250
 -0.4213  -0.4171  -0.4096  -0.4034  -0.3927  -0.3915  -0.3855  -0.3832
 -0.3721  -0.3692  -0.3470  -0.3404  -0.3088  -0.3067  -0.2981  -0.2913
 -0.2812  -0.2806  -0.2781  -0.2711

          Ground-State Mulliken Net Atomic Charges

     Atom                 Charge (a.u.)
  ----------------------------------------
      1 C                    -0.508929
      2 C                     0.078477
      3 O                    -0.262312
      4 O                     0.009152
      5 C                    -0.385048
      6 C                     0.049174
      7 C                     0.047456
      8 C                    -0.383937
      9 O                     0.009532
     10 C                     0.077724
     11 C                    -0.508641
     12 O                    -0.262224
     13 C                     0.769052
     14 C                    -0.424591
     15 O                    -0.258877
     16 C                     0.068067
     17 C                    -0.021073
     18 C                    -0.384256
     19 C                    -0.384136
     20 C                    -0.021676
     21 C                     0.069671
     22 C                    -0.427284
     23 O                    -0.258829
     24 C                     0.774622
     25 H                     0.206704
     26 H                     0.183479
     27 H                     0.196014
     28 H                     0.255896
     29 H                     0.255871
     30 H                     0.206611
     31 H                     0.195977
     32 H                     0.183467
     33 H                     0.200690
     34 H                     0.226855
     35 H                     0.226740
     36 H                     0.200581
  ----------------------------------------
  Sum of atomic charges =     0.000000

                    Cartesian Multipole Moments
 -----------------------------------------------------------------
    Charge (ESU x 10^10)
                -0.0000
    Dipole Moment (Debye)
         X       0.2210      Y       3.1777      Z      -4.1026
       Tot       5.1940
    Quadrupole Moments (Debye-Ang)
        XX    -119.9275     XY      -0.9056     YY    -118.0153
        XZ       1.1097     YZ      25.4760     ZZ    -134.5573

 Total job time:  155.88s(wall), 706.04s(cpu)
        *  Thank you very much for using Q-Chem.  Have a nice day.  *
