 Gaussian 16, Revision A.03,
 Gaussian 16:  ES64L-G16RevA.03 25-Dec-2016

 ----------------------------------------------------------------
 #P UB3LYP/6-311++G(d,p) SCRF=(PCM,Solvent=n,n-DiMethylFormamide)
 ----------------------------------------------------------------

 -------
 Reduced
 -------
 Symbolic Z-matrix:
 Charge = -2 Multiplicity = 1

                         Standard orientation:
 ---------------------------------------------------------------------
 Center     Atomic      Atomic             Coordinates (Angstroms)
 Number     Number       Type             X           Y           Z
 ---------------------------------------------------------------------
      1          6           0        2.137364    1.845219   -0.269304
      2          6           0        3.447160    1.421633   -0.351753
      3          6           0        3.699979    0.031078   -0.288203
      4          6           0        1.050392    0.947551   -0.132879
      5          6           0        1.337293   -0.465973   -0.069353
      6          6           0        2.687809   -0.882956   -0.154994
      7          6           0       -0.300490    1.474076   -0.066602
      8          6           0       -1.337251    0.466010    0.069309
      9          6           0       -1.050358   -0.947517    0.132829
     10          6           0        0.300531   -1.474044    0.066601
     11          6           0       -2.687773    0.882991    0.154921
     12          6           0       -3.699941   -0.031046    0.288106
     13          6           0       -3.447139   -1.421612    0.351633
     14          6           0       -2.137330   -1.845181    0.269203
     15          8           0       -0.559432    2.721749   -0.122191
     16          8           0        0.559454   -2.721720    0.121963
     17          1           0        2.890874   -1.947358   -0.121893
     18          1           0       -1.892750   -2.901266    0.311869
     19          1           0        1.892781    2.901301   -0.311992
     20          1           0       -2.890821    1.947396    0.121824
     21          1           0       -4.263825   -2.126165    0.448600
     22          8           0        5.014090   -0.488370   -0.477821
     23          8           0       -5.014045    0.488464    0.477660
     24          6           0       -6.071059    0.057305   -0.232483
     25          6           0       -7.338433    0.730362    0.257819
     26          8           0       -6.051132   -0.776978   -1.109285
     27          1           0        4.263836    2.126201   -0.448760
     28          1           0       -7.139678    1.731534    0.640295
     29          1           0       -7.772692    0.137240    1.073850
     30          1           0       -8.066634    0.765637   -0.551951
     31          6           0        6.070995   -0.057364    0.232629
     32          6           0        7.338477   -0.730206   -0.257662
     33          8           0        6.050851    0.776521    1.109787
     34          1           0        7.139817   -1.731180   -0.640709
     35          1           0        8.066438   -0.765936    0.552308
     36          1           0        7.773015   -0.136682   -1.073248
 ---------------------------------------------------------------------

 SCF Done:  E(UB3LYP) =  -1145.09158096     A.U. after   17 cycles

 The electronic state is 1-A.
 Alpha  occ. eigenvalues --  -19.17533 -19.17532 -19.11679 -19.11679 -19.02241
 Alpha  occ. eigenvalues --  -19.02240 -10.31020 -10.31020 -10.21717 -10.21717
 Alpha  occ. eigenvalues --  -10.17724 -10.17722 -10.17594 -10.17594 -10.15753
 Alpha  occ. eigenvalues --  -10.15753 -10.15428 -10.15428 -10.15342 -10.15341
 Alpha  occ. eigenvalues --  -10.14154 -10.14153 -10.13942 -10.13942  -1.11179
 Alpha  occ. eigenvalues --   -1.11179  -1.03048  -1.03047  -0.94686  -0.94355
 Alpha  occ. eigenvalues --   -0.83934  -0.83497  -0.77436  -0.76217  -0.74506
 Alpha  occ. eigenvalues --   -0.73248  -0.72896  -0.71065  -0.65313  -0.64310
 Alpha  occ. eigenvalues --   -0.61800  -0.59818  -0.57504  -0.55603  -0.52454
 Alpha  occ. eigenvalues --   -0.51390  -0.49988  -0.49415  -0.48688  -0.48612
 Alpha  occ. eigenvalues --   -0.47823  -0.47299  -0.45285  -0.44740  -0.44169
 Alpha  occ. eigenvalues --   -0.42111  -0.41499  -0.41302  -0.41217  -0.40780
 Alpha  occ. eigenvalues --   -0.39883  -0.39335  -0.39170  -0.38733  -0.37889
 Alpha  occ. eigenvalues --   -0.37188  -0.37120  -0.36261  -0.34686  -0.34532
 Alpha  occ. eigenvalues --   -0.33653  -0.33059  -0.32378  -0.32092  -0.30670
 Alpha  occ. eigenvalues --   -0.29806  -0.28769  -0.28695  -0.24058  -0.23130
 Alpha  occ. eigenvalues --   -0.22661  -0.21767  -0.20577  -0.19812  -0.10617
 Alpha virt. eigenvalues --   -0.03299  -0.01272  -0.00722  -0.00200  -0.00058
 Alpha virt. eigenvalues --    0.01100   0.01210   0.01489   0.01656   0.02518
 Alpha virt. eigenvalues --    0.02766   0.03830   0.03858   0.04067   0.04323

  Beta  occ. eigenvalues --  -19.17533 -19.17532 -19.11679 -19.11679 -19.02241
  Beta  occ. eigenvalues --  -19.02240 -10.31020 -10.31020 -10.21717 -10.21717
  Beta  occ. eigenvalues --  -10.17724 -10.17722 -10.17594 -10.17594 -10.15753
  Beta  occ. eigenvalues --  -10.15753 -10.15428 -10.15428 -10.15342 -10.15341
  Beta  occ. eigenvalues --  -10.14154 -10.14153 -10.13942 -10.13942  -1.11179
  Beta  occ. eigenvalues --   -1.11179  -1.03048  -1.03047  -0.94686  -0.94355
  Beta  occ. eigenvalues --   -0.83934  -0.83497  -0.77436  -0.76217  -0.74506
  Beta  occ. eigenvalues --   -0.73248  -0.72896  -0.71065  -0.65313  -0.64310
  Beta  occ. eigenvalues --   -0.61800  -0.59818  -0.57504  -0.55603  -0.52454
  Beta  occ. eigenvalues --   -0.51390  -0.49988  -0.49415  -0.48688  -0.48612
  Beta  occ. eigenvalues --   -0.47823  -0.47299  -0.45285  -0.44740  -0.44169
  Beta  occ. eigenvalues --   -0.42111  -0.41499  -0.41302  -0.41217  -0.40780
  Beta  occ. eigenvalues --   -0.39883  -0.39335  -0.39170  -0.38733  -0.37889
  Beta  occ. eigenvalues --   -0.37188  -0.37120  -0.36261  -0.34686  -0.34532
  Beta  occ. eigenvalues --   -0.33653  -0.33059  -0.32378  -0.32092  -0.30670
  Beta  occ. eigenvalues --   -0.29806  -0.28769  -0.28695  -0.24058  -0.23130
  Beta  occ. eigenvalues --   -0.22661  -0.21767  -0.20577  -0.19812  -0.10617
  Beta virt. eigenvalues --   -0.03299  -0.01272  -0.00722  -0.00200  -0.00058
  Beta virt. eigenvalues --    0.01100   0.01210   0.01489   0.01656   0.02518
  Beta virt. eigenvalues --    0.02766   0.03830   0.03858   0.04067   0.04323

 Mulliken charges and spin densities:
               1          2
     1  C   -0.022243   0.000000
     2  C   -0.041238  -0.000000
     3  C   -0.690319   0.000000
     4  C    0.309327   0.000000
     5  C    0.463386   0.000000
     6  C   -0.114394   0.000000
     7  C   -0.613158   0.000000
     8  C    0.463423  -0.000000
     9  C    0.309449  -0.000000
    10  C   -0.613216   0.000000
    11  C   -0.114456  -0.000000
    12  C   -0.689997   0.000000
    13  C   -0.041448   0.000000
    14  C   -0.022401  -0.000000
    15  O   -0.632659   0.000000
    16  O   -0.632640  -0.000000
    17  H    0.168218  -0.000000
    18  H    0.154703  -0.000000
    19  H    0.154705  -0.000000
    20  H    0.168217  -0.000000
    21  H    0.201297  -0.000000
    22  O   -0.042750  -0.000000
    23  O   -0.042771  -0.000000
    24  C    0.190472  -0.000000
    25  C   -0.531764  -0.000000
    26  O   -0.339223  -0.000000
    27  H    0.201292  -0.000000
    28  H    0.172249  -0.000000
    29  H    0.194170   0.000000
    30  H    0.173938   0.000000
    31  C    0.190392   0.000000
    32  C   -0.531741   0.000000
    33  O   -0.339179  -0.000000
    34  H    0.172254  -0.000000
    35  H    0.173940   0.000000
    36  H    0.194165  -0.000000
 Sum of Mulliken charges =  -2.00000   0.00000

 Dipole moment (field-independent basis, Debye):
    X=              0.0010    Y=              0.0007    Z=              0.0003  Tot=              0.0012
 Quadrupole moment (field-independent basis, Debye-Ang):
   XX=           -173.4690   YY=           -195.7646   ZZ=           -155.4471
   XY=            -13.1262   XZ=            -25.4275   YZ=             -4.1868

 Normal termination of Gaussian 16 at Sun Jan 14 01:36:07 2024.
