 Gaussian 16, Revision A.03,
 Gaussian 16:  ES64L-G16RevA.03 25-Dec-2016

 ----------------------------------------------------------------------
 #P UB3LYP/6-311++G(d,p) nosym opt freq SCRF=(PCM,Solvent=n,n-DiMethylF
 ormamide)
 ----------------------------------------------------------------------

 -------
 Radical
 -------
 Symbolic Z-matrix:
 Charge = -1 Multiplicity = 2

 SCF Done:  E(UB3LYP) =  -727.384427941     A.U. after   20 cycles
 SCF Done:  E(UB3LYP) =  -727.384974898     A.U. after   15 cycles
 SCF Done:  E(UB3LYP) =  -727.385155485     A.U. after   16 cycles
 SCF Done:  E(UB3LYP) =  -727.385177943     A.U. after   15 cycles
 SCF Done:  E(UB3LYP) =  -727.385192822     A.U. after   12 cycles
 SCF Done:  E(UB3LYP) =  -727.385201356     A.U. after   13 cycles
 SCF Done:  E(UB3LYP) =  -727.385202795     A.U. after   12 cycles
 SCF Done:  E(UB3LYP) =  -727.385203135     A.U. after   10 cycles
 Optimization completed.
    -- Stationary point found.
 Normal termination of Gaussian 16 at Sun Feb 11 01:56:08 2024.

 ----------------------------------------------------------------------
 #P Geom=AllCheck Guess=TCheck SCRF=Check GenChk UB3LYP/6-311++G(d,p) F
 req
 ----------------------------------------------------------------------

 Structure from the checkpoint file:  "266-rad.chk"
 -------
 Radical
 -------
 Charge = -1 Multiplicity = 2

                          Input orientation:
 ---------------------------------------------------------------------
 Center     Atomic      Atomic             Coordinates (Angstroms)
 Number     Number       Type             X           Y           Z
 ---------------------------------------------------------------------
      1          6           0       -1.221727    2.876366   -0.111008
      2          6           0       -2.522975    2.408592   -0.139433
      3          6           0       -2.776321    1.024586   -0.082424
      4          6           0       -0.127494    1.987678   -0.024675
      5          6           0       -0.385766    0.590013    0.033912
      6          6           0       -1.718523    0.135912    0.003026
      7          6           0        1.235854    2.522544    0.003794
      8          6           0        2.297189    1.536622    0.102912
      9          6           0        2.045156    0.178472    0.158025
     10          6           0        0.723472   -0.371292    0.125941
     11          8           0        1.474786    3.764518   -0.052260
     12          8           0        0.517437   -1.620977    0.173722
     13          1           0       -1.014854    3.938873   -0.153966
     14          1           0       -1.893913   -0.932439    0.048034
     15          8           0        3.549633    2.077797    0.131806
     16          6           0        4.678225    1.201012    0.273948
     17          6           0        5.909919    2.047627    0.360830
     18          6           0        6.968817    1.901504   -0.431968
     19          1           0       -3.349596    3.107981   -0.205869
     20          1           0       -3.796823    0.657906   -0.104953
     21          1           0        2.854914   -0.536745    0.226317
     22          1           0        4.734938    0.514041   -0.576929
     23          1           0        4.558519    0.608575    1.189919
     24          1           0        5.911301    2.799726    1.146162
     25          1           0        6.988042    1.159509   -1.224673
     26          1           0        7.855699    2.513309   -0.310882
 ---------------------------------------------------------------------

 SCF Done:  E(UB3LYP) =  -727.385203135     A.U. after    1 cycles

 Alpha  occ. eigenvalues --  -19.15526 -19.07625 -19.07239 -10.23053 -10.22919
 Alpha  occ. eigenvalues --  -10.22326 -10.22138 -10.18336 -10.17414 -10.17404
 Alpha  occ. eigenvalues --  -10.17229 -10.17202 -10.17135 -10.16987 -10.16947
 Alpha  occ. eigenvalues --  -10.15759  -1.06967  -0.99536  -0.99304  -0.85745
 Alpha  occ. eigenvalues --   -0.81282  -0.79094  -0.74971  -0.73899  -0.70807
 Alpha  occ. eigenvalues --   -0.66377  -0.62047  -0.60446  -0.57295  -0.55960
 Alpha  occ. eigenvalues --   -0.52747  -0.51493  -0.49147  -0.48987  -0.46305
 Alpha  occ. eigenvalues --   -0.45563  -0.44036  -0.42745  -0.42195  -0.41487
 Alpha  occ. eigenvalues --   -0.40776  -0.40605  -0.39725  -0.37778  -0.37051
 Alpha  occ. eigenvalues --   -0.35724  -0.35500  -0.34315  -0.33336  -0.33076
 Alpha  occ. eigenvalues --   -0.27958  -0.26568  -0.25634  -0.24477  -0.23862
 Alpha  occ. eigenvalues --   -0.23763  -0.14963
 Alpha virt. eigenvalues --   -0.03375  -0.01319  -0.01005  -0.00237   0.00401
 Alpha virt. eigenvalues --    0.01260   0.01876   0.02082   0.02714   0.03660
 Alpha virt. eigenvalues --    0.04467   0.04680   0.04879   0.05590   0.05666

  Beta  occ. eigenvalues --  -19.15439 -19.06946 -19.06696 -10.23057 -10.22758
  Beta  occ. eigenvalues --  -10.22186 -10.21915 -10.18336 -10.17415 -10.17372
  Beta  occ. eigenvalues --  -10.17214 -10.17119 -10.17077 -10.16996 -10.16917
  Beta  occ. eigenvalues --  -10.15702  -1.06759  -0.98473  -0.98221  -0.85523
  Beta  occ. eigenvalues --   -0.81041  -0.78836  -0.74769  -0.73726  -0.70577
  Beta  occ. eigenvalues --   -0.65638  -0.61873  -0.60198  -0.57230  -0.55756
  Beta  occ. eigenvalues --   -0.52557  -0.51318  -0.48962  -0.48778  -0.46086
  Beta  occ. eigenvalues --   -0.45448  -0.43829  -0.42532  -0.41840  -0.41089
  Beta  occ. eigenvalues --   -0.40123  -0.39948  -0.39412  -0.36986  -0.35876
  Beta  occ. eigenvalues --   -0.35379  -0.34754  -0.34246  -0.33114  -0.31711
  Beta  occ. eigenvalues --   -0.27915  -0.24956  -0.24516  -0.23886  -0.23316
  Beta  occ. eigenvalues --   -0.22849
  Beta virt. eigenvalues --   -0.08361  -0.02622  -0.01283  -0.00224   0.00108
  Beta virt. eigenvalues --    0.00402   0.01276   0.01895   0.02090   0.02737
  Beta virt. eigenvalues --    0.03679   0.04498   0.04909   0.05256   0.05636

 Mulliken charges and spin densities:
               1          2
     1  C    0.157275   0.067539
     2  C   -0.418756   0.009459
     3  C   -0.351503   0.051486
     4  C    0.075283  -0.001598
     5  C    0.516139   0.052415
     6  C    0.178130   0.007266
     7  C   -0.479509   0.131840
     8  C   -0.603045   0.128231
     9  C    0.352711   0.017155
    10  C   -0.256155   0.079279
    11  O   -0.500066   0.256096
    12  O   -0.495933   0.194481
    13  H    0.161491  -0.003647
    14  H    0.159317  -0.000871
    15  O   -0.124483   0.018214
    16  C   -0.314875   0.001056
    17  C   -0.012948   0.000401
    18  C   -0.449128  -0.000711
    19  H    0.180986  -0.001231
    20  H    0.181069  -0.003762
    21  H    0.210142  -0.005212
    22  H    0.155499   0.001192
    23  H    0.168648   0.000919
    24  H    0.200375  -0.000032
    25  H    0.147052   0.000005
    26  H    0.162284   0.000029
 Sum of Mulliken charges =  -1.00000   1.00000

 Dipole moment (field-independent basis, Debye):
    X=             -3.3169    Y=             -6.3195    Z=             -0.0388  Tot=              7.1372
 Quadrupole moment (field-independent basis, Debye-Ang):
   XX=            -86.9889   YY=           -143.6315   ZZ=            -98.3752
   XY=            -15.1338   XZ=              0.7159   YZ=              2.7220

  Exact polarizability: 352.813  10.872 309.962  -3.171  -6.115 140.054
 Approx polarizability: 358.813  17.703 365.523  -5.686  -6.751 159.312

                      1                      2                      3
                      A                      A                      A
 Frequencies --     35.6147                66.1024                85.0912
 Red. masses --      5.1597                 2.9794                 5.2659
 Frc consts  --      0.0039                 0.0077                 0.0225
 IR Inten    --      5.8547                 1.2932                12.9479

                      4                      5                      6
                      A                      A                      A
 Frequencies --    116.0362               134.8160               138.4235
 Red. masses --      2.6422                 4.4223                 3.6913
 Frc consts  --      0.0210                 0.0474                 0.0417
 IR Inten    --      3.3200                 0.7237                 0.5997

                      7                      8                      9
                      A                      A                      A
 Frequencies --    182.9067               234.0791               264.6269
 Red. masses --      7.3916                 5.3565                 5.6834
 Frc consts  --      0.1457                 0.1729                 0.2345
 IR Inten    --      5.5463                 1.9889                 6.7180

                     10                     11                     12
                      A                      A                      A
 Frequencies --    266.6024               310.1336               368.9233
 Red. masses --      4.1638                 3.8136                10.6513
 Frc consts  --      0.1744                 0.2161                 0.8541
 IR Inten    --      5.8068                 1.1780                23.6220

                     13                     14                     15
                      A                      A                      A
 Frequencies --    404.9150               446.1729               457.2672
 Red. masses --      4.7698                 3.9083                 2.4554
 Frc consts  --      0.4608                 0.4584                 0.3025
 IR Inten    --      0.0165                 4.7619                 2.6226

                     16                     17                     18
                      A                      A                      A
 Frequencies --    470.7650               472.9843               515.7710
 Red. masses --     10.4094                 6.6843                 3.7501
 Frc consts  --      1.3592                 0.8811                 0.5878
 IR Inten    --      1.5494                10.1018                 5.2419

                     19                     20                     21
                      A                      A                      A
 Frequencies --    555.0754               627.9071               658.6129
 Red. masses --      5.6141                 2.4018                 3.2170
 Frc consts  --      1.0191                 0.5579                 0.8222
 IR Inten    --      2.2378                29.7812                 2.5042

                     22                     23                     24
                      A                      A                      A
 Frequencies --    688.5176               700.1407               717.7878
 Red. masses --      3.8100                 4.8964                 3.2561
 Frc consts  --      1.0642                 1.4142                 0.9884
 IR Inten    --      1.5722                 9.9977                42.7564

                     25                     26                     27
                      A                      A                      A
 Frequencies --    726.8369               775.0604               788.0660
 Red. masses --      5.8780                 2.2335                 2.4039
 Frc consts  --      1.8296                 0.7905                 0.8796
 IR Inten    --     21.3036                54.4913                43.8969

                     28                     29                     30
                      A                      A                      A
 Frequencies --    831.9186               840.5961               885.6290
 Red. masses --      1.7263                 4.7680                 1.4177
 Frc consts  --      0.7039                 1.9850                 0.6552
 IR Inten    --     36.4568                15.1999                 0.0111

                     31                     32                     33
                      A                      A                      A
 Frequencies --    935.6685               955.9005               965.9597
 Red. masses --      1.7370                 2.9507                 1.3655
 Frc consts  --      0.8960                 1.5886                 0.7507
 IR Inten    --     29.1787                36.6226                73.6999

                     34                     35                     36
                      A                      A                      A
 Frequencies --    985.9403              1000.5057              1001.0057
 Red. masses --      1.3670                 1.2848                 1.6897
 Frc consts  --      0.7829                 0.7578                 0.9976
 IR Inten    --      2.8284                 0.0470                18.3043

                     37                     38                     39
                      A                      A                      A
 Frequencies --   1031.0012              1034.9913              1058.1643
 Red. masses --      1.3998                 2.4134                 3.3463
 Frc consts  --      0.8766                 1.5232                 2.2076
 IR Inten    --    101.7500               103.8767               161.8892

                     40                     41                     42
                      A                      A                      A
 Frequencies --   1102.3763              1144.4428              1161.2174
 Red. masses --      2.7108                 1.7214                 1.4182
 Frc consts  --      1.9409                 1.3284                 1.1267
 IR Inten    --     27.6369                16.4961                 0.6010

                     43                     44                     45
                      A                      A                      A
 Frequencies --   1170.0003              1199.0743              1230.9512
 Red. masses --      1.8614                 3.6174                 2.3259
 Frc consts  --      1.5013                 3.0643                 2.0764
 IR Inten    --     36.6502               626.9244               215.8693

                     46                     47                     48
                      A                      A                      A
 Frequencies --   1247.1933              1268.4614              1302.1189
 Red. masses --      2.5041                 1.1364                 1.8659
 Frc consts  --      2.2949                 1.0773                 1.8640
 IR Inten    --    102.0783                 9.7564                25.6866

                     49                     50                     51
                      A                      A                      A
 Frequencies --   1312.1516              1352.1899              1377.4942
 Red. masses --      1.2704                 9.6261                 1.4591
 Frc consts  --      1.2888                10.3699                 1.6313
 IR Inten    --      0.2421                30.6478               114.9441

                     52                     53                     54
                      A                      A                      A
 Frequencies --   1413.3212              1452.6494              1457.5611
 Red. masses --      2.5075                 2.7546                 1.4924
 Frc consts  --      2.9510                 3.4247                 1.8681
 IR Inten    --     80.8467               620.6746               274.7379

                     55                     56                     57
                      A                      A                      A
 Frequencies --   1467.9125              1495.0485              1503.2649
 Red. masses --      2.5488                 1.8562                 2.2404
 Frc consts  --      3.2359                 2.4444                 2.9830
 IR Inten    --     46.7310               197.4394                48.1267

                     58                     59                     60
                      A                      A                      A
 Frequencies --   1516.4554              1547.8223              1612.1480
 Red. masses --      4.1739                 4.4428                 7.6556
 Frc consts  --      5.6552                 6.2712                11.7230
 IR Inten    --   1017.6885                93.3767                53.1988

                     61                     62                     63
                      A                      A                      A
 Frequencies --   1627.5643              1702.3446              2997.8680
 Red. masses --      5.9113                 4.7204                 1.0585
 Frc consts  --      9.2259                 8.0597                 5.6049
 IR Inten    --     17.8279                 7.0596                42.8435

                     64                     65                     66
                      A                      A                      A
 Frequencies --   3048.4262              3126.0519              3143.3443
 Red. masses --      1.1033                 1.0589                 1.0924
 Frc consts  --      6.0409                 6.0970                 6.3594
 IR Inten    --     39.1309                16.0962                12.3427

                     67                     68                     69
                      A                      A                      A
 Frequencies --   3158.2683              3172.4495              3188.3213
 Red. masses --      1.0860                 1.0903                 1.0915
 Frc consts  --      6.3823                 6.4654                 6.5374
 IR Inten    --     10.7150                22.3248                19.2348

                     70                     71                     72
                      A                      A                      A
 Frequencies --   3189.3763              3192.3034              3212.5995
 Red. masses --      1.0894                 1.0939                 1.1156
 Frc consts  --      6.5289                 6.5681                 6.7835
 IR Inten    --     23.3721                29.1629                18.4221

 - Thermochemistry -
 -------------------
 Temperature   298.150 Kelvin.  Pressure   1.00000 Atm.
 Atom     1 has atomic number  6 and mass  12.00000

 Molecular mass:   214.06299 amu.
 Principal axes and moments of inertia in atomic units:
                           1         2         3
     Eigenvalues --  1493.958746126.857337549.15171
           X            0.99609  -0.08709  -0.01452
           Y            0.08770   0.99498   0.04826
           Z            0.01024  -0.04934   0.99873
 This molecule is an asymmetric top.
 Rotational symmetry number  1.
 Warning -- assumption of classical behavior for rotation
           may cause significant error
 Rotational temperatures (Kelvin)      0.05798     0.01414     0.01147
 Rotational constants (GHZ):           1.20803     0.29456     0.23907
 Zero-point vibrational energy     513373.2 (Joules/Mol)
                                  122.69913 (Kcal/Mol)
 Warning -- explicit consideration of  19 degrees of freedom as
           vibrations may cause significant error
 Vibrational temperatures:     51.24    95.11   122.43   166.95   193.97
          (Kelvin)            199.16   263.16   336.79   380.74   383.58
                              446.21   530.80   582.58   641.94   657.91
                              677.33   680.52   742.08   798.63   903.42
                              947.60   990.62  1007.35  1032.74  1045.76
                             1115.14  1133.85  1196.95  1209.43  1274.22
                             1346.22  1375.33  1389.80  1418.55  1439.50
                             1440.22  1483.38  1489.12  1522.46  1586.07
                             1646.60  1670.73  1683.37  1725.20  1771.06
                             1794.43  1825.03  1873.46  1887.89  1945.50
                             1981.91  2033.45  2090.04  2097.11  2112.00
                             2151.04  2162.86  2181.84  2226.97  2319.52
                             2341.70  2449.29  4313.26  4386.01  4497.69
                             4522.57  4544.04  4564.45  4587.28  4588.80
                             4593.01  4622.21

 Zero-point correction=                           0.195534 (Hartree/Particle)
 Thermal correction to Energy=                    0.208978
 Thermal correction to Enthalpy=                  0.209922
 Thermal correction to Gibbs Free Energy=         0.154008
 Sum of electronic and zero-point Energies=           -727.189670
 Sum of electronic and thermal Energies=              -727.176225
 Sum of electronic and thermal Enthalpies=            -727.175281
 Sum of electronic and thermal Free Energies=         -727.231195

                     E (Thermal)             CV                S
                      KCal/Mol        Cal/Mol-Kelvin    Cal/Mol-Kelvin
 Total                  131.136             51.771            117.680
 Electronic               0.000              0.000              1.377
 Translational            0.889              2.981             41.987
 Rotational               0.889              2.981             32.602
 Vibrational            129.358             45.809             41.714
 Vibration     1          0.594              1.982              5.489
 Vibration     2          0.598              1.970              4.266
 Vibration     3          0.601              1.960              3.770
 Vibration     4          0.608              1.936              3.165
 Vibration     5          0.613              1.919              2.876
 Vibration     6          0.614              1.915              2.826
 Vibration     7          0.630              1.863              2.299
 Vibration     8          0.654              1.789              1.847
 Vibration     9          0.671              1.738              1.631
 Vibration    10          0.672              1.734              1.618
 Vibration    11          0.699              1.654              1.362
 Vibration    12          0.741              1.536              1.084
 Vibration    13          0.770              1.460              0.945
 Vibration    14          0.805              1.369              0.807
 Vibration    15          0.815              1.345              0.774
 Vibration    16          0.828              1.315              0.735
 Vibration    17          0.830              1.310              0.729
 Vibration    18          0.871              1.215              0.620
 Vibration    19          0.911              1.129              0.534

                           ! Non-Optimized Parameters !
 Normal termination of Gaussian 16 at Sun Feb 11 02:54:33 2024.
