 Gaussian 16, Revision A.03,
 Gaussian 16:  ES64L-G16RevA.03 25-Dec-2016

 ----------------------------------------------------------------------
 #P UB3LYP/6-311++G(d,p) nosym opt freq SCRF=(PCM,Solvent=n,n-DiMethylF
 ormamide)
 ----------------------------------------------------------------------

 -------
 Radical
 -------
 Symbolic Z-matrix:
 Charge = -1 Multiplicity = 2

 SCF Done:  E(UB3LYP) =  -725.220632360     A.U. after   19 cycles
 SCF Done:  E(UB3LYP) =  -725.221234388     A.U. after   14 cycles
 SCF Done:  E(UB3LYP) =  -725.221340986     A.U. after   14 cycles
 SCF Done:  E(UB3LYP) =  -725.221349033     A.U. after   13 cycles
 SCF Done:  E(UB3LYP) =  -725.221351054     A.U. after   11 cycles
 Optimization completed.
    -- Stationary point found.
 Normal termination of Gaussian 16 at Sun Feb 11 01:28:02 2024.

 ----------------------------------------------------------------------
 #P Geom=AllCheck Guess=TCheck SCRF=Check GenChk UB3LYP/6-311++G(d,p) F
 req
 ----------------------------------------------------------------------

 Structure from the checkpoint file:  "259-rad.chk"
 -------
 Radical
 -------
 Charge = -1 Multiplicity = 2

                          Input orientation:
 ---------------------------------------------------------------------
 Center     Atomic      Atomic             Coordinates (Angstroms)
 Number     Number       Type             X           Y           Z
 ---------------------------------------------------------------------
      1          6           0       -1.215693    2.857751    0.018149
      2          6           0       -2.504969    2.356936    0.016611
      3          6           0       -2.733193    0.967470    0.015007
      4          6           0       -0.105897    1.985222    0.018159
      5          6           0       -0.328101    0.581783    0.016638
      6          6           0       -1.653164    0.106090    0.015045
      7          6           0        1.244841    2.549512    0.019701
      8          6           0        2.329744    1.585962    0.019806
      9          6           0        2.112652    0.220631    0.018459
     10          6           0        0.801679   -0.356902    0.016757
     11          8           0        1.452009    3.800397    0.020796
     12          8           0        0.624356   -1.611822    0.015540
     13          1           0       -1.035341    3.927393    0.019367
     14          1           0       -1.811124   -0.965698    0.013793
     15          8           0        3.569137    2.154218    0.021359
     16          8           0       -3.615672    3.165074    0.016544
     17          1           0       -3.751623    0.596623    0.013770
     18          1           0        2.941663   -0.475283    0.018625
     19          6           0        4.712926    1.302058    0.021584
     20          1           0       -3.344744    4.091023    0.017663
     21          1           0        5.576956    1.964425    0.022896
     22          1           0        4.738639    0.670923   -0.871954
     23          1           0        4.737126    0.669359    0.914057
 ---------------------------------------------------------------------

 SCF Done:  E(UB3LYP) =  -725.221351054     A.U. after    2 cycles

 Alpha  occ. eigenvalues --  -19.15746 -19.15446 -19.07556 -19.07138 -10.23718
 Alpha  occ. eigenvalues --  -10.22804 -10.22320 -10.21966 -10.21813 -10.17749
 Alpha  occ. eigenvalues --  -10.17431 -10.17124 -10.16862 -10.16806 -10.15545
 Alpha  occ. eigenvalues --   -1.06863  -1.06606  -0.99403  -0.99194  -0.85762
 Alpha  occ. eigenvalues --   -0.80248  -0.75304  -0.74383  -0.71485  -0.66496
 Alpha  occ. eigenvalues --   -0.63591  -0.60265  -0.56828  -0.55205  -0.52201
 Alpha  occ. eigenvalues --   -0.50493  -0.47390  -0.47005  -0.46937  -0.43664
 Alpha  occ. eigenvalues --   -0.42830  -0.42345  -0.42070  -0.40841  -0.40437
 Alpha  occ. eigenvalues --   -0.40269  -0.38580  -0.37666  -0.36663  -0.34640
 Alpha  occ. eigenvalues --   -0.34156  -0.33477  -0.32150  -0.26395  -0.24893
 Alpha  occ. eigenvalues --   -0.24450  -0.23814  -0.22700  -0.14879
 Alpha virt. eigenvalues --   -0.03167  -0.00424  -0.00399   0.00275   0.01175
 Alpha virt. eigenvalues --    0.02104   0.02544   0.03666   0.04176   0.04533
 Alpha virt. eigenvalues --    0.04708   0.05318   0.06125   0.06203   0.06714

  Beta  occ. eigenvalues --  -19.15739 -19.15364 -19.06857 -19.06624 -10.23710
  Beta  occ. eigenvalues --  -10.22662 -10.22190 -10.21817 -10.21721 -10.17710
  Beta  occ. eigenvalues --  -10.17452 -10.17074 -10.16803 -10.16741 -10.15466
  Beta  occ. eigenvalues --   -1.06666  -1.06588  -0.98405  -0.98057  -0.85552
  Beta  occ. eigenvalues --   -0.79777  -0.75114  -0.74195  -0.71274  -0.65721
  Beta  occ. eigenvalues --   -0.63471  -0.59983  -0.56524  -0.55148  -0.52027
  Beta  occ. eigenvalues --   -0.50286  -0.47115  -0.46827  -0.46667  -0.43504
  Beta  occ. eigenvalues --   -0.42786  -0.41893  -0.41843  -0.40527  -0.39835
  Beta  occ. eigenvalues --   -0.39178  -0.38493  -0.36524  -0.35549  -0.34542
  Beta  occ. eigenvalues --   -0.33409  -0.33304  -0.30779  -0.25011  -0.23846
  Beta  occ. eigenvalues --   -0.23287  -0.23240  -0.22212
  Beta virt. eigenvalues --   -0.08234  -0.02434  -0.00383   0.00279   0.00635
  Beta virt. eigenvalues --    0.01181   0.02142   0.02555   0.03714   0.04194
  Beta virt. eigenvalues --    0.04729   0.05289   0.05342   0.06129   0.06810

 Mulliken charges and spin densities:
               1          2
     1  C    0.277293   0.088201
     2  C   -0.554446   0.003515
     3  C   -0.165278   0.040782
     4  C    0.568607   0.014341
     5  C    0.057539   0.019994
     6  C    0.179491   0.001893
     7  C   -0.708798   0.144248
     8  C   -0.373421   0.117521
     9  C    0.430365   0.045507
    10  C   -0.389492   0.071412
    11  O   -0.504518   0.263537
    12  O   -0.509400   0.183163
    13  H    0.145712  -0.005792
    14  H    0.168975  -0.000633
    15  O   -0.214949   0.017808
    16  O   -0.288789   0.002423
    17  H    0.202603  -0.003181
    18  H    0.195471  -0.006251
    19  C   -0.330235  -0.000427
    20  H    0.301981  -0.000148
    21  H    0.190256  -0.000140
    22  H    0.160520   0.001113
    23  H    0.160515   0.001114
 Sum of Mulliken charges =  -1.00000   1.00000

 Dipole moment (field-independent basis, Debye):
    X=             -2.3973    Y=             -5.2497    Z=             -0.0850  Tot=              5.7718
 Quadrupole moment (field-independent basis, Debye-Ang):
   XX=            -90.1513   YY=           -128.1807   ZZ=            -92.0552
   XY=            -14.9851   XZ=             -0.0494   YZ=             -0.1267

  Exact polarizability: 310.602  -2.585 295.689   0.160   0.160 113.398
 Approx polarizability: 324.977   5.496 350.190   0.166   0.204 128.141

                      1                      2                      3
                      A                      A                      A
 Frequencies --     54.8187                98.8350               119.3172
 Red. masses --      4.3860                 5.2596                 4.9504
 Frc consts  --      0.0078                 0.0303                 0.0415
 IR Inten    --     15.9458                 0.0197                 0.3015

                      4                      5                      6
                      A                      A                      A
 Frequencies --    161.4534               186.8784               197.5544
 Red. masses --      5.7234                 4.7135                 2.3283
 Frc consts  --      0.0879                 0.0970                 0.0535
 IR Inten    --     12.6061                 9.6979                 0.3607

                      7                      8                      9
                      A                      A                      A
 Frequencies --    242.2967               261.7236               302.9706
 Red. masses --      5.5359                 1.6155                 3.8110
 Frc consts  --      0.1915                 0.0652                 0.2061
 IR Inten    --      2.0739                 3.0208                 3.9330

                     10                     11                     12
                      A                      A                      A
 Frequencies --    334.5830               345.0373               349.7436
 Red. masses --      6.8455                 1.1704                 7.9041
 Frc consts  --      0.4515                 0.0821                 0.5696
 IR Inten    --      4.4005               166.1409                20.1934

                     13                     14                     15
                      A                      A                      A
 Frequencies --    398.6004               405.5727               463.6869
 Red. masses --      6.2563                 4.6344                 7.5479
 Frc consts  --      0.5857                 0.4491                 0.9562
 IR Inten    --     15.3114                 0.8782                 5.5717

                     16                     17                     18
                      A                      A                      A
 Frequencies --    469.2060               476.5948               519.3391
 Red. masses --      3.7611                 6.2806                 7.5891
 Frc consts  --      0.4879                 0.8405                 1.2060
 IR Inten    --     13.2421                49.3323                 2.1287

                     19                     20                     21
                      A                      A                      A
 Frequencies --    570.2907               655.6383               665.9904
 Red. masses --      4.7160                 2.8332                 7.4483
 Frc consts  --      0.9037                 0.7176                 1.9465
 IR Inten    --      0.8854                 5.2745                 2.8739

                     22                     23                     24
                      A                      A                      A
 Frequencies --    679.2603               714.3179               729.3562
 Red. masses --      5.9140                 5.8609                 5.3975
 Frc consts  --      1.6077                 1.7620                 1.6917
 IR Inten    --     21.9341                 6.5806                 0.5198

                     25                     26                     27
                      A                      A                      A
 Frequencies --    763.2903               768.5578               816.3557
 Red. masses --      4.7878                 6.0328                 1.4680
 Frc consts  --      1.6435                 2.0995                 0.5764
 IR Inten    --      6.1771                38.7991               111.9140

                     28                     29                     30
                      A                      A                      A
 Frequencies --    829.8317               875.1882               895.2976
 Red. masses --      1.8127                 1.5021                 4.9024
 Frc consts  --      0.7354                 0.6779                 2.3152
 IR Inten    --      0.5417                34.2143               117.1847

                     31                     32                     33
                      A                      A                      A
 Frequencies --    972.9516               976.2405              1065.7181
 Red. masses --      1.3210                 3.9590                 3.2846
 Frc consts  --      0.7368                 2.2231                 2.1980
 IR Inten    --      1.1355                67.4102               139.6673

                     34                     35                     36
                      A                      A                      A
 Frequencies --   1102.9194              1146.9776              1165.6756
 Red. masses --      2.2878                 1.9493                 1.2761
 Frc consts  --      1.6397                 1.5109                 1.0216
 IR Inten    --     27.1629                21.8979                 1.3102

                     37                     38                     39
                      A                      A                      A
 Frequencies --   1170.7450              1176.1355              1196.9450
 Red. masses --      2.4527                 1.6103                 2.0385
 Frc consts  --      1.9807                 1.3125                 1.7207
 IR Inten    --    131.3645               210.9226               199.2051

                     40                     41                     42
                      A                      A                      A
 Frequencies --   1223.2272              1233.0639              1273.4533
 Red. masses --      2.0568                 2.0351                 3.0601
 Frc consts  --      1.8132                 1.8231                 2.9238
 IR Inten    --    375.7758               360.7063                28.1837

                     43                     44                     45
                      A                      A                      A
 Frequencies --   1310.3373              1366.2074              1396.9536
 Red. masses --      2.1525                 7.2611                 3.3569
 Frc consts  --      2.1775                 7.9853                 3.8596
 IR Inten    --     69.2481                 0.1548               296.5337

                     46                     47                     48
                      A                      A                      A
 Frequencies --   1451.7193              1464.6139              1473.6875
 Red. masses --      3.9806                 1.7213                 3.1257
 Frc consts  --      4.9426                 2.1755                 3.9995
 IR Inten    --    585.7664               108.9218               312.3575

                     49                     50                     51
                      A                      A                      A
 Frequencies --   1482.8225              1494.1198              1506.6734
 Red. masses --      1.0449                 1.1471                 3.4457
 Frc consts  --      1.3536                 1.5088                 4.6086
 IR Inten    --     12.5398               142.6145               157.7162

                     52                     53                     54
                      A                      A                      A
 Frequencies --   1517.5912              1562.4078              1615.8408
 Red. masses --      4.2701                 4.9147                 7.2703
 Frc consts  --      5.7943                 7.0686                11.1841
 IR Inten    --   1098.4607                14.3838               106.4664

                     55                     56                     57
                      A                      A                      A
 Frequencies --   1632.0989              3013.0670              3074.7468
 Red. masses --      6.8812                 1.0331                 1.1064
 Frc consts  --     10.7996                 5.5259                 6.1628
 IR Inten    --    294.7316                83.6593                53.1273

                     58                     59                     60
                      A                      A                      A
 Frequencies --   3133.7351              3175.4595              3176.9739
 Red. masses --      1.1009                 1.0891                 1.0875
 Frc consts  --      6.3695                 6.4704                 6.4672
 IR Inten    --     34.1971                20.3028                 1.2643

                     61                     62                     63
                      A                      A                      A
 Frequencies --   3191.9359              3193.6637              3811.7845
 Red. masses --      1.0942                 1.0889                 1.0662
 Frc consts  --      6.5683                 6.5437                 9.1271
 IR Inten    --     24.3455                12.5883               122.7042

 - Thermochemistry -
 -------------------
 Temperature   298.150 Kelvin.  Pressure   1.00000 Atm.
 Atom     1 has atomic number  6 and mass  12.00000

 Molecular mass:   204.04226 amu.
 Principal axes and moments of inertia in atomic units:
                           1         2         3
     Eigenvalues --  1612.398974226.336485827.25518
           X            0.99229   0.12393  -0.00081
           Y           -0.12393   0.99229  -0.00090
           Z            0.00070   0.00100   1.00000
 This molecule is an asymmetric top.
 Rotational symmetry number  1.
 Warning -- assumption of classical behavior for rotation
           may cause significant error
 Rotational temperatures (Kelvin)      0.05372     0.02049     0.01486
 Rotational constants (GHZ):           1.11929     0.42702     0.30971
 Zero-point vibrational energy     437247.5 (Joules/Mol)
                                  104.50467 (Kcal/Mol)
 Warning -- explicit consideration of  19 degrees of freedom as
           vibrations may cause significant error
 Vibrational temperatures:     78.87   142.20   171.67   232.30   268.88
          (Kelvin)            284.24   348.61   376.56   435.91   481.39
                              496.43   503.20   573.50   583.53   667.14
                              675.08   685.71   747.21   820.52   943.32
                              958.21   977.30  1027.74  1049.38  1098.20
                             1105.78  1174.55  1193.94  1259.20  1288.13
                             1399.86  1404.59  1533.33  1586.86  1650.24
                             1677.15  1684.44  1692.20  1722.14  1759.95
                             1774.10  1832.22  1885.28  1965.67  2009.90
                             2088.70  2107.25  2120.31  2133.45  2149.71
                             2167.77  2183.48  2247.96  2324.83  2348.23
                             4335.13  4423.87  4508.75  4568.78  4570.96
                             4592.48  4594.97  5484.31

 Zero-point correction=                           0.166539 (Hartree/Particle)
 Thermal correction to Energy=                    0.179005
 Thermal correction to Enthalpy=                  0.179950
 Thermal correction to Gibbs Free Energy=         0.127341
 Sum of electronic and zero-point Energies=           -725.054812
 Sum of electronic and thermal Energies=              -725.042346
 Sum of electronic and thermal Enthalpies=            -725.041402
 Sum of electronic and thermal Free Energies=         -725.094010

                     E (Thermal)             CV                S
                      KCal/Mol        Cal/Mol-Kelvin    Cal/Mol-Kelvin
 Total                  112.328             48.633            110.724
 Electronic               0.000              0.000              1.377
 Translational            0.889              2.981             41.844
 Rotational               0.889              2.981             32.052
 Vibrational            110.550             42.672             35.451
 Vibration     1          0.596              1.976              4.636
 Vibration     2          0.604              1.950              3.477
 Vibration     3          0.609              1.933              3.111
 Vibration     4          0.622              1.890              2.533
 Vibration     5          0.632              1.858              2.259
 Vibration     6          0.637              1.843              2.156
 Vibration     7          0.658              1.775              1.786
 Vibration     8          0.669              1.743              1.650
 Vibration     9          0.694              1.668              1.400
 Vibration    10          0.716              1.606              1.238
 Vibration    11          0.723              1.585              1.189
 Vibration    12          0.727              1.576              1.167
 Vibration    13          0.765              1.473              0.968
 Vibration    14          0.771              1.458              0.942
 Vibration    15          0.821              1.331              0.755
 Vibration    16          0.826              1.318              0.740
 Vibration    17          0.833              1.302              0.719
 Vibration    18          0.874              1.207              0.611
 Vibration    19          0.926              1.096              0.504

 Optimization completed.
    -- Stationary point found.
 Normal termination of Gaussian 16 at Sun Feb 11 02:08:07 2024.
