 Q-Chem 5.4, Q-Chem, Inc., Pleasanton, CA (2021)
 Q-Chem 5.4.0 for Intel X86 EM64T Linux

User input:
--------------------------------------------------------------
$molecule
-1 2
C                  0.6058130000      1.2909440000     -0.8955340000
C                 -0.7365140000      0.8229670000     -0.5801620000
C                 -1.0284990000     -0.4817050000     -0.2406630000
C                  0.0749420000     -1.4392410000     -0.1010240000
C                  1.4513790000     -0.9957280000     -0.3503790000
C                  1.6731610000      0.3231710000     -0.6865150000
O                  0.8278760000      2.4466460000     -1.3137430000
O                 -0.1569850000     -2.6310820000      0.2328590000
S                  3.3423710000      0.9523880000     -1.0311500000
C                  3.4983670000      2.5427040000     -0.1658750000
C                  3.4294090000      3.7292340000     -0.8873510000
C                  3.7856030000      2.5347200000      1.1955820000
C                  3.9941320000      3.7470170000      1.8520630000
C                  3.6579340000      4.9337060000     -0.2272960000
C                  3.9346930000      4.9443170000      1.1404090000
O                  3.5062930000      1.2105780000     -2.4693000000
O                  4.3190890000      0.0713910000     -0.3606940000
H                  3.1888990000      3.6914880000     -1.9408500000
H                  3.8596140000      1.5934410000      1.7257860000
H                  3.6085780000      5.8660210000     -0.7792760000
H                  4.2126810000      3.7533820000      2.9143990000
H                  4.1019200000      5.8864910000      1.6518670000
S                 -2.0381240000      2.0737870000     -0.7877320000
C                 -1.4847410000      3.5569240000      0.1049000000
C                 -0.9653520000      4.6360230000     -0.6016640000
C                 -1.6824750000      3.6159090000      1.4812520000
C                 -1.3389390000      4.7801760000      2.1670440000
C                 -0.6414450000      5.8008220000      0.0893530000
C                 -0.8231280000      5.8725070000      1.4709550000
O                 -2.1849250000      2.4338640000     -2.2053170000
O                 -3.2361540000      1.6262370000     -0.0502500000
H                 -0.8133490000      4.5431330000     -1.6679700000
H                 -2.1137520000      2.7690180000      2.0001980000
H                 -1.4841990000      4.8355890000      3.2404630000
H                 -0.2360930000      6.6496870000     -0.4503750000
H                 -0.5601160000      6.7793800000      2.0054440000
C                 -2.4059980000     -1.0479450000     -0.0080680000
C                  2.5064590000     -2.0649280000     -0.2260410000
H                 -2.8425410000     -0.6577820000      0.9145480000
H                 -2.3204560000     -2.1303630000      0.0681720000
H                 -3.0954060000     -0.7779440000     -0.8082790000
H                  2.0066250000     -3.0271670000     -0.1308990000
H                  3.1335330000     -1.8993180000      0.6534200000
H                  3.1801640000     -2.0712080000     -1.0831890000
$end

$rem
BASIS  =  6-311++G(d,p)
GUI  =  2
JOB_TYPE  =  SP
METHOD  =  B3LYP
SCF_CONVERGENCE  = 8
SOLVENT_METHOD = sm12
$end

$smx
solvent dimethylformamide
charges CM5
$end

--------------------------------------------------------------

             Standard Nuclear Orientation (Angstroms)
    I     Atom           X                Y                Z
 ----------------------------------------------------------------
    1      C       0.6058130000     1.2909440000    -0.8955340000
    2      C      -0.7365140000     0.8229670000    -0.5801620000
    3      C      -1.0284990000    -0.4817050000    -0.2406630000
    4      C       0.0749420000    -1.4392410000    -0.1010240000
    5      C       1.4513790000    -0.9957280000    -0.3503790000
    6      C       1.6731610000     0.3231710000    -0.6865150000
    7      O       0.8278760000     2.4466460000    -1.3137430000
    8      O      -0.1569850000    -2.6310820000     0.2328590000
    9      S       3.3423710000     0.9523880000    -1.0311500000
   10      C       3.4983670000     2.5427040000    -0.1658750000
   11      C       3.4294090000     3.7292340000    -0.8873510000
   12      C       3.7856030000     2.5347200000     1.1955820000
   13      C       3.9941320000     3.7470170000     1.8520630000
   14      C       3.6579340000     4.9337060000    -0.2272960000
   15      C       3.9346930000     4.9443170000     1.1404090000
   16      O       3.5062930000     1.2105780000    -2.4693000000
   17      O       4.3190890000     0.0713910000    -0.3606940000
   18      H       3.1888990000     3.6914880000    -1.9408500000
   19      H       3.8596140000     1.5934410000     1.7257860000
   20      H       3.6085780000     5.8660210000    -0.7792760000
   21      H       4.2126810000     3.7533820000     2.9143990000
   22      H       4.1019200000     5.8864910000     1.6518670000
   23      S      -2.0381240000     2.0737870000    -0.7877320000
   24      C      -1.4847410000     3.5569240000     0.1049000000
   25      C      -0.9653520000     4.6360230000    -0.6016640000
   26      C      -1.6824750000     3.6159090000     1.4812520000
   27      C      -1.3389390000     4.7801760000     2.1670440000
   28      C      -0.6414450000     5.8008220000     0.0893530000
   29      C      -0.8231280000     5.8725070000     1.4709550000
   30      O      -2.1849250000     2.4338640000    -2.2053170000
   31      O      -3.2361540000     1.6262370000    -0.0502500000
   32      H      -0.8133490000     4.5431330000    -1.6679700000
   33      H      -2.1137520000     2.7690180000     2.0001980000
   34      H      -1.4841990000     4.8355890000     3.2404630000
   35      H      -0.2360930000     6.6496870000    -0.4503750000
   36      H      -0.5601160000     6.7793800000     2.0054440000
   37      C      -2.4059980000    -1.0479450000    -0.0080680000
   38      C       2.5064590000    -2.0649280000    -0.2260410000
   39      H      -2.8425410000    -0.6577820000     0.9145480000
   40      H      -2.3204560000    -2.1303630000     0.0681720000
   41      H      -3.0954060000    -0.7779440000    -0.8082790000
   42      H       2.0066250000    -3.0271670000    -0.1308990000
   43      H       3.1335330000    -1.8993180000     0.6534200000
   44      H       3.1801640000    -2.0712080000    -1.0831890000
 ----------------------------------------------------------------

   18   -2019.7957487234      8.28e-09  Convergence criterion met
 Total energy in the final basis set =    -2019.8857826932

                    Orbital Energies (a.u.)
 --------------------------------------------------------------

 Alpha MOs
 -- Occupied --
-89.0484 -89.0484 -19.1126 -19.1125 -19.1096 -19.1096 -19.0944 -19.0911
-10.2527 -10.2380 -10.2119 -10.2119 -10.2091 -10.2090 -10.2080 -10.2080
-10.1954 -10.1953 -10.1917 -10.1917 -10.1907 -10.1905 -10.1892 -10.1892
-10.1879 -10.1879 -10.1636 -10.1635  -8.1120  -8.1120  -6.0746  -6.0746
 -6.0738  -6.0737  -6.0731  -6.0731  -1.1048  -1.1045  -1.0265  -1.0203
 -0.9999  -0.9996  -0.8766  -0.8764  -0.8564  -0.8120  -0.7798  -0.7792
 -0.7646  -0.7643  -0.7426  -0.7292  -0.6960  -0.6596  -0.6583  -0.6238
 -0.6237  -0.6132  -0.6107  -0.5733  -0.5730  -0.5394  -0.5386  -0.5213
 -0.5044  -0.4886  -0.4816  -0.4784  -0.4759  -0.4651  -0.4590  -0.4562
 -0.4528  -0.4492  -0.4454  -0.4430  -0.4391  -0.4388  -0.4259  -0.4176
 -0.4163  -0.4082  -0.3997  -0.3875  -0.3863  -0.3816  -0.3799  -0.3788
 -0.3748  -0.3709  -0.3624  -0.3623  -0.3368  -0.3366  -0.3248  -0.3232
 -0.3084  -0.3055  -0.2988  -0.2971  -0.2946  -0.2800  -0.2741  -0.2725
 -0.2707  -0.2656  -0.2594  -0.2446  -0.1806

 Beta MOs
 -- Occupied --
-89.0485 -89.0484 -19.1125 -19.1124 -19.1096 -19.1096 -19.0858 -19.0854
-10.2521 -10.2370 -10.2119 -10.2119 -10.2076 -10.2075 -10.2070 -10.2069
-10.1954 -10.1953 -10.1917 -10.1917 -10.1907 -10.1905 -10.1892 -10.1891
-10.1879 -10.1879 -10.1638 -10.1637  -8.1120  -8.1120  -6.0746  -6.0746
 -6.0738  -6.0738  -6.0732  -6.0732  -1.1046  -1.1043  -1.0171  -1.0056
 -0.9997  -0.9993  -0.8766  -0.8764  -0.8505  -0.8095  -0.7794  -0.7788
 -0.7645  -0.7643  -0.7382  -0.7279  -0.6939  -0.6579  -0.6547  -0.6238
 -0.6237  -0.6118  -0.6092  -0.5715  -0.5713  -0.5381  -0.5378  -0.5196
 -0.5026  -0.4881  -0.4809  -0.4782  -0.4758  -0.4646  -0.4581  -0.4561
 -0.4502  -0.4456  -0.4452  -0.4391  -0.4390  -0.4349  -0.4204  -0.4155
 -0.4121  -0.3987  -0.3984  -0.3873  -0.3837  -0.3799  -0.3783  -0.3734
 -0.3697  -0.3625  -0.3623  -0.3551  -0.3360  -0.3358  -0.3244  -0.3214
 -0.3079  -0.3041  -0.2982  -0.2957  -0.2776  -0.2739  -0.2722  -0.2708
 -0.2633  -0.2616  -0.2532  -0.2397

          Ground-State Mulliken Net Atomic Charges

     Atom                 Charge (a.u.)    Spin (a.u.)
  --------------------------------------------------------
      1 C                    -0.501686       0.016923
      2 C                    -0.604504       0.080488
      3 C                     0.557516       0.134561
      4 C                    -2.229296       0.014504
      5 C                     0.570249       0.133295
      6 C                    -0.621767       0.081051
      7 O                    -0.145920       0.219848
      8 O                    -0.277413       0.316786
      9 S                     0.010764      -0.013535
     10 C                    -1.621647      -0.004980
     11 C                    -0.879399       0.014966
     12 C                     0.101692      -0.004115
     13 C                     0.367795       0.001907
     14 C                     0.549763      -0.002085
     15 C                     0.911429      -0.000248
     16 O                    -0.135103       0.003902
     17 O                    -0.080319      -0.001096
     18 H                     0.160365       0.000332
     19 H                     0.255935       0.000125
     20 H                     0.347535      -0.000045
     21 H                     0.346281       0.000056
     22 H                     0.381239      -0.000014
     23 S                    -0.016238      -0.014914
     24 C                    -1.640190      -0.005906
     25 C                    -0.875686       0.016404
     26 C                     0.133317      -0.003517
     27 C                     0.349413       0.001827
     28 C                     0.601146      -0.001646
     29 C                     0.876324      -0.000497
     30 O                    -0.140932       0.003960
     31 O                    -0.076852      -0.001073
     32 H                     0.161150       0.000421
     33 H                     0.260112       0.000208
     34 H                     0.345548       0.000025
     35 H                     0.344004      -0.000057
     36 H                     0.383055      -0.000014
     37 C                    -0.150353      -0.002588
     38 C                    -0.153955      -0.002807
     39 H                     0.212199       0.006711
     40 H                     0.185921      -0.002267
     41 H                     0.169033       0.004346
     42 H                     0.184489      -0.002192
     43 H                     0.213322       0.006708
     44 H                     0.171664       0.004242
  --------------------------------------------------------
  Sum of atomic charges =    -1.000000

                    Cartesian Multipole Moments
 -----------------------------------------------------------------
    Charge (ESU x 10^10)
                -4.8032
    Dipole Moment (Debye)
         X      -1.1501      Y       1.5180      Z       8.1555
       Tot       8.3749
    Quadrupole Moments (Debye-Ang)
        XX    -234.6408     XY      14.1422     YY    -178.3024
        XZ       9.1374     YZ      21.1977     ZZ    -190.3776

 Total job time:  3151.06s(wall), 21857.53s(cpu)
        *  Thank you very much for using Q-Chem.  Have a nice day.  *
