 Gaussian 16, Revision A.03,
 Gaussian 16:  ES64L-G16RevA.03 25-Dec-2016

 ----------------------------------------------------------------------
 #P UB3LYP/6-311++G(d,p) nosym opt freq SCRF=(PCM,Solvent=n,n-DiMethylF
 ormamide)
 ----------------------------------------------------------------------

 -------
 Radical
 -------
 Symbolic Z-matrix:
 Charge = -1 Multiplicity = 2

 SCF Done:  E(UB3LYP) =  -1140.62119563     A.U. after   18 cycles
 SCF Done:  E(UB3LYP) =  -1140.62181936     A.U. after   14 cycles
 SCF Done:  E(UB3LYP) =  -1140.62187469     A.U. after   14 cycles
 SCF Done:  E(UB3LYP) =  -1140.62187184     A.U. after   14 cycles
 SCF Done:  E(UB3LYP) =  -1140.62189189     A.U. after   12 cycles
 SCF Done:  E(UB3LYP) =  -1140.62190656     A.U. after   13 cycles
 SCF Done:  E(UB3LYP) =  -1140.62190678     A.U. after    9 cycles
 SCF Done:  E(UB3LYP) =  -1140.62190701     A.U. after    9 cycles
 Optimization completed.
    -- Stationary point found.
 Normal termination of Gaussian 16 at Sat Feb 10 23:15:15 2024.

 ----------------------------------------------------------------------
 #P Geom=AllCheck Guess=TCheck SCRF=Check GenChk UB3LYP/6-311++G(d,p) F
 req
 ----------------------------------------------------------------------

 Structure from the checkpoint file:  "208-rad.chk"
 -------
 Radical
 -------
 Charge = -1 Multiplicity = 2

                          Input orientation:
 ---------------------------------------------------------------------
 Center     Atomic      Atomic             Coordinates (Angstroms)
 Number     Number       Type             X           Y           Z
 ---------------------------------------------------------------------
      1          8           0        4.597690    1.506102   -1.413846
      2          6           0        3.504372    0.948946   -0.809321
      3          6           0        2.237874    1.190525   -1.308317
      4          6           0        1.108062    0.619152   -0.689192
      5          6           0       -0.218840    0.872275   -1.209797
      6          8           0       -0.408555    1.618647   -2.242350
      7          6           0       -1.336053    0.258527   -0.531901
      8          6           0       -2.651172    0.485580   -1.013778
      9          8           0       -2.882906    1.265902   -2.097418
     10          6           0       -3.757485   -0.082201   -0.394222
     11          8           0       -5.018662    0.149312   -0.872659
     12          6           0       -3.577882   -0.902620    0.736624
     13          8           0       -4.711879   -1.428022    1.294851
     14          6           0       -2.305964   -1.142430    1.229050
     15          6           0       -1.172837   -0.574222    0.613787
     16          6           0        0.152244   -0.828474    1.135326
     17          8           0        0.339931   -1.575609    2.168284
     18          6           0        1.269866   -0.214505    0.458752
     19          6           0        2.583661   -0.443259    0.947095
     20          8           0        2.815615   -1.221701    2.030724
     21          6           0        3.679252    0.130476    0.321366
     22          8           0        4.961257   -0.070864    0.768677
     23          1           0        5.391956    1.231899   -0.934868
     24          1           0        2.112418    1.821037   -2.178516
     25          1           0       -1.954922    1.570332   -2.383457
     26          1           0       -4.931224    0.728501   -1.643960
     27          1           0       -4.472940   -1.963898    2.060826
     28          1           0       -2.169350   -1.773844    2.099209
     29          1           0        1.887302   -1.527070    2.314684
     30          1           0        4.929175   -0.648497    1.544346
 ---------------------------------------------------------------------

 SCF Done:  E(UB3LYP) =  -1140.62190701     A.U. after    1 cycles

 Alpha  occ. eigenvalues --  -19.16662 -19.16265 -19.16172 -19.15882 -19.14060
 Alpha  occ. eigenvalues --  -19.14006 -19.09241 -19.09240 -10.24389 -10.24257
 Alpha  occ. eigenvalues --  -10.24049 -10.23887 -10.23593 -10.23581 -10.23458
 Alpha  occ. eigenvalues --  -10.23336 -10.18142 -10.18118 -10.17938 -10.17904
 Alpha  occ. eigenvalues --  -10.17204 -10.16956  -1.08932  -1.08412  -1.06799
 Alpha  occ. eigenvalues --   -1.06675  -1.05186  -1.04967  -1.00582  -1.00407
 Alpha  occ. eigenvalues --   -0.86794  -0.85100  -0.79041  -0.75616  -0.74605
 Alpha  occ. eigenvalues --   -0.74412  -0.68210  -0.66633  -0.64562  -0.63688
 Alpha  occ. eigenvalues --   -0.60169  -0.57881  -0.56220  -0.55684  -0.54256
 Alpha  occ. eigenvalues --   -0.53301  -0.51299  -0.49668  -0.49165  -0.48037
 Alpha  occ. eigenvalues --   -0.45889  -0.45860  -0.45033  -0.44385  -0.42885
 Alpha  occ. eigenvalues --   -0.42471  -0.42125  -0.41709  -0.41492  -0.40720
 Alpha  occ. eigenvalues --   -0.39668  -0.39424  -0.38471  -0.38040  -0.37690
 Alpha  occ. eigenvalues --   -0.37241  -0.37150  -0.36882  -0.36272  -0.35429
 Alpha  occ. eigenvalues --   -0.31715  -0.31456  -0.26698  -0.25560  -0.24877
 Alpha  occ. eigenvalues --   -0.23751  -0.22410  -0.22034  -0.14614
 Alpha virt. eigenvalues --   -0.04616  -0.01170  -0.00900  -0.00756   0.00619
 Alpha virt. eigenvalues --    0.00747   0.01537   0.01699   0.03621   0.04162
 Alpha virt. eigenvalues --    0.04376   0.04427   0.05724   0.05788   0.06316

  Beta  occ. eigenvalues --  -19.16635 -19.16252 -19.16156 -19.15850 -19.14032
  Beta  occ. eigenvalues --  -19.13978 -19.08791 -19.08786 -10.24383 -10.24243
  Beta  occ. eigenvalues --  -10.24014 -10.23852 -10.23390 -10.23338 -10.23326
  Beta  occ. eigenvalues --  -10.23263 -10.18094 -10.18072 -10.17940 -10.17905
  Beta  occ. eigenvalues --  -10.17113 -10.16866  -1.08871  -1.08347  -1.06742
  Beta  occ. eigenvalues --   -1.06611  -1.05081  -1.04851  -0.99826  -0.99629
  Beta  occ. eigenvalues --   -0.86534  -0.84979  -0.78695  -0.75256  -0.74442
  Beta  occ. eigenvalues --   -0.74268  -0.67550  -0.66485  -0.64406  -0.63558
  Beta  occ. eigenvalues --   -0.59984  -0.57743  -0.56166  -0.55562  -0.54115
  Beta  occ. eigenvalues --   -0.53196  -0.51177  -0.49498  -0.49007  -0.47963
  Beta  occ. eigenvalues --   -0.45733  -0.45390  -0.44750  -0.44149  -0.42729
  Beta  occ. eigenvalues --   -0.42106  -0.42045  -0.41375  -0.40831  -0.40142
  Beta  occ. eigenvalues --   -0.39571  -0.38976  -0.38399  -0.37612  -0.37179
  Beta  occ. eigenvalues --   -0.37169  -0.37045  -0.35965  -0.35681  -0.35245
  Beta  occ. eigenvalues --   -0.31321  -0.30026  -0.26319  -0.25186  -0.23760
  Beta  occ. eigenvalues --   -0.22621  -0.21804  -0.21570
  Beta virt. eigenvalues --   -0.09133  -0.03275  -0.01151  -0.00742  -0.00070
  Beta virt. eigenvalues --    0.00633   0.01151   0.01564   0.01709   0.03636
  Beta virt. eigenvalues --    0.04188   0.04437   0.04503   0.05798   0.06324

 Mulliken charges and spin densities:
               1          2
     1  O   -0.288751   0.004174
     2  C   -0.427788   0.005858
     3  C   -0.319201   0.085099
     4  C    0.684440   0.014895
     5  C   -0.620163   0.139101
     6  O   -0.500883   0.166199
     7  C    0.665172  -0.013366
     8  C   -0.086351   0.041030
     9  O   -0.467867   0.009750
    10  C   -0.247343   0.053000
    11  O   -0.326286   0.008373
    12  C   -0.441144   0.000463
    13  O   -0.297362   0.003822
    14  C   -0.042803   0.088423
    15  C    0.729421   0.015006
    16  C   -0.485667   0.140655
    17  O   -0.507671   0.164125
    18  C    0.577286  -0.015682
    19  C   -0.114218   0.042454
    20  O   -0.455820   0.009673
    21  C   -0.075752   0.049273
    22  O   -0.343933   0.006943
    23  H    0.306857  -0.000244
    24  H    0.186627  -0.005179
    25  H    0.398440  -0.003678
    26  H    0.317504  -0.000300
    27  H    0.310386  -0.000375
    28  H    0.165156  -0.005612
    29  H    0.385882  -0.003655
    30  H    0.321831  -0.000223
 Sum of Mulliken charges =  -1.00000   1.00000

 Dipole moment (field-independent basis, Debye):
    X=              2.3067    Y=             -1.7844    Z=              2.7470  Tot=              4.0064
 Quadrupole moment (field-independent basis, Debye-Ang):
   XX=           -159.5192   YY=           -138.3184   ZZ=           -144.4725
   XY=             -0.5541   XZ=             -3.1549   YZ=              9.6557

  Exact polarizability: 518.073  32.118 224.374   8.109-115.200 292.459
 Approx polarizability: 550.010  32.287 270.351   9.265-147.643 358.348

                      1                      2                      3
                      A                      A                      A
 Frequencies --     43.5950                66.5241               108.6245
 Red. masses --      9.6901                 7.8798                11.0577
 Frc consts  --      0.0109                 0.0205                 0.0769
 IR Inten    --      2.9318                 0.5847                 0.4333

                      4                      5                      6
                      A                      A                      A
 Frequencies --    128.1791               142.6463               151.8279
 Red. masses --      8.0383                10.4612                 7.3926
 Frc consts  --      0.0778                 0.1254                 0.1004
 IR Inten    --      0.3402                 0.0019                 6.6687

                      7                      8                      9
                      A                      A                      A
 Frequencies --    160.6888               190.0937               254.0281
 Red. masses --      9.2838                 8.9820                 1.1463
 Frc consts  --      0.1412                 0.1912                 0.0436
 IR Inten    --      0.4168                 5.4334               311.9471

                     10                     11                     12
                      A                      A                      A
 Frequencies --    258.7782               266.7905               285.7911
 Red. masses --      7.0692                 6.5767                 5.6486
 Frc consts  --      0.2789                 0.2758                 0.2718
 IR Inten    --      3.0704                 3.2665                 6.0602

                     13                     14                     15
                      A                      A                      A
 Frequencies --    288.3341               296.7451               310.8941
 Red. masses --      5.6405                 5.2964                 6.6162
 Frc consts  --      0.2763                 0.2748                 0.3768
 IR Inten    --     15.3979                11.6210                25.4881

                     16                     17                     18
                      A                      A                      A
 Frequencies --    319.7288               340.4085               352.6159
 Red. masses --      2.6841                 5.5583                 1.2618
 Frc consts  --      0.1617                 0.3795                 0.0924
 IR Inten    --     55.7836                 5.9497                32.7442

                     19                     20                     21
                      A                      A                      A
 Frequencies --    362.4231               363.3884               376.3160
 Red. masses --      6.0338                 1.7753                 8.3895
 Frc consts  --      0.4670                 0.1381                 0.7000
 IR Inten    --     15.6453               170.7389                 1.9789

                     22                     23                     24
                      A                      A                      A
 Frequencies --    381.3414               405.7634               411.3148
 Red. masses --      1.1576                 3.4496                11.7464
 Frc consts  --      0.0992                 0.3346                 1.1709
 IR Inten    --      1.0382                97.4491               105.6035

                     25                     26                     27
                      A                      A                      A
 Frequencies --    447.0195               477.1771               488.4052
 Red. masses --      7.5489                 8.8479                12.9253
 Frc consts  --      0.8888                 1.1870                 1.8166
 IR Inten    --    145.0054                 0.9901                 0.0523

                     28                     29                     30
                      A                      A                      A
 Frequencies --    527.0920               541.3799               564.5399
 Red. masses --     10.2037                10.8694                 5.9273
 Frc consts  --      1.6703                 1.8770                 1.1130
 IR Inten    --     14.3690                 2.6155                 2.5434

                     31                     32                     33
                      A                      A                      A
 Frequencies --    591.9161               622.8212               627.6597
 Red. masses --      4.7857                10.1977                 6.2550
 Frc consts  --      0.9879                 2.3307                 1.4519
 IR Inten    --      1.0586                 4.1683                25.2646

                     34                     35                     36
                      A                      A                      A
 Frequencies --    639.4287               652.1507               666.7568
 Red. masses --      8.6482                 6.5591                 8.7543
 Frc consts  --      2.0833                 1.6436                 2.2930
 IR Inten    --     32.5668                 4.6518                 0.1702

                     37                     38                     39
                      A                      A                      A
 Frequencies --    678.6459               689.8637               714.0233
 Red. masses --     10.3916                 5.8531                11.2235
 Frc consts  --      2.8198                 1.6412                 3.3713
 IR Inten    --      0.0174               330.0948                 0.0222

                     40                     41                     42
                      A                      A                      A
 Frequencies --    721.5380               783.1688               818.5640
 Red. masses --      5.9278                 6.3900                 7.2356
 Frc consts  --      1.8183                 2.3092                 2.8565
 IR Inten    --     34.8161                75.0730                 9.9551

                     43                     44                     45
                      A                      A                      A
 Frequencies --    838.8105               851.8006               875.4799
 Red. masses --      1.4000                 1.4384                 6.4467
 Frc consts  --      0.5804                 0.6149                 2.9112
 IR Inten    --     19.9540                48.4570                 0.5665

                     46                     47                     48
                      A                      A                      A
 Frequencies --    915.3259               919.6096              1002.7357
 Red. masses --      1.0532                 1.0542                 4.0596
 Frc consts  --      0.5199                 0.5253                 2.4050
 IR Inten    --    116.4323               139.9638               443.5837

                     49                     50                     51
                      A                      A                      A
 Frequencies --   1037.5462              1072.5303              1100.2220
 Red. masses --      5.2205                 8.1552                 4.2547
 Frc consts  --      3.3112                 5.5272                 3.0344
 IR Inten    --     24.4358                65.8793               381.8783

                     52                     53                     54
                      A                      A                      A
 Frequencies --   1172.3220              1179.1341              1192.8669
 Red. masses --      1.5123                 1.8681                 3.0276
 Frc consts  --      1.2246                 1.5303                 2.5382
 IR Inten    --    116.9696                99.4522                97.4572

                     55                     56                     57
                      A                      A                      A
 Frequencies --   1205.5525              1219.0304              1252.8095
 Red. masses --      1.5262                 1.8770                 3.1346
 Frc consts  --      1.3069                 1.6434                 2.8987
 IR Inten    --    200.8601              1001.0457               155.0296

                     58                     59                     60
                      A                      A                      A
 Frequencies --   1263.0484              1296.5541              1328.0759
 Red. masses --      5.4339                 3.4765                 2.9653
 Frc consts  --      5.1074                 3.4433                 3.0815
 IR Inten    --    577.7127               201.5413               409.6192

                     61                     62                     63
                      A                      A                      A
 Frequencies --   1340.3373              1354.6259              1368.6663
 Red. masses --      2.5365                 3.8247                 2.5981
 Frc consts  --      2.6848                 4.1351                 2.8675
 IR Inten    --    360.7074              1001.6109               854.7629

                     64                     65                     66
                      A                      A                      A
 Frequencies --   1383.3665              1401.7433              1434.0248
 Red. masses --      5.9413                 4.7679                 6.5740
 Frc consts  --      6.6989                 5.5197                 7.9651
 IR Inten    --     50.5421               326.4736                46.7925

                     67                     68                     69
                      A                      A                      A
 Frequencies --   1452.0989              1465.0568              1481.9513
 Red. masses --      3.8590                 2.7488                 4.5082
 Frc consts  --      4.7942                 3.4762                 5.8334
 IR Inten    --    961.4747                55.1078              1183.5551

                     70                     71                     72
                      A                      A                      A
 Frequencies --   1501.9502              1551.1581              1582.1224
 Red. masses --      5.3870                 2.6617                 3.8232
 Frc consts  --      7.1599                 3.7734                 5.6385
 IR Inten    --     34.1057               205.4416                52.2397

                     73                     74                     75
                      A                      A                      A
 Frequencies --   1603.3521              1622.5035              1651.8992
 Red. masses --      5.3076                 6.1471                 3.8039
 Frc consts  --      8.0390                 9.5344                 6.1157
 IR Inten    --    344.1293                 0.1137                79.7373

                     76                     77                     78
                      A                      A                      A
 Frequencies --   1662.7593              2774.5892              2777.8386
 Red. masses --      4.1581                 1.0754                 1.0757
 Frc consts  --      6.7733                 4.8776                 4.8906
 IR Inten    --    197.0210               309.0505              1933.3989

                     79                     80                     81
                      A                      A                      A
 Frequencies --   3182.5174              3205.6403              3749.4588
 Red. masses --      1.0900                 1.0902                 1.0655
 Frc consts  --      6.5044                 6.6006                 8.8253
 IR Inten    --     16.6686                 9.2770               177.4742

                     82                     83                     84
                      A                      A                      A
 Frequencies --   3767.2041              3772.3397              3811.9383
 Red. masses --      1.0658                 1.0659                 1.0663
 Frc consts  --      8.9117                 8.9373                 9.1286
 IR Inten    --    257.4696               190.9893               154.4403

 - Thermochemistry -
 -------------------
 Temperature   298.150 Kelvin.  Pressure   1.00000 Atm.
 Atom     1 has atomic number  8 and mass  15.99491

 Molecular mass:   304.02192 amu.
 Principal axes and moments of inertia in atomic units:
                           1         2         3
     Eigenvalues --  2913.82121********************
           X            0.99664   0.01796  -0.07993
           Y            0.07494  -0.59393   0.80102
           Z            0.03309   0.80432   0.59328
 This molecule is an asymmetric top.
 Rotational symmetry number  1.
 Warning -- assumption of classical behavior for rotation
           may cause significant error
 Rotational temperatures (Kelvin)      0.02973     0.00842     0.00656
 Rotational constants (GHZ):           0.61937     0.17536     0.13666
 Zero-point vibrational energy     527203.8 (Joules/Mol)
                                  126.00473 (Kcal/Mol)
 Warning -- explicit consideration of  31 degrees of freedom as
           vibrations may cause significant error
 Vibrational temperatures:     62.72    95.71   156.29   184.42   205.24
          (Kelvin)            218.45   231.20   273.50   365.49   372.32
                              383.85   411.19   414.85   426.95   447.31
                              460.02   489.77   507.34   521.45   522.83
                              541.43   548.67   583.80   591.79   643.16
                              686.55   702.71   758.37   778.92   812.25
                              851.64   896.10   903.06   920.00   938.30
                              959.31   976.42   992.56  1027.32  1038.13
                             1126.81  1177.73  1206.86  1225.55  1259.62
                             1316.95  1323.11  1442.71  1492.80  1543.13
                             1582.97  1686.71  1696.51  1716.27  1734.52
                             1753.91  1802.51  1817.24  1865.45  1910.81
                             1928.45  1949.00  1969.21  1990.36  2016.80
                             2063.24  2089.25  2107.89  2132.20  2160.97
                             2231.77  2276.32  2306.87  2334.42  2376.71
                             2392.34  3992.01  3996.69  4578.93  4612.20
                             5394.63  5420.17  5427.56  5484.53

 Zero-point correction=                           0.200801 (Hartree/Particle)
 Thermal correction to Energy=                    0.218810
 Thermal correction to Enthalpy=                  0.219754
 Thermal correction to Gibbs Free Energy=         0.155771
 Sum of electronic and zero-point Energies=          -1140.421106
 Sum of electronic and thermal Energies=             -1140.403097
 Sum of electronic and thermal Enthalpies=           -1140.402153
 Sum of electronic and thermal Free Energies=        -1140.466136

                     E (Thermal)             CV                S
                      KCal/Mol        Cal/Mol-Kelvin    Cal/Mol-Kelvin
 Total                  137.305             71.844            134.664
 Electronic               0.000              0.000              1.377
 Translational            0.889              2.981             43.032
 Rotational               0.889              2.981             34.337
 Vibrational            135.528             65.883             55.918
 Vibration     1          0.595              1.980              5.089
 Vibration     2          0.598              1.970              4.254
 Vibration     3          0.606              1.942              3.293
 Vibration     4          0.611              1.925              2.973
 Vibration     5          0.616              1.911              2.768
 Vibration     6          0.619              1.901              2.649
 Vibration     7          0.622              1.891              2.542
 Vibration     8          0.633              1.854              2.227
 Vibration     9          0.665              1.756              1.702
 Vibration    10          0.668              1.748              1.670
 Vibration    11          0.672              1.734              1.617
 Vibration    12          0.684              1.700              1.499
 Vibration    13          0.685              1.695              1.484
 Vibration    14          0.690              1.680              1.435
 Vibration    15          0.700              1.653              1.358
 Vibration    16          0.706              1.636              1.311
 Vibration    17          0.720              1.595              1.210
 Vibration    18          0.729              1.570              1.154
 Vibration    19          0.736              1.550              1.112
 Vibration    20          0.737              1.548              1.108
 Vibration    21          0.747              1.521              1.054
 Vibration    22          0.751              1.510              1.034
 Vibration    23          0.771              1.458              0.942
 Vibration    24          0.775              1.446              0.922
 Vibration    25          0.806              1.367              0.805
 Vibration    26          0.834              1.301              0.718
 Vibration    27          0.844              1.276              0.688
 Vibration    28          0.882              1.190              0.594
 Vibration    29          0.896              1.159              0.562
 Vibration    30          0.920              1.108              0.515
 Vibration    31          0.949              1.049              0.464

 Optimization completed.
    -- Stationary point found.
 Normal termination of Gaussian 16 at Sun Feb 11 01:04:02 2024.
