 Gaussian 16, Revision A.03,
 Gaussian 16:  ES64L-G16RevA.03 25-Dec-2016

 --------------------------------------
 #P UB3LYP/6-311++G(d,p) nosym opt freq
 --------------------------------------

 -------
 Reduced
 -------
 Symbolic Z-matrix:
 Charge = -2 Multiplicity = 1

 SCF Done:  E(UB3LYP) =  -947.991371613     A.U. after   46 cycles
 SCF Done:  E(UB3LYP) =  -948.019135171     A.U. after   25 cycles
 SCF Done:  E(UB3LYP) =  -948.022489407     A.U. after   19 cycles
 SCF Done:  E(UB3LYP) =  -948.016938967     A.U. after   18 cycles
 SCF Done:  E(UB3LYP) =  -948.024997802     A.U. after   19 cycles
 SCF Done:  E(UB3LYP) =  -948.025925191     A.U. after   18 cycles
 SCF Done:  E(UB3LYP) =  -948.026743788     A.U. after   18 cycles
 SCF Done:  E(UB3LYP) =  -948.026831558     A.U. after   18 cycles
 SCF Done:  E(UB3LYP) =  -948.026553193     A.U. after   18 cycles
 SCF Done:  E(UB3LYP) =  -948.027822667     A.U. after   17 cycles
 SCF Done:  E(UB3LYP) =  -948.028444703     A.U. after   18 cycles
 SCF Done:  E(UB3LYP) =  -948.028455746     A.U. after   17 cycles
 SCF Done:  E(UB3LYP) =  -948.028465338     A.U. after   17 cycles
 SCF Done:  E(UB3LYP) =  -948.028466001     A.U. after   15 cycles
 SCF Done:  E(UB3LYP) =  -948.028466225     A.U. after   15 cycles
 SCF Done:  E(UB3LYP) =  -948.028466256     A.U. after   15 cycles
 SCF Done:  E(UB3LYP) =  -948.028466249     A.U. after   14 cycles
 SCF Done:  E(UB3LYP) =  -948.028466229     A.U. after   14 cycles
 SCF Done:  E(UB3LYP) =  -948.028466221     A.U. after   13 cycles
 Optimization completed.
    -- Stationary point found.
 Normal termination of Gaussian 16 at Mon Dec 18 00:11:28 2023.

 ----------------------------------------------------------------------
 #P Geom=AllCheck Guess=TCheck SCRF=Check GenChk UB3LYP/6-311++G(d,p) F
 req
 ----------------------------------------------------------------------

 Structure from the checkpoint file:  "035-an.chk"
 -------
 Reduced
 -------
 Charge = -2 Multiplicity = 1

                          Input orientation:
 ---------------------------------------------------------------------
 Center     Atomic      Atomic             Coordinates (Angstroms)
 Number     Number       Type             X           Y           Z
 ---------------------------------------------------------------------
      1          6           0        2.468544   -4.836842    2.067644
      2          6           0        2.482157   -3.961810    0.909992
      3          6           0        2.073314   -2.625668    0.864287
      4          6           0        1.626621   -1.969221    2.073561
      5          6           0        1.644848   -2.828333    3.248850
      6          6           0        2.018251   -4.185158    3.262549
      7          8           0        2.792092   -6.072543    2.020617
      8          8           0        1.212762   -0.763521    2.074030
      9          6           0        2.065962   -5.014572    4.521136
     10          6           0        2.160390   -1.793877   -0.412476
     11          6           0        0.765582   -1.350655   -0.900943
     12          6           0        3.102761   -0.581843   -0.251449
     13          7           0        2.914876   -4.603742   -0.336159
     14          7           0        1.162511   -2.244636    4.481916
     15          1           0        2.348335   -4.425091    5.398840
     16          1           0        2.782520   -5.824132    4.363116
     17          1           0        1.093930   -5.471531    4.748796
     18          1           0        2.582636   -2.417963   -1.202865
     19          1           0        0.847202   -0.757843   -1.824123
     20          1           0        0.281577   -0.749294   -0.128759
     21          1           0        0.146577   -2.227440   -1.113176
     22          1           0        3.163285   -0.015327   -1.192575
     23          1           0        4.113000   -0.916125    0.007719
     24          1           0        2.736513    0.071456    0.542394
     25          8           0        4.076356   -5.003977   -0.427065
     26          8           0        2.097297   -4.723742   -1.264184
     27          8           0        0.309254   -2.867538    5.154605
     28          8           0        1.600467   -1.146242    4.850764
 ---------------------------------------------------------------------

 SCF Done:  E(UB3LYP) =  -948.028466221     A.U. after    2 cycles

 Alpha  occ. eigenvalues --  -18.91347 -18.91122 -18.89386 -18.89085 -18.79379
 Alpha  occ. eigenvalues --  -18.78755 -14.29475 -14.27704  -9.96664  -9.95989
 Alpha  occ. eigenvalues --   -9.95930  -9.95236  -9.95086  -9.93618  -9.93492
 Alpha  occ. eigenvalues --   -9.92557  -9.92182  -9.92007  -0.97802  -0.95584
 Alpha  occ. eigenvalues --   -0.80277  -0.78005  -0.72004  -0.71122  -0.59995
 Alpha  occ. eigenvalues --   -0.57671  -0.55013  -0.49757  -0.47269  -0.46143
 Alpha  occ. eigenvalues --   -0.42555  -0.37492  -0.35753  -0.32613  -0.30816
 Alpha  occ. eigenvalues --   -0.29654  -0.28843  -0.27452  -0.26419  -0.25712
 Alpha  occ. eigenvalues --   -0.24284  -0.22383  -0.21188  -0.19386  -0.19002
 Alpha  occ. eigenvalues --   -0.17504  -0.16675  -0.15500  -0.14043  -0.13168
 Alpha  occ. eigenvalues --   -0.12986  -0.12775  -0.11377  -0.10790  -0.09813
 Alpha  occ. eigenvalues --   -0.09027  -0.07162  -0.07040  -0.05828  -0.05685
 Alpha  occ. eigenvalues --   -0.05533  -0.03856  -0.00051   0.00744   0.02840
 Alpha  occ. eigenvalues --    0.03428   0.10427
 Alpha virt. eigenvalues --    0.15502   0.16016   0.17689   0.18104   0.18510
 Alpha virt. eigenvalues --    0.20018   0.20483   0.21306   0.22358   0.22628
 Alpha virt. eigenvalues --    0.22676   0.23540   0.24842   0.25111   0.26523

  Beta  occ. eigenvalues --  -18.91347 -18.91122 -18.89386 -18.89085 -18.79379
  Beta  occ. eigenvalues --  -18.78755 -14.29475 -14.27704  -9.96664  -9.95989
  Beta  occ. eigenvalues --   -9.95930  -9.95236  -9.95086  -9.93618  -9.93492
  Beta  occ. eigenvalues --   -9.92557  -9.92182  -9.92007  -0.97802  -0.95584
  Beta  occ. eigenvalues --   -0.80277  -0.78005  -0.72004  -0.71122  -0.59995
  Beta  occ. eigenvalues --   -0.57671  -0.55013  -0.49757  -0.47269  -0.46143
  Beta  occ. eigenvalues --   -0.42555  -0.37492  -0.35753  -0.32613  -0.30816
  Beta  occ. eigenvalues --   -0.29654  -0.28843  -0.27452  -0.26419  -0.25712
  Beta  occ. eigenvalues --   -0.24284  -0.22383  -0.21188  -0.19386  -0.19002
  Beta  occ. eigenvalues --   -0.17504  -0.16675  -0.15500  -0.14043  -0.13168
  Beta  occ. eigenvalues --   -0.12986  -0.12775  -0.11377  -0.10790  -0.09813
  Beta  occ. eigenvalues --   -0.09027  -0.07162  -0.07040  -0.05828  -0.05685
  Beta  occ. eigenvalues --   -0.05533  -0.03856  -0.00051   0.00744   0.02840
  Beta  occ. eigenvalues --    0.03428   0.10427
  Beta virt. eigenvalues --    0.15502   0.16016   0.17689   0.18104   0.18510
  Beta virt. eigenvalues --    0.20018   0.20483   0.21306   0.22358   0.22628
  Beta virt. eigenvalues --    0.22676   0.23540   0.24842   0.25111   0.26523

 Mulliken charges and spin densities:
               1          2
     1  C   -0.825906   0.000000
     2  C   -0.598051   0.000000
     3  C    1.805334  -0.000000
     4  C   -1.297698   0.000000
     5  C   -1.715727   0.000000
     6  C    2.681776  -0.000000
     7  O   -0.471943  -0.000000
     8  O   -0.411574   0.000000
     9  C   -0.394330  -0.000000
    10  C    0.007133   0.000000
    11  C   -0.711186   0.000000
    12  C   -0.701326  -0.000000
    13  N   -0.253006  -0.000000
    14  N   -0.317319  -0.000000
    15  H    0.132701  -0.000000
    16  H    0.160518  -0.000000
    17  H    0.137846   0.000000
    18  H    0.136215   0.000000
    19  H    0.071446   0.000000
    20  H    0.203817  -0.000000
    21  H    0.120556  -0.000000
    22  H    0.070901   0.000000
    23  H    0.113239  -0.000000
    24  H    0.200658  -0.000000
    25  O    0.009389  -0.000000
    26  O   -0.065008  -0.000000
    27  O   -0.092837  -0.000000
    28  O    0.004384   0.000000
 Sum of Mulliken charges =  -2.00000   0.00000

 Dipole moment (field-independent basis, Debye):
    X=            -18.9283    Y=             32.2083    Z=            -19.7207  Tot=             42.2441
 Quadrupole moment (field-independent basis, Debye-Ang):
   XX=           -165.9337   YY=           -278.1928   ZZ=           -208.5335
   XY=             80.8326   XZ=            -22.9775   YZ=             50.0737

  Exact polarizability: 151.654 -19.167 214.712 -42.525  -4.729 319.741
 Approx polarizability: 262.056 -34.285 355.105 -86.497  18.313 575.678

                      1                      2                      3
                      A                      A                      A
 Frequencies --     14.3678                48.7384                60.2300
 Red. masses --     10.8839                 8.5764                 5.4350
 Frc consts  --      0.0013                 0.0120                 0.0116
 IR Inten    --     40.3070                 0.1974                 5.1935

                      4                      5                      6
                      A                      A                      A
 Frequencies --     76.8277                78.9292               108.6360
 Red. masses --      3.3688                 8.9933                 4.1268
 Frc consts  --      0.0117                 0.0330                 0.0287
 IR Inten    --      3.4670                 0.8542                 3.6274

                      7                      8                      9
                      A                      A                      A
 Frequencies --    131.4392               161.6691               171.6114
 Red. masses --      1.1205                 5.1074                 7.7279
 Frc consts  --      0.0114                 0.0787                 0.1341
 IR Inten    --      0.6183                 5.1336                 2.7223

                     10                     11                     12
                      A                      A                      A
 Frequencies --    179.9139               219.5183               231.0933
 Red. masses --      4.9293                 3.7882                 1.1236
 Frc consts  --      0.0940                 0.1076                 0.0354
 IR Inten    --      2.0618                 0.7267                 0.3682

                     13                     14                     15
                      A                      A                      A
 Frequencies --    238.3305               255.0255               269.6250
 Red. masses --      1.5495                 2.8766                 4.4110
 Frc consts  --      0.0519                 0.1102                 0.1889
 IR Inten    --      1.9728                 5.2991                12.9596

                     16                     17                     18
                      A                      A                      A
 Frequencies --    276.4331               285.3802               341.4083
 Red. masses --      9.5622                 3.5038                 4.6182
 Frc consts  --      0.4305                 0.1681                 0.3172
 IR Inten    --      3.7555                 4.3555                 6.1354

                     19                     20                     21
                      A                      A                      A
 Frequencies --    363.6788               377.0529               429.4100
 Red. masses --      5.6716                 7.1312                 3.2960
 Frc consts  --      0.4420                 0.5973                 0.3581
 IR Inten    --     19.6354                19.4051                 7.8866

                     22                     23                     24
                      A                      A                      A
 Frequencies --    448.2458               465.7388               474.9683
 Red. masses --      6.6574                 4.7170                 6.5009
 Frc consts  --      0.7881                 0.6028                 0.8641
 IR Inten    --      9.9866                 3.7758                 3.6593

                     25                     26                     27
                      A                      A                      A
 Frequencies --    517.5097               533.5972               570.3443
 Red. masses --      6.1723                 9.0829                 6.5374
 Frc consts  --      0.9740                 1.5237                 1.2529
 IR Inten    --      0.5918                21.3595                 8.1579

                     28                     29                     30
                      A                      A                      A
 Frequencies --    667.5614               711.0932               726.4970
 Red. masses --      7.9112                 9.2947                 6.6797
 Frc consts  --      2.0772                 2.7691                 2.0772
 IR Inten    --     23.6375                13.4427                60.1247

                     31                     32                     33
                      A                      A                      A
 Frequencies --    753.3443               775.3236               790.4882
 Red. masses --      9.9637                12.3744                10.2726
 Frc consts  --      3.3316                 4.3827                 3.7820
 IR Inten    --      2.2052                 3.6694                 5.1489

                     34                     35                     36
                      A                      A                      A
 Frequencies --    813.5078               849.0112               891.4802
 Red. masses --      5.4236                 3.8909                 5.2375
 Frc consts  --      2.1148                 1.6525                 2.4524
 IR Inten    --      6.6287                14.2122                21.7232

                     37                     38                     39
                      A                      A                      A
 Frequencies --    923.1072               951.2363               962.1797
 Red. masses --      1.1564                 1.5863                 2.8139
 Frc consts  --      0.5806                 0.8457                 1.5349
 IR Inten    --      1.4979                 1.7000                89.0816

                     40                     41                     42
                      A                      A                      A
 Frequencies --    975.8363              1040.8500              1043.4295
 Red. masses --      5.5473                 2.8826                 1.4661
 Frc consts  --      3.1123                 1.8400                 0.9405
 IR Inten    --     45.5382               384.0574                54.6033

                     43                     44                     45
                      A                      A                      A
 Frequencies --   1065.3826              1117.6852              1131.6842
 Red. masses --      2.4744                 2.3993                 3.0387
 Frc consts  --      1.6547                 1.7659                 2.2929
 IR Inten    --      9.0954                 6.2327               131.2980

                     46                     47                     48
                      A                      A                      A
 Frequencies --   1156.1391              1193.2733              1241.6913
 Red. masses --      6.3385                 2.1742                 5.6439
 Frc consts  --      4.9918                 1.8240                 5.1269
 IR Inten    --    298.7453                24.4682              1178.2985

                     49                     50                     51
                      A                      A                      A
 Frequencies --   1285.4999              1303.6454              1340.6748
 Red. masses --      9.3612                 7.4257                 1.2718
 Frc consts  --      9.1144                 7.4354                 1.3468
 IR Inten    --    710.1392               142.5790                 8.7306

                     52                     53                     54
                      A                      A                      A
 Frequencies --   1357.6955              1367.0263              1375.6587
 Red. masses --      1.2436                 1.5528                 1.5762
 Frc consts  --      1.3507                 1.7097                 1.7574
 IR Inten    --     23.7665               180.9918                24.3707

                     55                     56                     57
                      A                      A                      A
 Frequencies --   1385.4091              1411.7794              1428.1789
 Red. masses --      1.4138                 3.2846                 4.4932
 Frc consts  --      1.5988                 3.8571                 5.3998
 IR Inten    --     17.5920                39.5859               120.4354

                     58                     59                     60
                      A                      A                      A
 Frequencies --   1448.1945              1453.3446              1467.5097
 Red. masses --      4.6186                 5.3835                 1.2173
 Frc consts  --      5.7070                 6.6997                 1.5446
 IR Inten    --     12.8238               149.2561                 8.6465

                     61                     62                     63
                      A                      A                      A
 Frequencies --   1470.5472              1484.9706              1490.8747
 Red. masses --      1.0531                 1.4544                 1.4579
 Frc consts  --      1.3418                 1.8896                 1.9092
 IR Inten    --      0.8691               185.8085                86.3658

                     64                     65                     66
                      A                      A                      A
 Frequencies --   1500.7233              1505.1870              1518.1992
 Red. masses --      2.0648                 1.0903                 1.4733
 Frc consts  --      2.7399                 1.4554                 2.0008
 IR Inten    --    235.0659                31.4030               207.4300

                     67                     68                     69
                      A                      A                      A
 Frequencies --   1525.7387              1594.4413              2963.0163
 Red. masses --      2.5231                 7.9836                 1.0512
 Frc consts  --      3.4606                11.9582                 5.4376
 IR Inten    --    535.1276                15.6434                44.4882

                     70                     71                     72
                      A                      A                      A
 Frequencies --   2972.3672              2986.3523              3033.6351
 Red. masses --      1.0505                 1.0482                 1.0844
 Frc consts  --      5.4682                 5.5078                 5.8798
 IR Inten    --    376.2548               141.8823                61.0450

                     73                     74                     75
                      A                      A                      A
 Frequencies --   3041.0352              3051.4150              3056.3187
 Red. masses --      1.0858                 1.0798                 1.0850
 Frc consts  --      5.9160                 5.9238                 5.9714
 IR Inten    --     59.9236                22.0494                42.9604

                     76                     77                     78
                      A                      A                      A
 Frequencies --   3083.9244              3098.9326              3104.4206
 Red. masses --      1.1006                 1.1003                 1.0986
 Frc consts  --      6.1671                 6.2255                 6.2379
 IR Inten    --     14.0403                 0.6865                19.6013

 - Thermochemistry -
 -------------------
 Temperature   298.150 Kelvin.  Pressure   1.00000 Atm.
 Atom     1 has atomic number  6 and mass  12.00000

 Molecular mass:   254.05389 amu.
 Principal axes and moments of inertia in atomic units:
                           1         2         3
     Eigenvalues --  3133.540864809.984247170.10616
           X           -0.26330  -0.21311   0.94088
           Y            0.19475   0.94347   0.26820
           Z            0.94485  -0.25386   0.20692
 This molecule is an asymmetric top.
 Rotational symmetry number  1.
 Warning -- assumption of classical behavior for rotation
           may cause significant error
 Rotational temperatures (Kelvin)      0.02764     0.01801     0.01208
 Rotational constants (GHZ):           0.57594     0.37521     0.25170
 Zero-point vibrational energy     515693.6 (Joules/Mol)
                                  123.25373 (Kcal/Mol)
 Warning -- explicit consideration of  27 degrees of freedom as
           vibrations may cause significant error
 Vibrational temperatures:     20.67    70.12    86.66   110.54   113.56
          (Kelvin)            156.30   189.11   232.61   246.91   258.86
                              315.84   332.49   342.90   366.92   387.93
                              397.73   410.60   491.21   523.25   542.50
                              617.83   644.93   670.09   683.37   744.58
                              767.73   820.60   960.47  1023.10  1045.27
                             1083.89  1115.52  1137.34  1170.46  1221.54
                             1282.64  1328.15  1368.62  1384.36  1404.01
                             1497.55  1501.26  1532.85  1608.10  1628.24
                             1663.43  1716.85  1786.52  1849.55  1875.65
                             1928.93  1953.42  1966.85  1979.27  1993.29
                             2031.24  2054.83  2083.63  2091.04  2111.42
                             2115.79  2136.54  2145.04  2159.21  2165.63
                             2184.35  2195.20  2294.05  4263.12  4276.57
                             4296.69  4364.72  4375.37  4390.31  4397.36
                             4437.08  4458.67  4466.57

 Zero-point correction=                           0.196417 (Hartree/Particle)
 Thermal correction to Energy=                    0.213934
 Thermal correction to Enthalpy=                  0.214878
 Thermal correction to Gibbs Free Energy=         0.149737
 Sum of electronic and zero-point Energies=           -947.832049
 Sum of electronic and thermal Energies=              -947.814532
 Sum of electronic and thermal Enthalpies=            -947.813588
 Sum of electronic and thermal Free Energies=         -947.878729

                     E (Thermal)             CV                S
                      KCal/Mol        Cal/Mol-Kelvin    Cal/Mol-Kelvin
 Total                  134.245             63.227            137.101
 Electronic               0.000              0.000              0.000
 Translational            0.889              2.981             42.497
 Rotational               0.889              2.981             33.046
 Vibrational            132.468             57.266             61.557
 Vibration     1          0.593              1.986              7.291
 Vibration     2          0.595              1.978              4.868
 Vibration     3          0.597              1.973              4.450
 Vibration     4          0.599              1.965              3.970
 Vibration     5          0.600              1.963              3.917
 Vibration     6          0.606              1.942              3.293
 Vibration     7          0.612              1.922              2.925
 Vibration     8          0.622              1.889              2.530
 Vibration     9          0.626              1.877              2.418
 Vibration    10          0.629              1.867              2.329
 Vibration    11          0.647              1.811              1.963
 Vibration    12          0.653              1.793              1.870
 Vibration    13          0.656              1.782              1.815
 Vibration    14          0.665              1.754              1.696
 Vibration    15          0.674              1.729              1.599
 Vibration    16          0.678              1.717              1.556
 Vibration    17          0.683              1.701              1.501
 Vibration    18          0.721              1.593              1.206
 Vibration    19          0.737              1.547              1.106
 Vibration    20          0.748              1.519              1.051
 Vibration    21          0.791              1.406              0.861
 Vibration    22          0.807              1.365              0.801
 Vibration    23          0.823              1.326              0.750
 Vibration    24          0.832              1.306              0.724
 Vibration    25          0.873              1.211              0.616
 Vibration    26          0.889              1.176              0.579
 Vibration    27          0.926              1.095              0.504

 Optimization completed.
    -- Stationary point found.
 Normal termination of Gaussian 16 at Mon Dec 18 00:58:29 2023.
