 Q-Chem 5.4, Q-Chem, Inc., Pleasanton, CA (2021)
 Q-Chem 5.4.0 for Intel X86 EM64T Linux

User input:
--------------------------------------------------------------
$molecule
-2 1
C                 -2.8744050000      3.9229520000      0.4811080000
C                 -4.1551110000      3.4191040000      0.5689570000
C                 -4.3254190000      2.0183300000      0.4668460000
C                 -1.7380560000      3.0966950000      0.3023980000
C                 -1.9410090000      1.6709520000      0.2000920000
C                 -3.2627020000      1.1711490000      0.2918990000
C                 -0.4222340000      3.7052470000      0.2332580000
C                  0.6705990000      2.7658030000      0.0524180000
C                  0.4676540000      1.3400580000     -0.0498820000
C                 -0.8481750000      0.7315050000      0.0192100000
C                  1.9922980000      3.2656040000     -0.0393600000
C                  3.0550140000      2.4184180000     -0.2142830000
C                  2.8847240000      1.0176340000     -0.3163710000
C                  1.6040040000      0.5138030000     -0.2285410000
O                 -0.2374090000      4.9640620000      0.3229980000
O                 -1.0329780000     -0.5273190000     -0.0703040000
H                 -3.4023460000      0.0978940000      0.2294070000
H                  1.4222770000     -0.5533700000     -0.2997610000
H                 -2.6926750000      4.9901220000      0.5523510000
H                  2.1319250000      4.3388610000      0.0231290000
H                  3.7403930000      0.3666390000     -0.4460230000
O                 -5.6030210000      1.4154250000      0.6589610000
O                  4.3326060000      3.0213830000     -0.4063320000
C                  5.4245280000      2.6338950000      0.2756050000
C                  6.6415760000      3.3960940000     -0.2117200000
O                  5.4682590000      1.7745060000      1.1269250000
H                 -5.0107710000      4.0701140000      0.6986490000
H                  6.3773990000      4.3943090000     -0.5608820000
H                  7.0975730000      2.8544180000     -1.0513240000
H                  7.3790310000      3.4512850000      0.5885060000
C                 -6.6948300000      1.8027760000     -0.0232890000
C                 -7.9119990000      1.0407860000      0.4640330000
O                 -6.7383260000      2.6617910000     -0.8749800000
H                 -7.6479190000      0.0427460000      0.8137730000
H                 -8.6491900000      0.9851610000     -0.3364100000
H                 -8.3683050000      1.5828590000      1.3032090000
$end

$rem
BASIS  =  6-311++G(d,p)
GUI  =  2
JOB_TYPE  =  SP
METHOD  =  B3LYP
SCF_CONVERGENCE  = 8
SOLVENT_METHOD = sm12
$end

$smx
solvent dimethylformamide
charges CM5
$end

--------------------------------------------------------------

             Standard Nuclear Orientation (Angstroms)
    I     Atom           X                Y                Z
 ----------------------------------------------------------------
    1      C      -2.8744050000     3.9229520000     0.4811080000
    2      C      -4.1551110000     3.4191040000     0.5689570000
    3      C      -4.3254190000     2.0183300000     0.4668460000
    4      C      -1.7380560000     3.0966950000     0.3023980000
    5      C      -1.9410090000     1.6709520000     0.2000920000
    6      C      -3.2627020000     1.1711490000     0.2918990000
    7      C      -0.4222340000     3.7052470000     0.2332580000
    8      C       0.6705990000     2.7658030000     0.0524180000
    9      C       0.4676540000     1.3400580000    -0.0498820000
   10      C      -0.8481750000     0.7315050000     0.0192100000
   11      C       1.9922980000     3.2656040000    -0.0393600000
   12      C       3.0550140000     2.4184180000    -0.2142830000
   13      C       2.8847240000     1.0176340000    -0.3163710000
   14      C       1.6040040000     0.5138030000    -0.2285410000
   15      O      -0.2374090000     4.9640620000     0.3229980000
   16      O      -1.0329780000    -0.5273190000    -0.0703040000
   17      H      -3.4023460000     0.0978940000     0.2294070000
   18      H       1.4222770000    -0.5533700000    -0.2997610000
   19      H      -2.6926750000     4.9901220000     0.5523510000
   20      H       2.1319250000     4.3388610000     0.0231290000
   21      H       3.7403930000     0.3666390000    -0.4460230000
   22      O      -5.6030210000     1.4154250000     0.6589610000
   23      O       4.3326060000     3.0213830000    -0.4063320000
   24      C       5.4245280000     2.6338950000     0.2756050000
   25      C       6.6415760000     3.3960940000    -0.2117200000
   26      O       5.4682590000     1.7745060000     1.1269250000
   27      H      -5.0107710000     4.0701140000     0.6986490000
   28      H       6.3773990000     4.3943090000    -0.5608820000
   29      H       7.0975730000     2.8544180000    -1.0513240000
   30      H       7.3790310000     3.4512850000     0.5885060000
   31      C      -6.6948300000     1.8027760000    -0.0232890000
   32      C      -7.9119990000     1.0407860000     0.4640330000
   33      O      -6.7383260000     2.6617910000    -0.8749800000
   34      H      -7.6479190000     0.0427460000     0.8137730000
   35      H      -8.6491900000     0.9851610000    -0.3364100000
   36      H      -8.3683050000     1.5828590000     1.3032090000
 ----------------------------------------------------------------

   16   -1144.8160132874      8.64e-09  Convergence criterion met
 Total energy in the final basis set =    -1145.0929502654

                    Orbital Energies (a.u.)
 --------------------------------------------------------------

 Alpha MOs
 -- Occupied --
-19.1787 -19.1787 -19.1146 -19.1146 -19.0249 -19.0249 -10.3091 -10.3091
-10.2251 -10.2251 -10.1836 -10.1836 -10.1778 -10.1778 -10.1706 -10.1706
-10.1674 -10.1674 -10.1638 -10.1638 -10.1502 -10.1502 -10.1488 -10.1488
 -1.1138  -1.1137  -1.0293  -1.0292  -0.9483  -0.9454  -0.8471  -0.8445
 -0.7798  -0.7663  -0.7537  -0.7413  -0.7353  -0.7174  -0.6597  -0.6483
 -0.6286  -0.6031  -0.5863  -0.5649  -0.5326  -0.5243  -0.4990  -0.4925
 -0.4897  -0.4881  -0.4801  -0.4758  -0.4578  -0.4576  -0.4474  -0.4286
 -0.4257  -0.4193  -0.4116  -0.4109  -0.4028  -0.3976  -0.3956  -0.3934
 -0.3824  -0.3767  -0.3737  -0.3639  -0.3525  -0.3517  -0.3446  -0.3331
 -0.3299  -0.3245  -0.3137  -0.3021  -0.2852  -0.2845  -0.2501  -0.2391
 -0.2295  -0.2267  -0.2059  -0.1989  -0.1108

          Ground-State Mulliken Net Atomic Charges

     Atom                 Charge (a.u.)
  ----------------------------------------
      1 C                    -0.403110
      2 C                     2.554872
      3 C                     2.769893
      4 C                    -2.015725
      5 C                    -2.511391
      6 C                     0.063048
      7 C                    -2.794552
      8 C                    -2.510917
      9 C                    -2.016102
     10 C                    -2.795004
     11 C                     0.063083
     12 C                     2.769787
     13 C                     2.554564
     14 C                    -0.403336
     15 O                    -0.342519
     16 O                    -0.342498
     17 H                     0.136878
     18 H                     0.118143
     19 H                     0.118135
     20 H                     0.136862
     21 H                     0.332948
     22 O                     0.172990
     23 O                     0.172978
     24 C                    -0.028708
     25 C                     0.464482
     26 O                    -0.296975
     27 H                     0.332979
     28 H                     0.244942
     29 H                     0.261596
     30 H                     0.273704
     31 C                    -0.028894
     32 C                     0.464522
     33 O                    -0.296950
     34 H                     0.244981
     35 H                     0.273688
     36 H                     0.261606
  ----------------------------------------
  Sum of atomic charges =    -2.000000

                    Cartesian Multipole Moments
 -----------------------------------------------------------------
    Charge (ESU x 10^10)
                -9.6064
    Dipole Moment (Debye)
         X       6.1009      Y     -21.3100      Z      -1.2129
       Tot      22.1992
    Quadrupole Moments (Debye-Ang)
        XX    -189.7137     XY      29.7523     YY    -242.1413
        XZ     -19.4390     YZ      -2.3559     ZZ    -156.0196

 Total job time:  1231.69s(wall), 9457.12s(cpu)
        *  Thank you very much for using Q-Chem.  Have a nice day.  *
