 Q-Chem 5.4, Q-Chem, Inc., Pleasanton, CA (2021)
 Q-Chem 5.4.0 for Intel X86 EM64T Linux

User input:
--------------------------------------------------------------
$molecule
0 1
C                 -4.8975970000     -0.7835000000     -2.6861910000
C                 -4.3003630000     -1.9165300000     -3.2286170000
C                 -2.9874400000     -2.2503100000     -2.8862720000
C                 -4.1852430000      0.0192610000     -1.7916710000
C                 -2.8684160000     -0.3145060000     -1.4505770000
C                 -2.2702750000     -1.4496110000     -2.0034680000
C                 -4.8309010000      1.2255610000     -1.2045630000
C                 -4.0862390000      2.0109290000     -0.1717630000
C                 -2.8165950000      1.6618980000      0.1737930000
C                 -2.0825470000      0.5527190000     -0.5267870000
O                 -5.9612520000      1.5552410000     -1.5309760000
O                 -0.8889420000      0.3815770000     -0.3704750000
H                 -5.9120290000     -0.5033130000     -2.9414100000
H                 -4.8548830000     -2.5405440000     -3.9202270000
H                 -2.5243810000     -3.1332580000     -3.3119100000
H                 -1.2485950000     -1.6844920000     -1.7321310000
C                 -4.8296190000      3.1712500000      0.4210430000
S                 -1.8969090000      2.6592260000      1.3257100000
C                 -1.0553070000      1.4483560000      2.3561560000
C                 -1.7649000000      0.5094870000      3.0690680000
C                 -1.0976200000     -0.4016920000      3.9276400000
C                  0.3227740000     -0.3091900000      4.0695350000
C                  1.0174350000      0.6869220000      3.3342110000
C                  0.3519190000      1.5412280000      2.4914940000
C                 -1.7984000000     -1.3928330000      4.6648190000
C                 -1.1265370000     -2.2540690000      5.4988350000
C                  0.2790200000     -2.1649160000      5.6363730000
C                  0.9853630000     -1.2142220000      4.9384440000
H                 -4.6503430000      4.0810280000     -0.1633130000
H                 -4.4971640000      3.3675190000      1.4410660000
H                 -5.9026800000      2.9848090000      0.3952740000
H                 -2.8447970000      0.4566130000      2.9849180000
H                  2.0956000000      0.7561110000      3.4338950000
H                  0.8934840000      2.2767580000      1.9099050000
H                 -2.8761890000     -1.4601640000      4.5591370000
H                 -1.6724050000     -3.0071880000      6.0558530000
H                  0.7969820000     -2.8507920000      6.2971650000
H                  2.0630020000     -1.1442060000      5.0436500000
$end
$rem
MAX_SCF_CYCLES=200
BASIS  =  6-311++G(d,p)
GUI  =  2
JOB_TYPE  =  SP
METHOD  =  B3LYP
SOLVENT_METHOD = PCM
$end
$pcm
theory = CPCM
$end
$solvent
dielectric 37.219
opticaldielectric 1.43
$end

--------------------------------------------------------------

             Standard Nuclear Orientation (Angstroms)
    I     Atom           X                Y                Z
 ----------------------------------------------------------------
    1      C      -4.8975970000    -0.7835000000    -2.6861910000
    2      C      -4.3003630000    -1.9165300000    -3.2286170000
    3      C      -2.9874400000    -2.2503100000    -2.8862720000
    4      C      -4.1852430000     0.0192610000    -1.7916710000
    5      C      -2.8684160000    -0.3145060000    -1.4505770000
    6      C      -2.2702750000    -1.4496110000    -2.0034680000
    7      C      -4.8309010000     1.2255610000    -1.2045630000
    8      C      -4.0862390000     2.0109290000    -0.1717630000
    9      C      -2.8165950000     1.6618980000     0.1737930000
   10      C      -2.0825470000     0.5527190000    -0.5267870000
   11      O      -5.9612520000     1.5552410000    -1.5309760000
   12      O      -0.8889420000     0.3815770000    -0.3704750000
   13      H      -5.9120290000    -0.5033130000    -2.9414100000
   14      H      -4.8548830000    -2.5405440000    -3.9202270000
   15      H      -2.5243810000    -3.1332580000    -3.3119100000
   16      H      -1.2485950000    -1.6844920000    -1.7321310000
   17      C      -4.8296190000     3.1712500000     0.4210430000
   18      S      -1.8969090000     2.6592260000     1.3257100000
   19      C      -1.0553070000     1.4483560000     2.3561560000
   20      C      -1.7649000000     0.5094870000     3.0690680000
   21      C      -1.0976200000    -0.4016920000     3.9276400000
   22      C       0.3227740000    -0.3091900000     4.0695350000
   23      C       1.0174350000     0.6869220000     3.3342110000
   24      C       0.3519190000     1.5412280000     2.4914940000
   25      C      -1.7984000000    -1.3928330000     4.6648190000
   26      C      -1.1265370000    -2.2540690000     5.4988350000
   27      C       0.2790200000    -2.1649160000     5.6363730000
   28      C       0.9853630000    -1.2142220000     4.9384440000
   29      H      -4.6503430000     4.0810280000    -0.1633130000
   30      H      -4.4971640000     3.3675190000     1.4410660000
   31      H      -5.9026800000     2.9848090000     0.3952740000
   32      H      -2.8447970000     0.4566130000     2.9849180000
   33      H       2.0956000000     0.7561110000     3.4338950000
   34      H       0.8934840000     2.2767580000     1.9099050000
   35      H      -2.8761890000    -1.4601640000     4.5591370000
   36      H      -1.6724050000    -3.0071880000     6.0558530000
   37      H       0.7969820000    -2.8507920000     6.2971650000
   38      H       2.0630020000    -1.1442060000     5.0436500000
 ----------------------------------------------------------------

    8   -1357.5995657800      9.78e-06  Convergence criterion met
 Total energy in the final basis set =    -1357.5995657800

                    Orbital Energies (a.u.)
 --------------------------------------------------------------

 Alpha MOs
 -- Occupied --
-88.8725 -19.1371 -19.1354 -10.2903 -10.2847 -10.2383 -10.2218 -10.2189
-10.2084 -10.2075 -10.1973 -10.1969 -10.1965 -10.1961 -10.1959 -10.1944
-10.1888 -10.1870 -10.1855 -10.1828 -10.1824 -10.1818 -10.1813 -10.1727
 -7.9585  -5.9225  -5.9184  -5.9125  -1.0740  -1.0690  -0.8930  -0.8905
 -0.8633  -0.8400  -0.7972  -0.7862  -0.7782  -0.7753  -0.7454  -0.7304
 -0.7051  -0.6813  -0.6452  -0.6328  -0.6220  -0.6079  -0.6052  -0.5867
 -0.5524  -0.5251  -0.5234  -0.5153  -0.5050  -0.4937  -0.4726  -0.4652
 -0.4638  -0.4575  -0.4547  -0.4509  -0.4497  -0.4345  -0.4295  -0.4276
 -0.4199  -0.4146  -0.4121  -0.4051  -0.3981  -0.3893  -0.3807  -0.3781
 -0.3694  -0.3677  -0.3489  -0.3435  -0.3417  -0.3094  -0.3008  -0.2935
 -0.2844  -0.2812  -0.2784  -0.2626  -0.2454  -0.2272

          Ground-State Mulliken Net Atomic Charges

     Atom                 Charge (a.u.)
  ----------------------------------------
      1 C                     0.007245
      2 C                    -0.508346
      3 C                    -0.487816
      4 C                     0.538827
      5 C                     0.187172
      6 C                    -0.023585
      7 C                    -0.600171
      8 C                     0.604143
      9 C                     0.687757
     10 C                    -0.766875
     11 O                    -0.282178
     12 O                    -0.199362
     13 H                     0.202695
     14 H                     0.225550
     15 H                     0.224220
     16 H                     0.217180
     17 C                    -0.399550
     18 S                    -0.457420
     19 C                     0.914002
     20 C                    -0.500075
     21 C                    -0.168171
     22 C                     0.132741
     23 C                    -0.086228
     24 C                    -0.228175
     25 C                    -0.308147
     26 C                    -0.331413
     27 C                    -0.315553
     28 C                    -0.327690
     29 H                     0.238079
     30 H                     0.176828
     31 H                     0.178696
     32 H                     0.242114
     33 H                     0.207939
     34 H                     0.226924
     35 H                     0.182768
     36 H                     0.210051
     37 H                     0.208662
     38 H                     0.177160
  ----------------------------------------
  Sum of atomic charges =     0.000001

                    Cartesian Multipole Moments
 -----------------------------------------------------------------
    Charge (ESU x 10^10)
                -0.0000
    Dipole Moment (Debye)
         X       0.1208      Y      -3.3470      Z       0.5234
       Tot       3.3898
    Quadrupole Moments (Debye-Ang)
        XX    -148.0433     XY      11.7596     YY    -136.8286
        XZ       2.0239     YZ       2.2386     ZZ    -131.4236

 Total job time:  101.40s(wall), 699.61s(cpu)
        *  Thank you very much for using Q-Chem.  Have a nice day.  *
