 Q-Chem 5.4, Q-Chem, Inc., Pleasanton, CA (2021)
 Q-Chem 5.4.0 for Intel X86 EM64T Linux

User input:
--------------------------------------------------------------
$molecule
-2 1
C                  4.8107760000     -0.6218120000      0.1861410000
C                  3.4728310000     -0.3688970000     -0.5256430000
O                  3.4522430000     -0.2148720000     -1.7614720000
O                  2.6022560000     -1.5636770000     -0.0111670000
C                  1.2616400000     -1.3942430000     -0.1219160000
C                  0.4085300000     -2.4695740000     -0.3016350000
C                 -0.9974380000     -2.2904280000     -0.3442180000
C                 -1.5616150000     -1.0306840000     -0.2388340000
O                 -2.8998490000     -0.8417400000     -0.3475850000
C                 -3.4725880000      0.3691700000      0.4615410000
C                 -4.8108340000      0.6217250000     -0.2498470000
O                 -3.4516250000      0.2154860000      1.6973970000
C                 -0.7053040000      0.0906490000     -0.0603700000
C                 -1.2615930000      1.3942030000      0.0575010000
O                 -2.6023530000      1.5635950000     -0.0535640000
C                 -0.4085970000      2.4695390000      0.2373050000
C                  0.9974070000      2.2903840000      0.2800310000
C                  1.5615590000      1.0306460000      0.1746280000
O                  2.8997500000      0.8417480000      0.2836370000
C                  0.7052750000     -0.0907300000     -0.0040250000
H                  5.2537870000     -1.5291610000     -0.2333520000
H                  5.4709380000      0.2255930000     -0.0179260000
H                  4.6848340000     -0.7386670000      1.2648640000
H                  0.8369940000     -3.4628540000     -0.3994920000
H                 -1.6545960000     -3.1457340000     -0.4721000000
H                 -4.6854650000      0.7368430000     -1.3288210000
H                 -5.2530850000      1.5299980000      0.1684800000
H                 -5.4713530000     -0.2249700000     -0.0440390000
H                 -0.8370940000      3.4627970000      0.3351800000
H                  1.6545680000      3.1456660000      0.4080380000
$end

$rem
BASIS  =  6-311++G(d,p)
GUI  =  2
JOB_TYPE  =  SP
METHOD  =  B3LYP
SCF_CONVERGENCE  = 8
SOLVENT_METHOD = sm12
$end

$smx
solvent dimethylformamide
charges CM5
$end

--------------------------------------------------------------

             Standard Nuclear Orientation (Angstroms)
    I     Atom           X                Y                Z
 ----------------------------------------------------------------
    1      C       4.8107760000    -0.6218120000     0.1861410000
    2      C       3.4728310000    -0.3688970000    -0.5256430000
    3      O       3.4522430000    -0.2148720000    -1.7614720000
    4      O       2.6022560000    -1.5636770000    -0.0111670000
    5      C       1.2616400000    -1.3942430000    -0.1219160000
    6      C       0.4085300000    -2.4695740000    -0.3016350000
    7      C      -0.9974380000    -2.2904280000    -0.3442180000
    8      C      -1.5616150000    -1.0306840000    -0.2388340000
    9      O      -2.8998490000    -0.8417400000    -0.3475850000
   10      C      -3.4725880000     0.3691700000     0.4615410000
   11      C      -4.8108340000     0.6217250000    -0.2498470000
   12      O      -3.4516250000     0.2154860000     1.6973970000
   13      C      -0.7053040000     0.0906490000    -0.0603700000
   14      C      -1.2615930000     1.3942030000     0.0575010000
   15      O      -2.6023530000     1.5635950000    -0.0535640000
   16      C      -0.4085970000     2.4695390000     0.2373050000
   17      C       0.9974070000     2.2903840000     0.2800310000
   18      C       1.5615590000     1.0306460000     0.1746280000
   19      O       2.8997500000     0.8417480000     0.2836370000
   20      C       0.7052750000    -0.0907300000    -0.0040250000
   21      H       5.2537870000    -1.5291610000    -0.2333520000
   22      H       5.4709380000     0.2255930000    -0.0179260000
   23      H       4.6848340000    -0.7386670000     1.2648640000
   24      H       0.8369940000    -3.4628540000    -0.3994920000
   25      H      -1.6545960000    -3.1457340000    -0.4721000000
   26      H      -4.6854650000     0.7368430000    -1.3288210000
   27      H      -5.2530850000     1.5299980000     0.1684800000
   28      H      -5.4713530000    -0.2249700000    -0.0440390000
   29      H      -0.8370940000     3.4627970000     0.3351800000
   30      H       1.6545680000     3.1456660000     0.4080380000
 ----------------------------------------------------------------

   15    -991.1491264529      6.51e-09  Convergence criterion met
 Total energy in the final basis set =     -991.4081687520

                    Orbital Energies (a.u.)
 --------------------------------------------------------------

 Alpha MOs
 -- Occupied --
-19.1121 -19.1121 -19.1121 -19.1121 -19.0349 -19.0348 -10.2856 -10.2856
-10.2172 -10.2172 -10.2172 -10.2171 -10.1737 -10.1733 -10.1665 -10.1665
-10.1660 -10.1660 -10.1556 -10.1556  -1.0546  -1.0540  -0.9964  -0.9951
 -0.9587  -0.9571  -0.8538  -0.8061  -0.7566  -0.7412  -0.7250  -0.7032
 -0.6926  -0.6346  -0.6158  -0.6012  -0.5577  -0.5388  -0.5252  -0.5098
 -0.4943  -0.4894  -0.4462  -0.4439  -0.4412  -0.4364  -0.4236  -0.4144
 -0.4134  -0.4110  -0.3927  -0.3913  -0.3857  -0.3827  -0.3735  -0.3729
 -0.3710  -0.3650  -0.3609  -0.3494  -0.3351  -0.3120  -0.2926  -0.2903
 -0.2592  -0.2488  -0.2464  -0.2334  -0.2258  -0.2224  -0.2128  -0.1614

          Ground-State Mulliken Net Atomic Charges

     Atom                 Charge (a.u.)
  ----------------------------------------
      1 C                     0.259083
      2 C                    -0.761714
      3 O                    -0.385465
      4 O                    -0.025722
      5 C                    -0.976585
      6 C                     0.560438
      7 C                     0.554964
      8 C                    -0.972446
      9 O                    -0.025882
     10 C                    -0.762222
     11 C                     0.258985
     12 O                    -0.385531
     13 C                    -0.354262
     14 C                    -0.976689
     15 O                    -0.025755
     16 C                     0.560482
     17 C                     0.554807
     18 C                    -0.971817
     19 O                    -0.025842
     20 C                    -0.353962
     21 H                     0.193077
     22 H                     0.193218
     23 H                     0.173340
     24 H                     0.284133
     25 H                     0.283857
     26 H                     0.173304
     27 H                     0.193078
     28 H                     0.193112
     29 H                     0.284125
     30 H                     0.283892
  ----------------------------------------
  Sum of atomic charges =    -2.000000

                    Cartesian Multipole Moments
 -----------------------------------------------------------------
    Charge (ESU x 10^10)
                -9.6064
    Dipole Moment (Debye)
         X       0.0026      Y      -0.0009      Z       0.3084
       Tot       0.3084
    Quadrupole Moments (Debye-Ang)
        XX    -212.0460     XY       6.0644     YY    -137.3019
        XZ      26.4662     YZ      -2.0775     ZZ    -146.5788

 Total job time:  801.20s(wall), 5830.05s(cpu)
        *  Thank you very much for using Q-Chem.  Have a nice day.  *
