 Q-Chem 5.4, Q-Chem, Inc., Pleasanton, CA (2021)
 Q-Chem 5.4.0 for Intel X86 EM64T Linux

User input:
--------------------------------------------------------------
$molecule
-1 2
C                  4.1691540000     -1.3119880000      3.8478200000
C                  3.3709270000     -0.9834310000      4.9266320000
C                  2.4534080000      0.0851460000      4.8382800000
C                  4.0704840000     -0.5755350000      2.6433590000
C                  3.1503660000      0.5010390000      2.5436240000
C                  2.3551310000      0.8049680000      3.6631350000
C                  4.9054030000     -0.9199650000      1.5140690000
C                  4.7445340000     -0.1231170000      0.3198100000
C                  3.8676160000      0.9326210000      0.1909120000
C                  3.0142600000      1.2932260000      1.3045250000
O                  5.7621900000     -1.8663270000      1.4981750000
O                  2.1904170000      2.2412540000      1.2288220000
O                  5.5612250000     -0.5089480000     -0.7039900000
O                  3.3930850000     -1.6405460000      6.1421900000
C                  4.2934430000     -2.7220730000      6.2850160000
C                  3.7541460000      1.7149130000     -1.0918020000
C                  2.6379330000      1.1971420000     -2.0207770000
C                  2.5059670000      2.0211810000     -3.3075930000
C                  1.3438890000      1.6187570000     -4.2323750000
C                  1.5106560000      0.2069100000     -4.8249840000
C                  1.1495510000      2.6428650000     -5.3665750000
C                 -0.0037340000      2.2714760000     -6.3099220000
C                  0.1708590000      0.8590520000     -6.8851750000
C                  0.3588620000     -0.1748480000     -5.7665630000
H                  4.8851740000     -2.1224100000      3.8717070000
H                  1.8406660000      0.3188910000      5.7018110000
H                  1.6568170000      1.6291460000      3.5716340000
H                  6.0527030000     -1.2577590000     -0.2997300000
H                  4.1564970000     -3.0982620000      7.2998470000
H                  5.3341310000     -2.4023140000      6.1531070000
H                  4.0796400000     -3.5238500000      5.5679960000
H                  4.7089410000      1.6826860000     -1.6268470000
H                  3.5369910000      2.7576970000     -0.8388580000
H                  1.6911850000      1.2251060000     -1.4702780000
H                  2.8413580000      0.1478710000     -2.2577800000
H                  3.4466810000      1.9695800000     -3.8748750000
H                  2.3767740000      3.0759800000     -3.0311110000
H                  0.4239810000      1.6180920000     -3.6276240000
H                  1.5923530000     -0.5308980000     -4.0225370000
H                  2.4598270000      0.1683930000     -5.3787310000
H                  2.0819350000      2.7112410000     -5.9452560000
H                  0.9789870000      3.6370480000     -4.9380820000
H                 -0.0820390000      3.0049330000     -7.1210620000
H                 -0.9508710000      2.3184740000     -5.7559210000
H                  1.0522060000      0.8442810000     -7.5407950000
H                 -0.6885530000      0.5932460000     -7.5117870000
H                  0.5357730000     -1.1681560000     -6.1946270000
H                 -0.5705580000     -0.2486620000     -5.1861580000
$end
$rem
MAX_SCF_CYCLES=200
BASIS  =  6-311++G(d,p)
GUI  =  2
JOB_TYPE  =  SP
METHOD  =  B3LYP
SCF_CONVERGENCE = 8
SCF_ALGORITHM = RCA_DIIS
THRESH = 14
scf_guess = GWH
SOLVENT_METHOD = PCM
$end
$pcm
theory = CPCM
$end
$solvent
dielectric 37.219
opticaldielectric 1.43
$end

--------------------------------------------------------------

             Standard Nuclear Orientation (Angstroms)
    I     Atom           X                Y                Z
 ----------------------------------------------------------------
    1      C       4.1691540000    -1.3119880000     3.8478200000
    2      C       3.3709270000    -0.9834310000     4.9266320000
    3      C       2.4534080000     0.0851460000     4.8382800000
    4      C       4.0704840000    -0.5755350000     2.6433590000
    5      C       3.1503660000     0.5010390000     2.5436240000
    6      C       2.3551310000     0.8049680000     3.6631350000
    7      C       4.9054030000    -0.9199650000     1.5140690000
    8      C       4.7445340000    -0.1231170000     0.3198100000
    9      C       3.8676160000     0.9326210000     0.1909120000
   10      C       3.0142600000     1.2932260000     1.3045250000
   11      O       5.7621900000    -1.8663270000     1.4981750000
   12      O       2.1904170000     2.2412540000     1.2288220000
   13      O       5.5612250000    -0.5089480000    -0.7039900000
   14      O       3.3930850000    -1.6405460000     6.1421900000
   15      C       4.2934430000    -2.7220730000     6.2850160000
   16      C       3.7541460000     1.7149130000    -1.0918020000
   17      C       2.6379330000     1.1971420000    -2.0207770000
   18      C       2.5059670000     2.0211810000    -3.3075930000
   19      C       1.3438890000     1.6187570000    -4.2323750000
   20      C       1.5106560000     0.2069100000    -4.8249840000
   21      C       1.1495510000     2.6428650000    -5.3665750000
   22      C      -0.0037340000     2.2714760000    -6.3099220000
   23      C       0.1708590000     0.8590520000    -6.8851750000
   24      C       0.3588620000    -0.1748480000    -5.7665630000
   25      H       4.8851740000    -2.1224100000     3.8717070000
   26      H       1.8406660000     0.3188910000     5.7018110000
   27      H       1.6568170000     1.6291460000     3.5716340000
   28      H       6.0527030000    -1.2577590000    -0.2997300000
   29      H       4.1564970000    -3.0982620000     7.2998470000
   30      H       5.3341310000    -2.4023140000     6.1531070000
   31      H       4.0796400000    -3.5238500000     5.5679960000
   32      H       4.7089410000     1.6826860000    -1.6268470000
   33      H       3.5369910000     2.7576970000    -0.8388580000
   34      H       1.6911850000     1.2251060000    -1.4702780000
   35      H       2.8413580000     0.1478710000    -2.2577800000
   36      H       3.4466810000     1.9695800000    -3.8748750000
   37      H       2.3767740000     3.0759800000    -3.0311110000
   38      H       0.4239810000     1.6180920000    -3.6276240000
   39      H       1.5923530000    -0.5308980000    -4.0225370000
   40      H       2.4598270000     0.1683930000    -5.3787310000
   41      H       2.0819350000     2.7112410000    -5.9452560000
   42      H       0.9789870000     3.6370480000    -4.9380820000
   43      H      -0.0820390000     3.0049330000    -7.1210620000
   44      H      -0.9508710000     2.3184740000    -5.7559210000
   45      H       1.0522060000     0.8442810000    -7.5407950000
   46      H      -0.6885530000     0.5932460000    -7.5117870000
   47      H       0.5357730000    -1.1681560000    -6.1946270000
   48      H      -0.5705580000    -0.2486620000    -5.1861580000
 ----------------------------------------------------------------

   88   -1077.9466016950      7.88E-09 Convergence criterion met
 Total energy in the final basis set = -1077.94660170

                    Orbital Energies (a.u.)
 --------------------------------------------------------------

 Alpha MOs
 -- Occupied --
-19.1552 -19.1430 -19.0864 -19.0751 -10.2344 -10.2240 -10.2209 -10.2203
-10.2140 -10.1772 -10.1726 -10.1703 -10.1684 -10.1682 -10.1609 -10.1592
-10.1562 -10.1542 -10.1540 -10.1538 -10.1533 -10.1522 -10.1520 -10.1513
 -1.0664  -1.0627  -1.0009  -0.9958  -0.8594  -0.8275  -0.8109  -0.7815
 -0.7570  -0.7530  -0.7315  -0.7278  -0.6964  -0.6811  -0.6519  -0.6182
 -0.6098  -0.5991  -0.5786  -0.5739  -0.5628  -0.5438  -0.5424  -0.5151
 -0.4880  -0.4813  -0.4795  -0.4670  -0.4662  -0.4553  -0.4375  -0.4366
 -0.4327  -0.4286  -0.4270  -0.4209  -0.4167  -0.4055  -0.4013  -0.3965
 -0.3890  -0.3884  -0.3765  -0.3715  -0.3687  -0.3613  -0.3562  -0.3549
 -0.3460  -0.3382  -0.3349  -0.3331  -0.3297  -0.3239  -0.3168  -0.3120
 -0.3057  -0.2894  -0.2852  -0.2644  -0.2610  -0.2464  -0.2406  -0.2193
 -0.1514

 Beta MOs
 -- Occupied --
-19.1552 -19.1426 -19.0801 -19.0700 -10.2344 -10.2227 -10.2200 -10.2172
-10.2140 -10.1770 -10.1729 -10.1695 -10.1676 -10.1673 -10.1599 -10.1592
-10.1563 -10.1542 -10.1540 -10.1538 -10.1532 -10.1522 -10.1520 -10.1513
 -1.0663  -1.0607  -0.9921  -0.9851  -0.8571  -0.8274  -0.8079  -0.7801
 -0.7559  -0.7511  -0.7314  -0.7269  -0.6954  -0.6751  -0.6484  -0.6164
 -0.6089  -0.5986  -0.5774  -0.5715  -0.5625  -0.5431  -0.5419  -0.5131
 -0.4862  -0.4808  -0.4767  -0.4669  -0.4658  -0.4548  -0.4359  -0.4326
 -0.4320  -0.4266  -0.4216  -0.4194  -0.4130  -0.4032  -0.3996  -0.3932
 -0.3869  -0.3813  -0.3750  -0.3686  -0.3627  -0.3596  -0.3547  -0.3460
 -0.3407  -0.3353  -0.3341  -0.3325  -0.3291  -0.3235  -0.3159  -0.3057
 -0.3036  -0.2890  -0.2851  -0.2555  -0.2522  -0.2359  -0.2314  -0.2137

          Ground-State Mulliken Net Atomic Charges

     Atom                 Charge (a.u.)    Spin (a.u.)
  --------------------------------------------------------
      1 C                     0.912596       0.095016
      2 C                    -0.964124      -0.012506
      3 C                    -0.476179       0.053544
      4 C                     0.835317       0.010192
      5 C                    -0.547436       0.057626
      6 C                     0.164211       0.003659
      7 C                    -0.726492       0.197268
      8 C                    -0.603711       0.017784
      9 C                     1.518794       0.070288
     10 C                    -1.012927       0.075907
     11 O                    -0.535425       0.230888
     12 O                    -0.477324       0.186277
     13 O                    -0.288803       0.015270
     14 O                    -0.215818       0.001095
     15 C                    -0.364070       0.000118
     16 C                     0.044544       0.010550
     17 C                    -0.558535      -0.011135
     18 C                    -0.741480       0.008099
     19 C                     0.968493      -0.003067
     20 C                    -0.486174       0.000607
     21 C                    -0.465898       0.000233
     22 C                    -0.331790      -0.000059
     23 C                    -0.398169       0.000216
     24 C                    -0.359325       0.000543
     25 H                     0.171743      -0.004523
     26 H                     0.218552      -0.004732
     27 H                     0.187267       0.000177
     28 H                     0.307686      -0.003500
     29 H                     0.197360      -0.000092
     30 H                     0.174336       0.000171
     31 H                     0.173793       0.000196
     32 H                     0.216296      -0.000547
     33 H                     0.199035       0.003486
     34 H                     0.175715      -0.001945
     35 H                     0.167374       0.003487
     36 H                     0.118386      -0.000230
     37 H                     0.138495       0.000312
     38 H                     0.146923      -0.000063
     39 H                     0.143183      -0.000483
     40 H                     0.158906      -0.000162
     41 H                     0.154617       0.000015
     42 H                     0.144752      -0.000030
     43 H                     0.179768      -0.000017
     44 H                     0.130352       0.000019
     45 H                     0.123880      -0.000002
     46 H                     0.173717       0.000023
     47 H                     0.168397       0.000022
     48 H                     0.139194       0.000000
  --------------------------------------------------------
  Sum of atomic charges =    -1.000000

                    Cartesian Multipole Moments
 -----------------------------------------------------------------
    Charge (ESU x 10^10)
                -4.8032
    Dipole Moment (Debye)
         X     -17.9308      Y      -2.7589      Z      -5.8140
       Tot      19.0506
    Quadrupole Moments (Debye-Ang)
        XX    -230.8092     XY       0.9910     YY    -163.6445
        XZ     -16.5819     YZ      -7.4626     ZZ    -162.5127

 Total job time:  3311.90s(wall), 21061.30s(cpu)
        *  Thank you very much for using Q-Chem.  Have a nice day.  *
