 Gaussian 16, Revision A.03,
 Gaussian 16:  ES64L-G16RevA.03 25-Dec-2016

 ----------------------------------------------------------------------
 #P UB3LYP/6-311++G(d,p) nosym opt freq SCRF=(PCM,Solvent=n,n-DiMethylF
 ormamide)
 ----------------------------------------------------------------------

 --------
 Oxidized
 --------
 Symbolic Z-matrix:
 Charge =  0 Multiplicity = 1

 SCF Done:  E(UB3LYP) =  -5990.86572868     A.U. after   17 cycles
 SCF Done:  E(UB3LYP) =  -5990.86591879     A.U. after   15 cycles
 SCF Done:  E(UB3LYP) =  -5990.86563461     A.U. after   15 cycles
 SCF Done:  E(UB3LYP) =  -5990.86606045     A.U. after   12 cycles
 SCF Done:  E(UB3LYP) =  -5990.86607515     A.U. after   12 cycles
 SCF Done:  E(UB3LYP) =  -5990.86607984     A.U. after   12 cycles
 SCF Done:  E(UB3LYP) =  -5990.86608146     A.U. after   11 cycles
 SCF Done:  E(UB3LYP) =  -5990.86608221     A.U. after   11 cycles
 SCF Done:  E(UB3LYP) =  -5990.86608266     A.U. after   11 cycles
 SCF Done:  E(UB3LYP) =  -5990.86608280     A.U. after   10 cycles
 SCF Done:  E(UB3LYP) =  -5990.86608286     A.U. after   11 cycles
 Optimization completed.
    -- Stationary point found.
 Normal termination of Gaussian 16 at Sat Feb 10 11:18:36 2024.

 ----------------------------------------------------------------------
 #P Geom=AllCheck Guess=TCheck SCRF=Check GenChk UB3LYP/6-311++G(d,p) F
 req
 ----------------------------------------------------------------------

 Structure from the checkpoint file:  "021.chk"
 --------
 Oxidized
 --------
 Charge =  0 Multiplicity = 1

                          Input orientation:
 ---------------------------------------------------------------------
 Center     Atomic      Atomic             Coordinates (Angstroms)
 Number     Number       Type             X           Y           Z
 ---------------------------------------------------------------------
      1         35           0       -1.619778    2.497414    1.402900
      2          6           0       -0.773507    1.021851    0.551307
      3          6           0       -1.471921    0.026164   -0.025424
      4          6           0       -0.720929   -1.074829   -0.720513
      5          8           0       -1.320897   -2.000933   -1.227981
      6          6           0        0.772048   -0.994833   -0.765438
      7          6           0        1.471162   -0.014581   -0.164038
      8          6           0        0.721442    1.068088    0.560203
      9          8           0        1.324534    1.951929    1.134958
     10          6           0        2.954002    0.087787   -0.148940
     11          6           0        3.596792    1.101089   -0.869546
     12          6           0        4.986466    1.197425   -0.853206
     13          6           0        5.742896    0.297249   -0.102641
     14          6           0        5.104864   -0.704482    0.628514
     15          6           0        3.715952   -0.813310    0.603057
     16         35           0        1.613337   -2.380410   -1.760517
     17          6           0       -2.954162   -0.084100   -0.026014
     18          6           0       -3.672996    0.078499   -1.216078
     19          6           0       -5.062172   -0.026064   -1.214004
     20          6           0       -5.742033   -0.313482   -0.030345
     21          6           0       -5.027903   -0.491112    1.154398
     22          6           0       -3.639656   -0.372552    1.159416
     23          1           0        3.012856    1.806433   -1.449203
     24          1           0        5.476531    1.978455   -1.422987
     25          1           0        6.823732    0.377683   -0.085694
     26          1           0        5.686642   -1.403256    1.218503
     27          1           0        3.223565   -1.593359    1.171930
     28          1           0       -3.149157    0.296457   -2.139430
     29          1           0       -5.611625    0.112548   -2.137970
     30          1           0       -6.822450   -0.400995   -0.031884
     31          1           0       -5.549759   -0.720617    2.076259
     32          1           0       -3.087871   -0.510156    2.081954
 ---------------------------------------------------------------------

 SCF Done:  E(UB3LYP) =  -5990.86608286     A.U. after    1 cycles

 Alpha  occ. eigenvalues -- -482.85257-482.85254 -62.50525 -62.50522 -56.32574
 Alpha  occ. eigenvalues --  -56.32571 -56.32187 -56.32184 -56.32138 -56.32136
 Alpha  occ. eigenvalues --  -19.15722 -19.15715 -10.30989 -10.30979 -10.27256
 Alpha  occ. eigenvalues --  -10.27254 -10.24139 -10.24131 -10.20829 -10.20824
 Alpha  occ. eigenvalues --  -10.19179 -10.19175 -10.19174 -10.19167 -10.18802
 Alpha  occ. eigenvalues --  -10.18798 -10.18745 -10.18745 -10.18719 -10.18716
 Alpha  occ. eigenvalues --   -8.71496  -8.71493  -6.54671  -6.54668  -6.53382
 Alpha  occ. eigenvalues --   -6.53379  -6.53239  -6.53236  -2.65761  -2.65758
 Alpha  occ. eigenvalues --   -2.65416  -2.65413  -2.65308  -2.65305  -2.64282
 Alpha  occ. eigenvalues --   -2.64279  -2.64279  -2.64276  -1.09314  -1.09115
 Alpha  occ. eigenvalues --   -0.90717  -0.88819  -0.87000  -0.85627  -0.80849
 Alpha  occ. eigenvalues --   -0.79847  -0.77230  -0.76328  -0.76324  -0.73933
 Alpha  occ. eigenvalues --   -0.70829  -0.66461  -0.62584  -0.62341  -0.61616
 Alpha  occ. eigenvalues --   -0.60828  -0.59318  -0.55809  -0.54011  -0.53654
 Alpha  occ. eigenvalues --   -0.50179  -0.48884  -0.48566  -0.47734  -0.47316
 Alpha  occ. eigenvalues --   -0.46794  -0.45677  -0.44490  -0.44322  -0.44280
 Alpha  occ. eigenvalues --   -0.43916  -0.43600  -0.43544  -0.42186  -0.38544
 Alpha  occ. eigenvalues --   -0.38390  -0.37062  -0.36938  -0.36773  -0.36363
 Alpha  occ. eigenvalues --   -0.35694  -0.35280  -0.31603  -0.31418  -0.31032
 Alpha  occ. eigenvalues --   -0.30184  -0.29482  -0.28578  -0.27074  -0.27061
 Alpha  occ. eigenvalues --   -0.26582  -0.26354
 Alpha virt. eigenvalues --   -0.14916  -0.05648  -0.03718  -0.03445  -0.02923
 Alpha virt. eigenvalues --   -0.02784  -0.02623  -0.02077  -0.01400  -0.00545
 Alpha virt. eigenvalues --   -0.00136   0.00963   0.01067   0.01384   0.02154

  Beta  occ. eigenvalues -- -482.85257-482.85254 -62.50525 -62.50522 -56.32574
  Beta  occ. eigenvalues --  -56.32571 -56.32187 -56.32184 -56.32138 -56.32136
  Beta  occ. eigenvalues --  -19.15722 -19.15715 -10.30989 -10.30979 -10.27256
  Beta  occ. eigenvalues --  -10.27254 -10.24139 -10.24131 -10.20829 -10.20824
  Beta  occ. eigenvalues --  -10.19179 -10.19175 -10.19174 -10.19167 -10.18802
  Beta  occ. eigenvalues --  -10.18798 -10.18745 -10.18745 -10.18719 -10.18716
  Beta  occ. eigenvalues --   -8.71496  -8.71493  -6.54671  -6.54668  -6.53382
  Beta  occ. eigenvalues --   -6.53379  -6.53239  -6.53236  -2.65761  -2.65758
  Beta  occ. eigenvalues --   -2.65416  -2.65413  -2.65308  -2.65305  -2.64282
  Beta  occ. eigenvalues --   -2.64279  -2.64279  -2.64276  -1.09314  -1.09115
  Beta  occ. eigenvalues --   -0.90717  -0.88819  -0.87000  -0.85627  -0.80849
  Beta  occ. eigenvalues --   -0.79847  -0.77230  -0.76328  -0.76324  -0.73933
  Beta  occ. eigenvalues --   -0.70829  -0.66461  -0.62584  -0.62341  -0.61616
  Beta  occ. eigenvalues --   -0.60828  -0.59318  -0.55809  -0.54011  -0.53654
  Beta  occ. eigenvalues --   -0.50179  -0.48884  -0.48566  -0.47734  -0.47316
  Beta  occ. eigenvalues --   -0.46794  -0.45677  -0.44490  -0.44322  -0.44280
  Beta  occ. eigenvalues --   -0.43916  -0.43600  -0.43544  -0.42186  -0.38544
  Beta  occ. eigenvalues --   -0.38390  -0.37062  -0.36938  -0.36773  -0.36363
  Beta  occ. eigenvalues --   -0.35694  -0.35280  -0.31603  -0.31418  -0.31032
  Beta  occ. eigenvalues --   -0.30184  -0.29482  -0.28578  -0.27074  -0.27061
  Beta  occ. eigenvalues --   -0.26582  -0.26354
  Beta virt. eigenvalues --   -0.14916  -0.05648  -0.03718  -0.03445  -0.02923
  Beta virt. eigenvalues --   -0.02784  -0.02623  -0.02077  -0.01400  -0.00545
  Beta virt. eigenvalues --   -0.00136   0.00963   0.01067   0.01384   0.02154

 Mulliken charges and spin densities:
               1          2
     1  Br  -0.017841  -0.000000
     2  C   -0.396143   0.000000
     3  C    0.900235  -0.000000
     4  C   -0.825140  -0.000000
     5  O   -0.166749  -0.000000
     6  C   -0.391423  -0.000000
     7  C    0.891716  -0.000000
     8  C   -0.832028  -0.000000
     9  O   -0.167164   0.000000
    10  C    1.165458   0.000000
    11  C   -0.249294   0.000000
    12  C   -0.310597  -0.000000
    13  C   -0.385354   0.000000
    14  C   -0.368041  -0.000000
    15  C   -0.399346   0.000000
    16  Br  -0.017238  -0.000000
    17  C    1.168210   0.000000
    18  C   -0.238035  -0.000000
    19  C   -0.310958  -0.000000
    20  C   -0.385059   0.000000
    21  C   -0.368680  -0.000000
    22  C   -0.406268   0.000000
    23  H    0.229513   0.000000
    24  H    0.207425  -0.000000
    25  H    0.187507   0.000000
    26  H    0.209097  -0.000000
    27  H    0.221165   0.000000
    28  H    0.229958   0.000000
    29  H    0.207246  -0.000000
    30  H    0.187729   0.000000
    31  H    0.209020  -0.000000
    32  H    0.221079   0.000000
 Sum of Mulliken charges =  -0.00000   0.00000

 Dipole moment (field-independent basis, Debye):
    X=             -0.0188    Y=              0.0436    Z=             -0.0745  Tot=              0.0884
 Quadrupole moment (field-independent basis, Debye-Ang):
   XX=           -124.3554   YY=           -162.0120   ZZ=           -148.0431
   XY=             -5.7251   XZ=             -4.1835   YZ=            -13.5091

  Exact polarizability: 446.626  30.556 348.490  12.226  46.804 301.097
 Approx polarizability: 474.872  52.594 435.386  27.335  61.040 372.544

                      1                      2                      3
                      A                      A                      A
 Frequencies --     20.3172                22.4759                28.2788
 Red. masses --      4.5717                 5.9653                 4.1928
 Frc consts  --      0.0011                 0.0018                 0.0020
 IR Inten    --      1.1468                 0.5738                 1.5283

                      4                      5                      6
                      A                      A                      A
 Frequencies --     44.5492                53.0623                59.5493
 Red. masses --     11.6263                 6.1443                11.1303
 Frc consts  --      0.0136                 0.0102                 0.0233
 IR Inten    --      1.8301                 1.1478                 0.2913

                      7                      8                      9
                      A                      A                      A
 Frequencies --     65.3644               113.9532               133.1243
 Red. masses --      8.3875                 7.6611                13.5113
 Frc consts  --      0.0211                 0.0586                 0.1411
 IR Inten    --      0.0576                 5.2354                 0.0283

                     10                     11                     12
                      A                      A                      A
 Frequencies --    142.4778               179.0487               203.7983
 Red. masses --      6.2070                10.5723                 7.7137
 Frc consts  --      0.0742                 0.1997                 0.1888
 IR Inten    --      0.1283                 0.0221                 0.2385

                     13                     14                     15
                      A                      A                      A
 Frequencies --    206.6213               239.9318               284.1010
 Red. masses --     11.0294                 5.3527                 7.3661
 Frc consts  --      0.2774                 0.1816                 0.3503
 IR Inten    --      0.0047                 0.1664                 2.3590

                     16                     17                     18
                      A                      A                      A
 Frequencies --    316.7783               333.5706               339.5841
 Red. masses --      7.2728                10.0057                11.0708
 Frc consts  --      0.4300                 0.6560                 0.7522
 IR Inten    --      0.2068                 8.8210                 5.9638

                     19                     20                     21
                      A                      A                      A
 Frequencies --    345.4440               408.7193               409.1156
 Red. masses --     11.8133                 2.8780                 2.8876
 Frc consts  --      0.8306                 0.2833                 0.2848
 IR Inten    --      2.0670                 1.4264                 4.2973

                     22                     23                     24
                      A                      A                      A
 Frequencies --    473.6838               490.9193               503.9187
 Red. masses --     10.2620                 5.4282                 4.4948
 Frc consts  --      1.3566                 0.7708                 0.6725
 IR Inten    --      0.5759                23.0543                 2.1444

                     25                     26                     27
                      A                      A                      A
 Frequencies --    533.7443               577.7065               606.9901
 Red. masses --      5.3832                 8.1494                 8.6030
 Frc consts  --      0.9036                 1.6025                 1.8675
 IR Inten    --      2.9783               184.1758                 5.2215

                     28                     29                     30
                      A                      A                      A
 Frequencies --    624.6852               631.9239               634.9851
 Red. masses --      7.9542                 6.4960                 6.8801
 Frc consts  --      1.8288                 1.5284                 1.6345
 IR Inten    --      0.0368                 0.1457                 3.8215

                     31                     32                     33
                      A                      A                      A
 Frequencies --    706.0557               710.7183               717.5339
 Red. masses --      3.8396                 1.7975                 1.5294
 Frc consts  --      1.1278                 0.5350                 0.4639
 IR Inten    --      4.9800                90.6776                18.5904

                     34                     35                     36
                      A                      A                      A
 Frequencies --    725.1442               754.6271               766.3281
 Red. masses --      4.8643                11.0394                 2.2005
 Frc consts  --      1.5070                 3.7039                 0.7614
 IR Inten    --    242.4496                18.7092                17.7227

                     37                     38                     39
                      A                      A                      A
 Frequencies --    792.5753               812.1559               817.1460
 Red. masses --      6.4457                 3.5449                10.3178
 Frc consts  --      2.3856                 1.3776                 4.0592
 IR Inten    --      4.6653                 4.8795                 2.6431

                     40                     41                     42
                      A                      A                      A
 Frequencies --    858.2213               858.9357               894.8285
 Red. masses --      1.2475                 1.2466                 5.4002
 Frc consts  --      0.5414                 0.5419                 2.5476
 IR Inten    --      0.8260                 0.8692                35.4763

                     43                     44                     45
                      A                      A                      A
 Frequencies --    913.1193               942.5318               944.4453
 Red. masses --      7.4081                 1.5601                 1.4796
 Frc consts  --      3.6393                 0.8166                 0.7776
 IR Inten    --      0.2437                19.1605                 2.3568

                     46                     47                     48
                      A                      A                      A
 Frequencies --    994.3974               994.9584              1013.7563
 Red. masses --      1.3752                 1.3744                 5.5315
 Frc consts  --      0.8012                 0.8016                 3.3494
 IR Inten    --      0.2612                 0.2987                 7.1842

                     49                     50                     51
                      A                      A                      A
 Frequencies --   1014.2962              1014.4458              1014.8324
 Red. masses --      4.3573                 1.4859                 1.3025
 Frc consts  --      2.6412                 0.9010                 0.7903
 IR Inten    --      0.3138                 4.0122                 0.1517

                     52                     53                     54
                      A                      A                      A
 Frequencies --   1036.4414              1047.7286              1062.7233
 Red. masses --      4.3606                 2.2224                 2.6377
 Frc consts  --      2.7599                 1.4374                 1.7552
 IR Inten    --    198.8567                 0.1568               214.2916

                     55                     56                     57
                      A                      A                      A
 Frequencies --   1100.6278              1101.5500              1178.2605
 Red. masses --      1.6040                 1.6151                 1.1081
 Frc consts  --      1.1448                 1.1546                 0.9064
 IR Inten    --     23.2061                13.9845                 0.1879

                     58                     59                     60
                      A                      A                      A
 Frequencies --   1178.8434              1184.5895              1187.2149
 Red. masses --      1.1081                 6.4736                 5.0322
 Frc consts  --      0.9073                 5.3522                 4.1790
 IR Inten    --      0.1065               347.2942                 0.4691

                     61                     62                     63
                      A                      A                      A
 Frequencies --   1200.1029              1201.2716              1275.1009
 Red. masses --      1.1707                 1.1657                 5.5826
 Frc consts  --      0.9935                 0.9911                 5.3478
 IR Inten    --      2.1666                 1.5252               332.5101

                     64                     65                     66
                      A                      A                      A
 Frequencies --   1282.9528              1313.4363              1314.1860
 Red. masses --      6.1896                 5.0514                 5.2242
 Frc consts  --      6.0025                 5.1343                 5.3160
 IR Inten    --      0.7162                 3.3211                 1.5762

                     67                     68                     69
                      A                      A                      A
 Frequencies --   1353.5347              1354.3200              1469.4981
 Red. masses --      1.4636                 1.4533                 2.1407
 Frc consts  --      1.5798                 1.5705                 2.7236
 IR Inten    --      1.0718                 1.5491                 5.9358

                     70                     71                     72
                      A                      A                      A
 Frequencies --   1469.8222              1519.5784              1520.6832
 Red. masses --      2.1425                 2.1897                 2.1888
 Frc consts  --      2.7271                 2.9791                 2.9821
 IR Inten    --     15.6237                39.8596                 1.3194

                     73                     74                     75
                      A                      A                      A
 Frequencies --   1611.1201              1612.3294              1619.1172
 Red. masses --      5.8280                 5.3899                 9.3084
 Frc consts  --      8.9130                 8.2554                14.3774
 IR Inten    --     44.3954                 2.3594               205.9920

                     76                     77                     78
                      A                      A                      A
 Frequencies --   1635.1004              1636.4127              1653.2569
 Red. masses --      5.6333                 5.7950                11.4859
 Frc consts  --      8.8737                 9.1430                18.4968
 IR Inten    --      0.1877                31.2281                 0.2526

                     79                     80                     81
                      A                      A                      A
 Frequencies --   1708.2771              1713.6082              3168.7102
 Red. masses --     13.1649                13.2772                 1.0859
 Frc consts  --     22.6351                22.9710                 6.4237
 IR Inten    --   1069.7601                 1.5442                 0.3353

                     82                     83                     84
                      A                      A                      A
 Frequencies --   3168.7471              3175.0821              3175.1672
 Red. masses --      1.0859                 1.0880                 1.0879
 Frc consts  --      6.4239                 6.4621                 6.4623
 IR Inten    --      0.4305                 0.8138                 1.0797

                     85                     86                     87
                      A                      A                      A
 Frequencies --   3181.9867              3182.1733              3188.7674
 Red. masses --      1.0918                 1.0917                 1.0951
 Frc consts  --      6.5130                 6.5135                 6.5605
 IR Inten    --     15.1790                15.6434                26.9159

                     88                     89                     90
                      A                      A                      A
 Frequencies --   3188.8024              3195.4916              3195.5917
 Red. masses --      1.0950                 1.0984                 1.0985
 Frc consts  --      6.5603                 6.6085                 6.6091
 IR Inten    --     35.2037                21.0453                10.0850

 - Thermochemistry -
 -------------------
 Temperature   298.150 Kelvin.  Pressure   1.00000 Atm.
 Atom     1 has atomic number 35 and mass  78.91834

 Molecular mass:   415.90475 amu.
 Principal axes and moments of inertia in atomic units:
                           1         2         3
     Eigenvalues --  5807.98467********************
           X            0.97091   0.23714   0.03314
           Y           -0.18430   0.82848  -0.52882
           Z           -0.15286   0.50733   0.84808
 This molecule is an asymmetric top.
 Rotational symmetry number  1.
 Warning -- assumption of classical behavior for rotation
           may cause significant error
 Rotational temperatures (Kelvin)      0.01491     0.00612     0.00460
 Rotational constants (GHZ):           0.31073     0.12754     0.09580
 Zero-point vibrational energy     590068.1 (Joules/Mol)
                                  141.02966 (Kcal/Mol)
 Warning -- explicit consideration of  27 degrees of freedom as
           vibrations may cause significant error
 Vibrational temperatures:     29.23    32.34    40.69    64.10    76.34
          (Kelvin)             85.68    94.04   163.95   191.54   204.99
                              257.61   293.22   297.28   345.21   408.76
                              455.77   479.93   488.59   497.02   588.06
                              588.63   681.53   706.32   725.03   767.94
                              831.19   873.32   898.78   909.20   913.60
                             1015.86  1022.57  1032.37  1043.32  1085.74
                             1102.58  1140.34  1168.51  1175.69  1234.79
                             1235.82  1287.46  1313.77  1356.09  1358.85
                             1430.72  1431.52  1458.57  1459.35  1459.56
                             1460.12  1491.21  1507.45  1529.02  1583.56
                             1584.88  1695.25  1696.09  1704.36  1708.14
                             1726.68  1728.36  1834.59  1845.88  1889.74
                             1890.82  1947.43  1948.56  2114.28  2114.75
                             2186.33  2187.92  2318.04  2319.78  2329.55
                             2352.54  2354.43  2378.67  2457.83  2465.50
                             4559.07  4559.12  4568.23  4568.36  4578.17
                             4578.44  4587.93  4587.98  4597.60  4597.74

 Zero-point correction=                           0.224745 (Hartree/Particle)
 Thermal correction to Energy=                    0.243729
 Thermal correction to Enthalpy=                  0.244673
 Thermal correction to Gibbs Free Energy=         0.172500
 Sum of electronic and zero-point Energies=          -5990.641338
 Sum of electronic and thermal Energies=             -5990.622354
 Sum of electronic and thermal Enthalpies=           -5990.621410
 Sum of electronic and thermal Free Energies=        -5990.693583

                     E (Thermal)             CV                S
                      KCal/Mol        Cal/Mol-Kelvin    Cal/Mol-Kelvin
 Total                  152.942             70.019            151.902
 Electronic               0.000              0.000              0.000
 Translational            0.889              2.981             43.967
 Rotational               0.889              2.981             35.692
 Vibrational            151.165             64.058             72.244
 Vibration     1          0.593              1.986              6.603
 Vibration     2          0.593              1.985              6.402
 Vibration     3          0.593              1.984              5.947
 Vibration     4          0.595              1.980              5.046
 Vibration     5          0.596              1.976              4.700
 Vibration     6          0.597              1.974              4.472
 Vibration     7          0.597              1.971              4.288
 Vibration     8          0.607              1.938              3.200
 Vibration     9          0.613              1.920              2.900
 Vibration    10          0.616              1.911              2.770
 Vibration    11          0.629              1.868              2.338
 Vibration    12          0.639              1.834              2.099
 Vibration    13          0.641              1.830              2.073
 Vibration    14          0.657              1.779              1.803
 Vibration    15          0.683              1.703              1.509
 Vibration    16          0.704              1.642              1.327
 Vibration    17          0.715              1.608              1.243
 Vibration    18          0.719              1.596              1.214
 Vibration    19          0.724              1.585              1.187
 Vibration    20          0.773              1.451              0.931
 Vibration    21          0.773              1.450              0.930
 Vibration    22          0.830              1.308              0.727
 Vibration    23          0.847              1.270              0.681
 Vibration    24          0.859              1.241              0.648
 Vibration    25          0.889              1.175              0.579
 Vibration    26          0.934              1.079              0.490
 Vibration    27          0.966              1.017              0.438

                           ! Non-Optimized Parameters !
 Normal termination of Gaussian 16 at Sat Feb 10 12:33:31 2024.
