 Q-Chem 5.4, Q-Chem, Inc., Pleasanton, CA (2021)
 Q-Chem 5.4.0 for Intel X86 EM64T Linux

User input:
--------------------------------------------------------------
$molecule
-1 2
C                  4.8915630000     -2.8649630000     -0.3572020000
C                  5.6112850000     -1.9705090000     -1.1232330000
C                  5.0140990000     -0.7616950000     -1.5454740000
C                  3.5568590000     -2.5937010000      0.0169040000
C                  2.9549630000     -1.3753480000     -0.4086790000
C                  3.7110810000     -0.4754290000     -1.1918690000
C                  2.8233160000     -3.5551450000      0.8246340000
C                  1.4585020000     -3.2295720000      1.1812670000
C                  0.8522750000     -2.0024180000      0.7526460000
C                  1.5841020000     -1.0465920000     -0.0515520000
C                  0.7021800000     -4.1410120000      1.9709500000
C                 -0.6096140000     -3.8340790000      2.3169840000
C                 -0.4925150000     -1.7225840000      1.1262930000
C                 -1.2010530000     -2.6368650000      1.8988300000
O                  3.3698770000     -4.6469740000      1.2030170000
O                  1.0501730000      0.0489590000     -0.4371630000
O                  1.2416240000     -5.3094340000      2.3937120000
H                  5.3259570000     -3.7988060000     -0.0205210000
H                  6.6364470000     -2.1943550000     -1.4021890000
H                  5.5815370000     -0.0589720000     -2.1480320000
H                  3.2298010000      0.4443360000     -1.5025390000
H                  2.1769400000     -5.3072150000      2.0269860000
O                 -1.0975820000     -0.5738520000      0.7399810000
H                 -2.2239080000     -2.3992430000      2.1696330000
H                 -1.1635700000     -4.5457190000      2.9192590000
H                 -0.4020480000     -0.0858040000      0.2039150000
$end

$rem
BASIS  =  6-311++G(d,p)
GUI  =  2
JOB_TYPE  =  SP
METHOD  =  B3LYP
SCF_CONVERGENCE  = 8
SOLVENT_METHOD = sm12
$end

$smx
solvent dimethylformamide
charges CM5
$end

--------------------------------------------------------------

             Standard Nuclear Orientation (Angstroms)
    I     Atom           X                Y                Z
 ----------------------------------------------------------------
    1      C       4.8915630000    -2.8649630000    -0.3572020000
    2      C       5.6112850000    -1.9705090000    -1.1232330000
    3      C       5.0140990000    -0.7616950000    -1.5454740000
    4      C       3.5568590000    -2.5937010000     0.0169040000
    5      C       2.9549630000    -1.3753480000    -0.4086790000
    6      C       3.7110810000    -0.4754290000    -1.1918690000
    7      C       2.8233160000    -3.5551450000     0.8246340000
    8      C       1.4585020000    -3.2295720000     1.1812670000
    9      C       0.8522750000    -2.0024180000     0.7526460000
   10      C       1.5841020000    -1.0465920000    -0.0515520000
   11      C       0.7021800000    -4.1410120000     1.9709500000
   12      C      -0.6096140000    -3.8340790000     2.3169840000
   13      C      -0.4925150000    -1.7225840000     1.1262930000
   14      C      -1.2010530000    -2.6368650000     1.8988300000
   15      O       3.3698770000    -4.6469740000     1.2030170000
   16      O       1.0501730000     0.0489590000    -0.4371630000
   17      O       1.2416240000    -5.3094340000     2.3937120000
   18      H       5.3259570000    -3.7988060000    -0.0205210000
   19      H       6.6364470000    -2.1943550000    -1.4021890000
   20      H       5.5815370000    -0.0589720000    -2.1480320000
   21      H       3.2298010000     0.4443360000    -1.5025390000
   22      H       2.1769400000    -5.3072150000     2.0269860000
   23      O      -1.0975820000    -0.5738520000     0.7399810000
   24      H      -2.2239080000    -2.3992430000     2.1696330000
   25      H      -1.1635700000    -4.5457190000     2.9192590000
   26      H      -0.4020480000    -0.0858040000     0.2039150000
 ----------------------------------------------------------------

   15    -839.5460140474      7.29e-09  Convergence criterion met
 Total energy in the final basis set =     -839.6321565070

                    Orbital Energies (a.u.)
 --------------------------------------------------------------

 Alpha MOs
 -- Occupied --
-19.1318 -19.1318 -19.0943 -19.0943 -10.2398 -10.2398 -10.2366 -10.2366
-10.1860 -10.1856 -10.1848 -10.1846 -10.1845 -10.1841 -10.1819 -10.1818
-10.1785 -10.1779  -1.0558  -1.0544  -1.0106  -1.0088  -0.8719  -0.8537
 -0.7983  -0.7637  -0.7527  -0.7404  -0.6836  -0.6488  -0.6413  -0.6014
 -0.5829  -0.5506  -0.5356  -0.5258  -0.5123  -0.4802  -0.4750  -0.4662
 -0.4452  -0.4362  -0.4310  -0.4278  -0.4223  -0.4123  -0.4082  -0.4067
 -0.4032  -0.3733  -0.3732  -0.3629  -0.3603  -0.3571  -0.3462  -0.3106
 -0.2785  -0.2680  -0.2655  -0.2606  -0.2525  -0.2193  -0.1512

 Beta MOs
 -- Occupied --
-19.1312 -19.1312 -19.0895 -19.0895 -10.2379 -10.2379 -10.2361 -10.2361
-10.1853 -10.1849 -10.1848 -10.1844 -10.1842 -10.1837 -10.1818 -10.1818
-10.1774 -10.1768  -1.0538  -1.0524  -1.0028  -1.0009  -0.8694  -0.8521
 -0.7943  -0.7614  -0.7510  -0.7376  -0.6770  -0.6469  -0.6388  -0.6004
 -0.5813  -0.5482  -0.5344  -0.5244  -0.5107  -0.4782  -0.4738  -0.4645
 -0.4366  -0.4358  -0.4295  -0.4235  -0.4202  -0.4112  -0.4064  -0.3969
 -0.3958  -0.3721  -0.3613  -0.3598  -0.3572  -0.3473  -0.3448  -0.3032
 -0.2613  -0.2611  -0.2606  -0.2560  -0.2486  -0.2080

          Ground-State Mulliken Net Atomic Charges

     Atom                 Charge (a.u.)    Spin (a.u.)
  --------------------------------------------------------
      1 C                     0.415426       0.034565
      2 C                     0.958118       0.037166
      3 C                     0.957384       0.037149
      4 C                    -0.791298       0.024854
      5 C                    -0.790031       0.024701
      6 C                     0.415966       0.034605
      7 C                    -1.150287       0.103219
      8 C                    -0.445415      -0.006910
      9 C                    -0.444798      -0.006947
     10 C                    -1.149744       0.103301
     11 C                    -0.723098       0.048981
     12 C                     0.716394       0.074787
     13 C                    -0.723323       0.048949
     14 C                     0.717742       0.074752
     15 O                    -0.344036       0.179198
     16 O                    -0.344457       0.179160
     17 O                    -0.308959       0.018468
     18 H                     0.195491      -0.000774
     19 H                     0.359742      -0.002935
     20 H                     0.359634      -0.002935
     21 H                     0.195437      -0.000774
     22 H                     0.330452      -0.004110
     23 O                    -0.308768       0.018473
     24 H                     0.285858      -0.006421
     25 H                     0.285911      -0.006420
     26 H                     0.330655      -0.004104
  --------------------------------------------------------
  Sum of atomic charges =    -1.000000

                    Cartesian Multipole Moments
 -----------------------------------------------------------------
    Charge (ESU x 10^10)
                -4.8032
    Dipole Moment (Debye)
         X      -6.5207      Y      12.2728      Z      -4.1056
       Tot      14.4913
    Quadrupole Moments (Debye-Ang)
        XX    -127.3451     XY      27.3363     YY    -165.1204
        XZ      -8.2337     YZ      18.9381     ZZ    -117.5657

 Total job time:  559.22s(wall), 4294.74s(cpu)
        *  Thank you very much for using Q-Chem.  Have a nice day.  *
