 Q-Chem 5.4, Q-Chem, Inc., Pleasanton, CA (2021)
 Q-Chem 5.4.0 for Intel X86 EM64T Linux

User input:
--------------------------------------------------------------
$molecule
-1 2
C                 -1.3521190000      1.9580320000      0.8177640000
C                 -2.6146170000      1.4194430000      0.3065330000
C                 -2.6346080000      0.2507450000     -0.4046360000
C                 -1.4583250000     -0.5296930000     -0.7082430000
C                 -0.1779950000     -0.0157950000     -0.2062360000
C                 -0.1792830000      1.1575160000      0.5071200000
O                 -1.5289840000     -1.6023400000     -1.3718470000
H                 -3.5646230000     -0.1596090000     -0.7846170000
O                 -1.3077570000      3.0297420000      1.4737090000
I                  1.6478890000      1.9679480000      1.2759600000
C                  1.0539380000     -0.8225870000     -0.5129790000
C                 -3.8577800000      2.2465040000      0.5938630000
C                 -3.9546380000      3.4389500000     -0.3797910000
C                 -5.1633180000      1.4404170000      0.5955410000
H                  0.7645720000     -1.6999240000     -1.0918440000
H                  1.5582010000     -1.1447510000      0.4043050000
H                  1.7822480000     -0.2366700000     -1.0836820000
H                 -3.7123920000      2.6712450000      1.5928170000
H                 -4.8077990000      4.0809440000     -0.1278890000
H                 -4.0850100000      3.0869150000     -1.4091600000
H                 -3.0462130000      4.0415950000     -0.3301110000
H                 -5.9988540000      2.0766060000      0.9082870000
H                 -5.1072590000      0.5900850000      1.2812140000
H                 -5.4044740000      1.0508540000     -0.3990170000
$end
$rem
MAX_SCF_CYCLES=200
BASIS  =  6-311++G(d,p)
GUI  =  2
JOB_TYPE  =  SP
METHOD  =  B3LYP
SOLVENT_METHOD = COSMO
$end
$solvent
dielectric 37.219
opticaldielectric 1.43
$end

--------------------------------------------------------------

             Standard Nuclear Orientation (Angstroms)
    I     Atom           X                Y                Z
 ----------------------------------------------------------------
    1      C      -0.6417652873    -0.7176173753    -0.1245583135
    2      C      -1.9813225874    -0.1252389542    -0.1277975207
    3      C      -2.1420166466     1.2307825131    -0.0417789105
    4      C      -1.0486311016     2.1684809807     0.0588789860
    5      C       0.3065457869     1.6038270814     0.0618228397
    6      C       0.4467746465     0.2407784200    -0.0274596222
    7      O      -1.2495394226     3.4131389527     0.1388597902
    8      H      -3.1295281111     1.6807750503    -0.0474082698
    9      O      -0.4681262324    -1.9604220748    -0.2025333837
   10      I       2.3910908999    -0.6570323378    -0.0339895416
   11      C       1.4538277975     2.5714655338     0.1622386221
   12      C      -3.1431009248    -1.1032658312    -0.2038053746
   13      C      -3.4106380314    -1.7381709084     1.1762781325
   14      C      -4.4314614387    -0.5059853591    -0.7848318461
   15      H       1.0552640942     3.5844587205     0.2216470386
   16      H       2.1176098695     2.4943228928    -0.7054728084
   17      H       2.0675135817     2.3716541939     1.0470557150
   18      H      -2.8111633560    -1.9143811266    -0.8605862434
   19      H      -4.1972097456    -2.5000301511     1.1101718673
   20      H      -3.7329437395    -0.9767928889     1.8952694953
   21      H      -2.5043909720    -2.2136501794     1.5551195363
   22      H      -5.1894345976    -1.2882584364    -0.9039638502
   23      H      -4.2550715672    -0.0505637123    -1.7635209293
   24      H      -4.8564111903     0.2631079119    -0.1313990555
 ----------------------------------------------------------------

   10   -7457.8689159998      9.75e-06  Convergence criterion met
 Total energy in the final basis set =    -7457.8689159998
    4   -7457.9484193910      8.99e-06  Convergence criterion met
 Total energy in the final basis set =    -7457.9484193910

                    Orbital Energies (a.u.)
 --------------------------------------------------------------

 Alpha MOs
 -- Occupied --
********-176.2866-165.6901-165.6884-165.6882 -35.7830 -31.2756 -31.2707
-31.2702 -22.9263 -22.9252 -22.9249 -22.9214 -22.9214 -19.0844 -19.0838
-10.2304 -10.2262 -10.2053 -10.1839 -10.1748 -10.1700 -10.1605 -10.1563
-10.1506 -10.1502  -6.3323  -4.7432  -4.7312  -4.7301  -2.0093  -2.0055
 -2.0047  -1.9944  -1.9943  -1.0104  -1.0064  -0.8387  -0.8027  -0.7505
 -0.7111  -0.6785  -0.6679  -0.6413  -0.5969  -0.5578  -0.5369  -0.4957
 -0.4661  -0.4424  -0.4331  -0.4298  -0.4202  -0.4096  -0.4024  -0.3850
 -0.3832  -0.3795  -0.3773  -0.3708  -0.3506  -0.3359  -0.3338  -0.3224
 -0.2957  -0.2719  -0.2615  -0.2517  -0.2393  -0.2374  -0.1661

 Beta MOs
 -- Occupied --
********-176.2866-165.6901-165.6884-165.6882 -35.7830 -31.2756 -31.2707
-31.2702 -22.9263 -22.9252 -22.9249 -22.9214 -22.9214 -19.0774 -19.0774
-10.2288 -10.2247 -10.2045 -10.1822 -10.1736 -10.1701 -10.1598 -10.1565
-10.1506 -10.1501  -6.3323  -4.7432  -4.7311  -4.7301  -2.0093  -2.0055
 -2.0048  -1.9944  -1.9942  -0.9991  -0.9941  -0.8332  -0.8009  -0.7485
 -0.7063  -0.6780  -0.6620  -0.6395  -0.5943  -0.5540  -0.5342  -0.4935
 -0.4626  -0.4396  -0.4304  -0.4214  -0.4158  -0.4064  -0.3973  -0.3818
 -0.3767  -0.3762  -0.3690  -0.3544  -0.3473  -0.3346  -0.3323  -0.3213
 -0.2833  -0.2602  -0.2503  -0.2455  -0.2343  -0.2314

          Ground-State Mulliken Net Atomic Charges

     Atom                 Charge (a.u.)    Spin (a.u.)
  --------------------------------------------------------
      1 C                    -0.945454       0.105147
      2 C                     1.021023       0.085100
      3 C                    -0.344333       0.039152
      4 C                    -0.970867       0.115035
      5 C                     0.992182       0.149747
      6 C                     0.027285       0.012432
      7 O                    -0.512782       0.243671
      8 H                     0.178030      -0.005790
      9 O                    -0.419202       0.232869
     10 I                    -0.078408       0.000882
     11 C                    -0.393307      -0.000693
     12 C                     0.122513       0.000954
     13 C                    -0.729117       0.010195
     14 C                    -0.587114       0.000984
     15 H                     0.183477      -0.001866
     16 H                     0.162134       0.005500
     17 H                     0.161027       0.005415
     18 H                     0.197905       0.002597
     19 H                     0.146008       0.001992
     20 H                     0.150182      -0.001026
     21 H                     0.175893      -0.001687
     22 H                     0.174798      -0.000363
     23 H                     0.141178      -0.000120
     24 H                     0.146949      -0.000129
  --------------------------------------------------------
  Sum of atomic charges =    -1.000000

                    Cartesian Multipole Moments
 -----------------------------------------------------------------
    Charge (ESU x 10^10)
                -4.8032
    Dipole Moment (Debye)
         X       1.4268      Y      -2.7194      Z       0.1049
       Tot       3.0728
    Quadrupole Moments (Debye-Ang)
        XX    -108.4255     XY      12.0147     YY    -144.0920
        XZ       0.8348     YZ      -1.8676     ZZ    -105.5591

 Total job time:  52.20s(wall), 394.73s(cpu)
        *  Thank you very much for using Q-Chem.  Have a nice day.  *
