 Q-Chem 5.4, Q-Chem, Inc., Pleasanton, CA (2021)
 Q-Chem 5.4.0 for Intel X86 EM64T Linux

User input:
--------------------------------------------------------------
$molecule
0 1
I                 -2.8062370000     -2.0734520000      0.0042450000
C                 -1.1866600000     -0.7439190000      0.0002450000
C                 -1.3591830000      0.5853330000     -0.0163410000
C                 -0.2019830000      1.5118870000     -0.0189250000
O                 -0.3631960000      2.7202600000     -0.0340380000
C                  1.1577430000      0.9215270000     -0.0025490000
C                  1.3404370000     -0.4064380000      0.0141330000
I                  3.2519420000     -1.2640150000      0.0377010000
C                  0.1825790000     -1.3668940000      0.0170830000
O                  0.3423760000     -2.5646080000      0.0319820000
H                 -2.3362900000      1.0521950000     -0.0285930000
H                  1.9784690000      1.6281260000     -0.0049430000
$end

$rem
BASIS  =  6-311++G(d,p)
GUI  =  2
JOB_TYPE  =  SP
METHOD  =  B3LYP
SCF_CONVERGENCE  = 8
SOLVENT_METHOD = sm12
$end

$smx
solvent dimethylformamide
charges CM5
$end

--------------------------------------------------------------

             Standard Nuclear Orientation (Angstroms)
    I     Atom           X                Y                Z
 ----------------------------------------------------------------
    1      I      -2.8062370000    -2.0734520000     0.0042450000
    2      C      -1.1866600000    -0.7439190000     0.0002450000
    3      C      -1.3591830000     0.5853330000    -0.0163410000
    4      C      -0.2019830000     1.5118870000    -0.0189250000
    5      O      -0.3631960000     2.7202600000    -0.0340380000
    6      C       1.1577430000     0.9215270000    -0.0025490000
    7      C       1.3404370000    -0.4064380000     0.0141330000
    8      I       3.2519420000    -1.2640150000     0.0377010000
    9      C       0.1825790000    -1.3668940000     0.0170830000
   10      O       0.3423760000    -2.5646080000     0.0319820000
   11      H      -2.3362900000     1.0521950000    -0.0285930000
   12      H       1.9784690000     1.6281260000    -0.0049430000
 ----------------------------------------------------------------

   15  -14219.3840484433      2.05e-09  Convergence criterion met
 Total energy in the final basis set =   -14219.4012678128

                    Orbital Energies (a.u.)
 --------------------------------------------------------------

 Alpha MOs
 -- Occupied --
*****************-176.3168-176.3168-165.7206-165.7206-165.7185-165.7185
********-165.7183 -35.8133 -35.8133 -31.3065 -31.3065 -31.3006 -31.3006
-31.3001 -31.3001 -22.9570 -22.9570 -22.9557 -22.9557 -22.9553 -22.9553
-22.9512 -22.9512 -22.9512 -22.9512 -19.1644 -19.1538 -10.3171 -10.3013
-10.2679 -10.2679 -10.2296 -10.2295  -6.3626  -6.3626  -4.7752  -4.7752
 -4.7607  -4.7607  -4.7594  -4.7594  -2.0412  -2.0412  -2.0365  -2.0365
 -2.0356  -2.0356  -2.0231  -2.0231  -2.0231  -2.0230  -1.1010  -1.0842
 -0.8892  -0.8262  -0.7379  -0.6958  -0.6790  -0.6111  -0.6068  -0.5497
 -0.5242  -0.4801  -0.4749  -0.4599  -0.4576  -0.4398  -0.4144  -0.3939
 -0.3542  -0.3462  -0.3137  -0.2986  -0.2835  -0.2782  -0.2742  -0.2674

          Ground-State Mulliken Net Atomic Charges

     Atom                 Charge (a.u.)
  ----------------------------------------
      1 I                     0.095845
      2 C                     1.121115
      3 C                     0.094396
      4 C                    -0.417024
      5 O                    -0.315021
      6 C                     0.109849
      7 C                     1.080555
      8 I                     0.099914
      9 C                    -2.358575
     10 O                    -0.160300
     11 H                     0.324465
     12 H                     0.324781
  ----------------------------------------
  Sum of atomic charges =     0.000000

                    Cartesian Multipole Moments
 -----------------------------------------------------------------
    Charge (ESU x 10^10)
                 0.0000
    Dipole Moment (Debye)
         X      -0.0113      Y       0.1117      Z      -0.0010
       Tot       0.1122
    Quadrupole Moments (Debye-Ang)
        XX     -92.1841     XY       3.2435     YY    -116.0895
        XZ       0.0281     YZ       0.1906     ZZ    -101.5068

 Total job time:  94.20s(wall), 694.40s(cpu)
        *  Thank you very much for using Q-Chem.  Have a nice day.  *
