 Q-Chem 5.4, Q-Chem, Inc., Pleasanton, CA (2021)
 Q-Chem 5.4.0 for Intel X86 EM64T Linux

User input:
--------------------------------------------------------------
$molecule
0 1
C                 -2.1810480000     -3.8538090000      1.2183020000
C                 -0.7068570000     -3.8946360000      1.3768770000
C                  0.0165230000     -2.7864380000      1.5672900000
C                 -0.6201400000     -1.4493770000      1.6279750000
C                 -2.1013210000     -1.3779270000      1.4551030000
C                 -2.8244990000     -2.4955370000      1.2711100000
O                 -2.8282120000     -4.8665250000      1.0587490000
O                  0.0360020000     -0.4411460000      1.8135160000
Cl                -4.5451360000     -2.4657970000      1.0847160000
C                 -2.6984680000      0.0054440000      1.4526820000
O                 -2.8559040000      0.6526160000      0.4516930000
O                 -3.0003820000      0.3977910000      2.6923000000
C                 -3.5387770000      1.7341410000      2.8208240000
H                 -0.2655460000     -4.8836070000      1.3291890000
H                  1.0938060000     -2.8012110000      1.6874610000
H                 -3.7156630000      1.8691980000      3.8846330000
H                 -4.4686270000      1.8191160000      2.2582460000
H                 -2.8171200000      2.4626640000      2.4512340000
$end

$rem
BASIS  =  6-311++G(d,p)
GUI  =  2
JOB_TYPE  =  SP
METHOD  =  B3LYP
SCF_CONVERGENCE  = 8
SOLVENT_METHOD = sm12
$end

$smx
solvent dimethylformamide
charges CM5
$end

--------------------------------------------------------------

             Standard Nuclear Orientation (Angstroms)
    I     Atom           X                Y                Z
 ----------------------------------------------------------------
    1      C      -2.1810480000    -3.8538090000     1.2183020000
    2      C      -0.7068570000    -3.8946360000     1.3768770000
    3      C       0.0165230000    -2.7864380000     1.5672900000
    4      C      -0.6201400000    -1.4493770000     1.6279750000
    5      C      -2.1013210000    -1.3779270000     1.4551030000
    6      C      -2.8244990000    -2.4955370000     1.2711100000
    7      O      -2.8282120000    -4.8665250000     1.0587490000
    8      O       0.0360020000    -0.4411460000     1.8135160000
    9      Cl     -4.5451360000    -2.4657970000     1.0847160000
   10      C      -2.6984680000     0.0054440000     1.4526820000
   11      O      -2.8559040000     0.6526160000     0.4516930000
   12      O      -3.0003820000     0.3977910000     2.6923000000
   13      C      -3.5387770000     1.7341410000     2.8208240000
   14      H      -0.2655460000    -4.8836070000     1.3291890000
   15      H       1.0938060000    -2.8012110000     1.6874610000
   16      H      -3.7156630000     1.8691980000     3.8846330000
   17      H      -4.4686270000     1.8191160000     2.2582460000
   18      H      -2.8171200000     2.4626640000     2.4512340000
 ----------------------------------------------------------------

   16   -1069.1135528574      3.49e-09  Convergence criterion met
 Total energy in the final basis set =    -1069.1338114215

                    Orbital Energies (a.u.)
 --------------------------------------------------------------

 Alpha MOs
 -- Occupied --
******** -19.1895 -19.1566 -19.1542 -19.1384 -10.3321 -10.3058 -10.3039
-10.2867 -10.2431 -10.2261 -10.2230 -10.2219  -9.4996  -7.2642  -7.2547
 -7.2537  -1.1335  -1.0906  -1.0859  -1.0490  -0.9227  -0.8630  -0.8093
 -0.7478  -0.7206  -0.6643  -0.6267  -0.5876  -0.5552  -0.5432  -0.5125
 -0.5004  -0.4942  -0.4869  -0.4703  -0.4691  -0.4503  -0.4404  -0.4361
 -0.4259  -0.4072  -0.3888  -0.3757  -0.3451  -0.3279  -0.3243  -0.3201
 -0.3063  -0.2982  -0.2902

          Ground-State Mulliken Net Atomic Charges

     Atom                 Charge (a.u.)
  ----------------------------------------
      1 C                    -0.836931
      2 C                     0.862306
      3 C                     1.075113
      4 C                    -1.264987
      5 C                     0.015667
      6 C                     0.185816
      7 O                    -0.229370
      8 O                    -0.250540
      9 Cl                    0.480846
     10 C                    -1.117861
     11 O                    -0.207225
     12 O                     0.032917
     13 C                    -0.120419
     14 H                     0.375978
     15 H                     0.367333
     16 H                     0.235503
     17 H                     0.200111
     18 H                     0.195743
  ----------------------------------------
  Sum of atomic charges =     0.000000

                    Cartesian Multipole Moments
 -----------------------------------------------------------------
    Charge (ESU x 10^10)
                -0.0000
    Dipole Moment (Debye)
         X       1.2072      Y      -0.1266      Z       2.2053
       Tot       2.5173
    Quadrupole Moments (Debye-Ang)
        XX     -81.9516     XY     -17.9247     YY     -80.6933
        XZ      -7.0372     YZ       2.3588     ZZ     -75.3753

 Total job time:  206.85s(wall), 1593.85s(cpu)
        *  Thank you very much for using Q-Chem.  Have a nice day.  *
