 Q-Chem 5.4, Q-Chem, Inc., Pleasanton, CA (2021)
 Q-Chem 5.4.0 for Intel X86 EM64T Linux

User input:
--------------------------------------------------------------
$molecule
0 1
C                  0.3048080000      3.8785510000      0.4773610000
C                 -0.8695240000      3.4721340000      1.1023070000
C                 -1.2671200000      2.1341250000      1.0454840000
C                  1.0913670000      2.9447880000     -0.2025500000
C                  0.6930740000      1.6036330000     -0.2590230000
C                 -0.4899380000      1.2021070000      0.3650060000
C                  2.3361680000      3.3965960000     -0.8869230000
C                  3.2144880000      2.3483800000     -1.5005940000
C                  2.8178160000      1.0438030000     -1.5786020000
C                  1.5275200000      0.6018840000     -0.9805460000
O                  2.6131240000      4.5819600000     -0.9520070000
O                  1.1713690000     -0.5657810000     -1.0566910000
H                  0.6271060000      4.9119890000      0.5022250000
H                 -1.4779900000      4.1965060000      1.6316680000
H                 -2.1843940000      1.8207310000      1.5309410000
H                 -0.7804720000      0.1606610000      0.3049470000
S                  4.7207820000      2.8155200000     -2.3070460000
C                  3.6341020000     -0.0177000000     -2.2557390000
H                  3.5868820000      0.0885390000     -3.3455520000
H                  3.2551870000     -1.0049700000     -1.9984390000
H                  4.6871290000      0.0683320000     -1.9749770000
C                  5.4100730000      4.2794360000     -1.4073920000
C                  6.8823300000      4.4080510000     -1.7899370000
H                  5.2929670000      4.1085550000     -0.3376910000
H                  4.8396470000      5.1614310000     -1.6821920000
H                  7.4595530000      3.5320720000     -1.4853180000
H                  7.3081010000      5.2860000000     -1.2960270000
H                  7.0074640000      4.5422360000     -2.8677050000
$end

$rem
BASIS  =  6-311++G(d,p)
GUI  =  2
JOB_TYPE  =  SP
METHOD  =  B3LYP
SCF_CONVERGENCE  = 8
SOLVENT_METHOD = sm12
$end

$smx
solvent dimethylformamide
charges CM5
$end

--------------------------------------------------------------

             Standard Nuclear Orientation (Angstroms)
    I     Atom           X                Y                Z
 ----------------------------------------------------------------
    1      C       0.3048080000     3.8785510000     0.4773610000
    2      C      -0.8695240000     3.4721340000     1.1023070000
    3      C      -1.2671200000     2.1341250000     1.0454840000
    4      C       1.0913670000     2.9447880000    -0.2025500000
    5      C       0.6930740000     1.6036330000    -0.2590230000
    6      C      -0.4899380000     1.2021070000     0.3650060000
    7      C       2.3361680000     3.3965960000    -0.8869230000
    8      C       3.2144880000     2.3483800000    -1.5005940000
    9      C       2.8178160000     1.0438030000    -1.5786020000
   10      C       1.5275200000     0.6018840000    -0.9805460000
   11      O       2.6131240000     4.5819600000    -0.9520070000
   12      O       1.1713690000    -0.5657810000    -1.0566910000
   13      H       0.6271060000     4.9119890000     0.5022250000
   14      H      -1.4779900000     4.1965060000     1.6316680000
   15      H      -2.1843940000     1.8207310000     1.5309410000
   16      H      -0.7804720000     0.1606610000     0.3049470000
   17      S       4.7207820000     2.8155200000    -2.3070460000
   18      C       3.6341020000    -0.0177000000    -2.2557390000
   19      H       3.5868820000     0.0885390000    -3.3455520000
   20      H       3.2551870000    -1.0049700000    -1.9984390000
   21      H       4.6871290000     0.0683320000    -1.9749770000
   22      C       5.4100730000     4.2794360000    -1.4073920000
   23      C       6.8823300000     4.4080510000    -1.7899370000
   24      H       5.2929670000     4.1085550000    -0.3376910000
   25      H       4.8396470000     5.1614310000    -1.6821920000
   26      H       7.4595530000     3.5320720000    -1.4853180000
   27      H       7.3081010000     5.2860000000    -1.2960270000
   28      H       7.0074640000     4.5422360000    -2.8677050000
 ----------------------------------------------------------------

   15   -1051.4507353734      6.99e-09  Convergence criterion met
 Total energy in the final basis set =    -1051.4676141585

                    Orbital Energies (a.u.)
 --------------------------------------------------------------

 Alpha MOs
 -- Occupied --
-88.8635 -19.1337 -19.1272 -10.2878 -10.2776 -10.2359 -10.2140 -10.2074
-10.2063 -10.2042 -10.1972 -10.1969 -10.1962 -10.1959 -10.1705 -10.1686
 -7.9495  -5.9133  -5.9091  -5.9038  -1.0698  -1.0606  -0.8902  -0.8597
 -0.8065  -0.7839  -0.7771  -0.7414  -0.7027  -0.6790  -0.6399  -0.6203
 -0.6020  -0.5831  -0.5481  -0.5195  -0.4980  -0.4750  -0.4669  -0.4608
 -0.4597  -0.4530  -0.4504  -0.4416  -0.4256  -0.4132  -0.4101  -0.3957
 -0.3916  -0.3828  -0.3764  -0.3724  -0.3668  -0.3640  -0.3348  -0.3063
 -0.2867  -0.2823  -0.2774  -0.2723  -0.2356

          Ground-State Mulliken Net Atomic Charges

     Atom                 Charge (a.u.)
  ----------------------------------------
      1 C                     0.260197
      2 C                     0.256265
      3 C                     0.290112
      4 C                    -0.240511
      5 C                     0.100440
      6 C                    -0.036146
      7 C                    -1.384578
      8 C                     0.977725
      9 C                     0.745975
     10 C                    -1.759288
     11 O                    -0.198780
     12 O                    -0.281507
     13 H                     0.218785
     14 H                     0.321224
     15 H                     0.317889
     16 H                     0.189318
     17 S                    -0.649113
     18 C                     0.087850
     19 H                     0.225310
     20 H                     0.165855
     21 H                     0.196517
     22 C                    -0.250101
     23 C                    -0.443852
     24 H                     0.204520
     25 H                     0.181347
     26 H                     0.154241
     27 H                     0.189278
     28 H                     0.161028
  ----------------------------------------
  Sum of atomic charges =     0.000000

                    Cartesian Multipole Moments
 -----------------------------------------------------------------
    Charge (ESU x 10^10)
                -0.0000
    Dipole Moment (Debye)
         X       0.1410      Y       2.0226      Z       1.8353
       Tot       2.7348
    Quadrupole Moments (Debye-Ang)
        XX     -82.9815     XY       3.9884     YY     -99.9646
        XZ      -3.7342     YZ       4.8582     ZZ    -101.9994

 Total job time:  541.76s(wall), 4238.43s(cpu)
        *  Thank you very much for using Q-Chem.  Have a nice day.  *
