 Gaussian 16, Revision A.03,
 Gaussian 16:  ES64L-G16RevA.03 25-Dec-2016

 ----------------------------------------------------------------------
 #P UB3LYP/6-311++G(d,p) nosym opt freq SCRF=(PCM,Solvent=n,n-DiMethylF
 ormamide)
 ----------------------------------------------------------------------

 --------
 Oxidized
 --------
 Symbolic Z-matrix:
 Charge =  0 Multiplicity = 1

 SCF Done:  E(UB3LYP) =  -744.348699877     A.U. after   14 cycles
 SCF Done:  E(UB3LYP) =  -744.348889559     A.U. after   12 cycles
 SCF Done:  E(UB3LYP) =  -744.348911665     A.U. after   11 cycles
 SCF Done:  E(UB3LYP) =  -744.348839342     A.U. after   11 cycles
 SCF Done:  E(UB3LYP) =  -744.348934998     A.U. after   11 cycles
 SCF Done:  E(UB3LYP) =  -744.348943013     A.U. after   10 cycles
 SCF Done:  E(UB3LYP) =  -744.348944430     A.U. after   10 cycles
 SCF Done:  E(UB3LYP) =  -744.348944818     A.U. after    8 cycles
 SCF Done:  E(UB3LYP) =  -744.348944891     A.U. after    8 cycles
 Optimization completed.
    -- Stationary point found.
 Normal termination of Gaussian 16 at Sat Feb 10 16:12:10 2024.

 ----------------------------------------------------------------------
 #P Geom=AllCheck Guess=TCheck SCRF=Check GenChk UB3LYP/6-311++G(d,p) F
 req
 ----------------------------------------------------------------------

 Structure from the checkpoint file:  "151.chk"
 --------
 Oxidized
 --------
 Charge =  0 Multiplicity = 1

                          Input orientation:
 ---------------------------------------------------------------------
 Center     Atomic      Atomic             Coordinates (Angstroms)
 Number     Number       Type             X           Y           Z
 ---------------------------------------------------------------------
      1          7           0       -4.507953   -0.876466   -0.774517
      2          6           0       -3.274473   -0.634819   -0.231552
      3          6           0       -3.070441   -0.705294    1.165283
      4          6           0       -1.814262   -0.502227    1.701633
      5          6           0       -0.706767   -0.222737    0.885354
      6          6           0        0.616746   -0.012416    1.490315
      7          8           0        0.795533   -0.072522    2.706282
      8          6           0        1.758547    0.280860    0.570490
      9          6           0        3.032904    0.484406    1.106837
     10          6           0        4.112604    0.758621    0.272948
     11          6           0        3.928452    0.832625   -1.109866
     12          6           0        2.664271    0.632022   -1.653731
     13          6           0        1.573342    0.355594   -0.823076
     14          6           0        0.230464    0.144835   -1.431978
     15          8           0        0.066306    0.211511   -2.643830
     16          6           0       -0.906445   -0.150908   -0.510434
     17          6           0       -2.167710   -0.353512   -1.055018
     18          1           0       -5.318146   -0.856629   -0.174521
     19          1           0       -4.677621   -0.614632   -1.733365
     20          1           0       -3.910453   -0.921197    1.816251
     21          1           0       -1.668054   -0.556455    2.773311
     22          1           0        3.161712    0.424442    2.180046
     23          1           0        5.097222    0.914645    0.698082
     24          1           0        4.769290    1.046114   -1.759267
     25          1           0        2.505644    0.686261   -2.723312
     26          1           0       -2.290712   -0.292123   -2.129693
 ---------------------------------------------------------------------

 SCF Done:  E(UB3LYP) =  -744.348944891     A.U. after    1 cycles

 Alpha  occ. eigenvalues --  -19.13080 -19.12097 -14.34073 -10.28281 -10.27504
 Alpha  occ. eigenvalues --  -10.24551 -10.20816 -10.20735 -10.20682 -10.19796
 Alpha  occ. eigenvalues --  -10.19739 -10.19681 -10.19667 -10.19575 -10.19510
 Alpha  occ. eigenvalues --  -10.19190 -10.19185  -1.06339  -1.05246  -0.94718
 Alpha  occ. eigenvalues --   -0.88941  -0.87046  -0.80459  -0.77762  -0.77551
 Alpha  occ. eigenvalues --   -0.75788  -0.68833  -0.66710  -0.64239  -0.62091
 Alpha  occ. eigenvalues --   -0.58716  -0.56760  -0.56128  -0.53275  -0.51301
 Alpha  occ. eigenvalues --   -0.49872  -0.48501  -0.47188  -0.45542  -0.45288
 Alpha  occ. eigenvalues --   -0.45140  -0.44760  -0.44615  -0.43319  -0.41454
 Alpha  occ. eigenvalues --   -0.41330  -0.40587  -0.38138  -0.37728  -0.37340
 Alpha  occ. eigenvalues --   -0.36349  -0.33183  -0.28538  -0.28525  -0.27914
 Alpha  occ. eigenvalues --   -0.27634  -0.27232  -0.23121
 Alpha virt. eigenvalues --   -0.11503  -0.07054  -0.03120  -0.02282  -0.00806
 Alpha virt. eigenvalues --   -0.00107   0.00888   0.01496   0.01952   0.03312
 Alpha virt. eigenvalues --    0.03597   0.03712   0.03861   0.04029   0.04928

  Beta  occ. eigenvalues --  -19.13080 -19.12097 -14.34073 -10.28281 -10.27504
  Beta  occ. eigenvalues --  -10.24551 -10.20816 -10.20735 -10.20682 -10.19796
  Beta  occ. eigenvalues --  -10.19739 -10.19681 -10.19667 -10.19575 -10.19510
  Beta  occ. eigenvalues --  -10.19190 -10.19185  -1.06339  -1.05246  -0.94718
  Beta  occ. eigenvalues --   -0.88941  -0.87046  -0.80459  -0.77762  -0.77551
  Beta  occ. eigenvalues --   -0.75788  -0.68833  -0.66710  -0.64239  -0.62091
  Beta  occ. eigenvalues --   -0.58716  -0.56760  -0.56128  -0.53275  -0.51301
  Beta  occ. eigenvalues --   -0.49872  -0.48501  -0.47188  -0.45542  -0.45288
  Beta  occ. eigenvalues --   -0.45140  -0.44760  -0.44615  -0.43319  -0.41454
  Beta  occ. eigenvalues --   -0.41330  -0.40587  -0.38138  -0.37728  -0.37340
  Beta  occ. eigenvalues --   -0.36349  -0.33183  -0.28538  -0.28525  -0.27914
  Beta  occ. eigenvalues --   -0.27634  -0.27232  -0.23121
  Beta virt. eigenvalues --   -0.11503  -0.07054  -0.03120  -0.02282  -0.00806
  Beta virt. eigenvalues --   -0.00107   0.00888   0.01496   0.01952   0.03312
  Beta virt. eigenvalues --    0.03597   0.03712   0.03861   0.04029   0.04928

 Mulliken charges and spin densities:
               1          2
     1  N   -0.330251  -0.000000
     2  C   -0.448574  -0.000000
     3  C   -0.066194   0.000000
     4  C    0.205380   0.000000
     5  C    0.139147   0.000000
     6  C   -0.580246  -0.000000
     7  O   -0.313601   0.000000
     8  C    0.110994   0.000000
     9  C    0.183730   0.000000
    10  C   -0.418576  -0.000000
    11  C   -0.412051   0.000000
    12  C    0.162365  -0.000000
    13  C    0.290363  -0.000000
    14  C   -0.720158   0.000000
    15  O   -0.279752  -0.000000
    16  C    0.548807  -0.000000
    17  C   -0.005905  -0.000000
    18  H    0.291850  -0.000000
    19  H    0.290764   0.000000
    20  H    0.208982   0.000000
    21  H    0.186024  -0.000000
    22  H    0.186328   0.000000
    23  H    0.205273  -0.000000
    24  H    0.205758  -0.000000
    25  H    0.184720   0.000000
    26  H    0.174823   0.000000
 Sum of Mulliken charges =  -0.00000   0.00000

 Dipole moment (field-independent basis, Debye):
    X=             -3.7228    Y=              0.1733    Z=             -1.3253  Tot=              3.9555
 Quadrupole moment (field-independent basis, Debye-Ang):
   XX=            -49.3064   YY=           -101.3732   ZZ=           -110.4221
   XY=              6.2727   XZ=             -2.0902   YZ=             -0.5207

  Exact polarizability: 397.948  53.997 128.452  24.265  -8.465 290.813
 Approx polarizability: 430.719  55.498 149.620  42.646  -9.894 379.453

                      1                      2                      3
                      A                      A                      A
 Frequencies --     34.7184                86.6087               111.4170
 Red. masses --      7.3744                 4.5464                 4.9772
 Frc consts  --      0.0052                 0.0201                 0.0364
 IR Inten    --     14.4103                 0.4689                 0.0479

                      4                      5                      6
                      A                      A                      A
 Frequencies --    142.6412               192.1694               197.6946
 Red. masses --      6.2223                 4.9202                 5.1022
 Frc consts  --      0.0746                 0.1071                 0.1175
 IR Inten    --      0.7940                 4.6609                 3.2701

                      7                      8                      9
                      A                      A                      A
 Frequencies --    279.1670               282.2622               321.1641
 Red. masses --      4.1660                 5.9616                 1.6855
 Frc consts  --      0.1913                 0.2798                 0.1024
 IR Inten    --     27.0209                 2.8105               561.1406

                     10                     11                     12
                      A                      A                      A
 Frequencies --    336.7112               386.5668               396.2026
 Red. masses --      3.5373                 7.6665                 4.9336
 Frc consts  --      0.2363                 0.6750                 0.4563
 IR Inten    --    133.7617                23.6573                19.6262

                     13                     14                     15
                      A                      A                      A
 Frequencies --    412.3259               419.3112               440.7163
 Red. masses --      1.9204                 1.5233                 4.1359
 Frc consts  --      0.1924                 0.1578                 0.4733
 IR Inten    --     11.8481                17.6282                 0.9253

                     16                     17                     18
                      A                      A                      A
 Frequencies --    446.3294               457.2849               476.4616
 Red. masses --      3.2378                 4.3912                12.1609
 Frc consts  --      0.3800                 0.5410                 1.6266
 IR Inten    --      1.4593                 1.2421                 0.8774

                     19                     20                     21
                      A                      A                      A
 Frequencies --    559.1238               589.1440               648.0936
 Red. masses --      4.3078                 6.1971                 6.7114
 Frc consts  --      0.7935                 1.2673                 1.6609
 IR Inten    --     14.2355                20.0686                17.2789

                     22                     23                     24
                      A                      A                      A
 Frequencies --    673.5806               677.0420               700.2398
 Red. masses --      3.5801                 6.8541                 6.5242
 Frc consts  --      0.9570                 1.8511                 1.8848
 IR Inten    --     17.4090                 3.1236                 1.8178

                     25                     26                     27
                      A                      A                      A
 Frequencies --    721.8444               733.7545               761.8255
 Red. masses --      4.1037                 2.1773                 6.6121
 Frc consts  --      1.2598                 0.6907                 2.2610
 IR Inten    --      5.7702               124.1462                11.8520

                     28                     29                     30
                      A                      A                      A
 Frequencies --    796.0168               810.9684               852.0215
 Red. masses --      3.9723                 2.0731                 1.6209
 Frc consts  --      1.4830                 0.8033                 0.6933
 IR Inten    --      0.0317                 4.0522                38.3580

                     31                     32                     33
                      A                      A                      A
 Frequencies --    867.4076               903.6248               914.9113
 Red. masses --      6.1338                 1.4945                 1.4339
 Frc consts  --      2.7191                 0.7190                 0.7072
 IR Inten    --     31.3536                21.2307                 0.8346

                     34                     35                     36
                      A                      A                      A
 Frequencies --    938.1738               993.1543               997.3178
 Red. masses --      7.1591                 1.3336                 3.0135
 Frc consts  --      3.7126                 0.7750                 1.7660
 IR Inten    --     93.8367                 1.0887                56.3846

                     37                     38                     39
                      A                      A                      A
 Frequencies --   1001.1413              1022.5216              1056.0983
 Red. masses --      1.3916                 1.3299                 1.9417
 Frc consts  --      0.8218                 0.8192                 1.2760
 IR Inten    --      2.9888                 0.0120                 2.1280

                     40                     41                     42
                      A                      A                      A
 Frequencies --   1074.2574              1109.4241              1124.2791
 Red. masses --      1.5484                 2.6982                 2.0060
 Frc consts  --      1.0528                 1.9567                 1.4940
 IR Inten    --     21.9839                 7.7367                64.2242

                     43                     44                     45
                      A                      A                      A
 Frequencies --   1169.3493              1180.2527              1195.7906
 Red. masses --      1.4557                 1.2159                 2.1621
 Frc consts  --      1.1728                 0.9980                 1.8215
 IR Inten    --     15.8335                51.6497                14.0402

                     46                     47                     48
                      A                      A                      A
 Frequencies --   1235.8833              1268.0583              1293.3631
 Red. masses --      1.7744                 1.8843                 2.6586
 Frc consts  --      1.5968                 1.7851                 2.6203
 IR Inten    --     53.7804                74.8248               751.6835

                     49                     50                     51
                      A                      A                      A
 Frequencies --   1317.1645              1351.0484              1355.3655
 Red. masses --      3.6470                 2.4759                 7.5061
 Frc consts  --      3.7279                 2.6627                 8.1242
 IR Inten    --    864.7839               395.6530               156.3197

                     52                     53                     54
                      A                      A                      A
 Frequencies --   1381.1703              1475.4254              1485.5774
 Red. masses --      6.6224                 2.6337                 3.2449
 Frc consts  --      7.4432                 3.3780                 4.2193
 IR Inten    --     11.1452                38.8683                23.3842

                     55                     56                     57
                      A                      A                      A
 Frequencies --   1501.5307              1526.4022              1586.0037
 Red. masses --      2.6731                 3.2887                 6.7541
 Frc consts  --      3.5509                 4.5146                10.0098
 IR Inten    --     12.7029                19.7528               187.8971

                     58                     59                     60
                      A                      A                      A
 Frequencies --   1601.9997              1614.7537              1625.8866
 Red. masses --      6.3257                 6.6048                 5.6876
 Frc consts  --      9.5650                10.1466                 8.8585
 IR Inten    --    770.7200               506.1459               100.0371

                     61                     62                     63
                      A                      A                      A
 Frequencies --   1652.3921              1675.8402              1699.0343
 Red. masses --      1.1893                 9.6182                11.4958
 Frc consts  --      1.9132                15.9151                19.5521
 IR Inten    --    266.7323                69.0669               463.6262

                     64                     65                     66
                      A                      A                      A
 Frequencies --   3173.8054              3177.0026              3189.5757
 Red. masses --      1.0896                 1.0874                 1.0914
 Frc consts  --      6.4669                 6.4665                 6.5420
 IR Inten    --     15.3266                 3.8167                10.2941

                     67                     68                     69
                      A                      A                      A
 Frequencies --   3189.9586              3199.5749              3202.2604
 Red. masses --      1.0902                 1.0928                 1.0924
 Frc consts  --      6.5365                 6.5917                 6.5999
 IR Inten    --     13.2872                11.2224                 4.2128

                     70                     71                     72
                      A                      A                      A
 Frequencies --   3205.2491              3584.6654              3692.8757
 Red. masses --      1.0953                 1.0466                 1.1032
 Frc consts  --      6.6298                 7.9241                 8.8643
 IR Inten    --     21.2396               199.6493                63.7857

 - Thermochemistry -
 -------------------
 Temperature   298.150 Kelvin.  Pressure   1.00000 Atm.
 Atom     1 has atomic number  7 and mass  14.00307

 Molecular mass:   223.06333 amu.
 Principal axes and moments of inertia in atomic units:
                           1         2         3
     Eigenvalues --  1707.923765348.430237055.72297
           X            0.98097   0.03625  -0.19074
           Y            0.19293  -0.07165   0.97859
           Z           -0.02181   0.99677   0.07728
 This molecule is an asymmetric top.
 Rotational symmetry number  1.
 Warning -- assumption of classical behavior for rotation
           may cause significant error
 Rotational temperatures (Kelvin)      0.05071     0.01619     0.01228
 Rotational constants (GHZ):           1.05669     0.33743     0.25578
 Zero-point vibrational energy     512916.7 (Joules/Mol)
                                  122.59004 (Kcal/Mol)
 Warning -- explicit consideration of  20 degrees of freedom as
           vibrations may cause significant error
 Vibrational temperatures:     49.95   124.61   160.30   205.23   276.49
          (Kelvin)            284.44   401.66   406.11   462.08   484.45
                              556.18   570.05   593.25   603.30   634.09
                              642.17   657.93   685.52   804.45   847.65
                              932.46   969.13   974.11  1007.49  1038.57
                             1055.71  1096.10  1145.29  1166.80  1225.87
                             1248.01  1300.11  1316.35  1349.82  1428.93
                             1434.92  1440.42  1471.18  1519.49  1545.62
                             1596.21  1617.59  1682.43  1698.12  1720.48
                             1778.16  1824.45  1860.86  1895.11  1943.86
                             1950.07  1987.20  2122.81  2137.41  2160.37
                             2196.15  2281.91  2304.92  2323.27  2339.29
                             2377.42  2411.16  2444.53  4566.40  4571.00
                             4589.09  4589.64  4603.47  4607.34  4611.64
                             5157.53  5313.22

 Zero-point correction=                           0.195360 (Hartree/Particle)
 Thermal correction to Energy=                    0.208238
 Thermal correction to Enthalpy=                  0.209182
 Thermal correction to Gibbs Free Energy=         0.155913
 Sum of electronic and zero-point Energies=           -744.153585
 Sum of electronic and thermal Energies=              -744.140707
 Sum of electronic and thermal Enthalpies=            -744.139763
 Sum of electronic and thermal Free Energies=         -744.193032

                     E (Thermal)             CV                S
                      KCal/Mol        Cal/Mol-Kelvin    Cal/Mol-Kelvin
 Total                  130.671             52.065            112.114
 Electronic               0.000              0.000              0.000
 Translational            0.889              2.981             42.109
 Rotational               0.889              2.981             32.533
 Vibrational            128.894             46.103             37.472
 Vibration     1          0.594              1.983              5.540
 Vibration     2          0.601              1.959              3.735
 Vibration     3          0.607              1.940              3.244
 Vibration     4          0.616              1.911              2.768
 Vibration     5          0.634              1.851              2.207
 Vibration     6          0.637              1.843              2.154
 Vibration     7          0.679              1.712              1.539
 Vibration     8          0.681              1.706              1.520
 Vibration     9          0.707              1.633              1.304
 Vibration    10          0.717              1.602              1.228
 Vibration    11          0.755              1.499              1.013
 Vibration    12          0.763              1.478              0.977
 Vibration    13          0.776              1.443              0.918
 Vibration    14          0.782              1.428              0.894
 Vibration    15          0.801              1.381              0.824
 Vibration    16          0.806              1.369              0.807
 Vibration    17          0.815              1.345              0.774
 Vibration    18          0.833              1.302              0.720
 Vibration    19          0.915              1.120              0.526
 Vibration    20          0.946              1.055              0.469

 Optimization completed.
    -- Stationary point found.
 Normal termination of Gaussian 16 at Sat Feb 10 16:46:35 2024.
