 Gaussian 16, Revision A.03,
 Gaussian 16:  ES64L-G16RevA.03 25-Dec-2016

 ----------------------------------------------------------------
 #P UB3LYP/6-311++G(d,p) SCRF=(PCM,Solvent=n,n-DiMethylFormamide)
 ----------------------------------------------------------------

 ------------------
 Radical PCM in DMF
 ------------------
 Symbolic Z-matrix:
 Charge = -1 Multiplicity = 2

                         Standard orientation:
 ---------------------------------------------------------------------
 Center     Atomic      Atomic             Coordinates (Angstroms)
 Number     Number       Type             X           Y           Z
 ---------------------------------------------------------------------
      1          6           0       -5.267406    0.133448   -0.882870
      2          6           0       -5.914288   -1.086496   -0.950957
      3          6           0       -5.269226   -2.253710   -0.494205
      4          6           0       -3.960125    0.230892   -0.358722
      5          6           0       -3.306406   -0.947639    0.102981
      6          6           0       -3.986013   -2.175599    0.022518
      7          6           0       -3.283682    1.508640   -0.287577
      8          6           0       -1.948280    1.507045    0.263766
      9          6           0       -1.289488    0.387498    0.726367
     10          6           0       -1.937339   -0.904821    0.659867
     11          8           0       -3.773790    2.621534   -0.671002
     12          8           0       -1.368402   -1.954227    1.059604
     13          1           0       -5.742730    1.044893   -1.227646
     14          1           0       -6.920148   -1.146585   -1.356672
     15          1           0       -5.778040   -3.211604   -0.548031
     16          1           0       -3.465656   -3.056986    0.380068
     17          8           0       -1.372715    2.744414    0.296250
     18          6           0        0.106685    0.468787    1.287319
     19          6           0        1.200275    0.181231    0.240423
     20          6           0        2.617419    0.229530    0.821860
     21          6           0        3.716664   -0.054688   -0.208323
     22          6           0        5.135570   -0.009606    0.370929
     23          1           0       -2.083511    3.307362   -0.083322
     24          1           0        0.195425   -0.270011    2.090361
     25          1           0        0.272697    1.463156    1.714486
     26          1           0        1.114210    0.908708   -0.575708
     27          1           0        1.014147   -0.807679   -0.191903
     28          1           0        2.694555   -0.497586    1.641281
     29          1           0        2.792168    1.216477    1.272170
     30          1           0        3.638524    0.670943   -1.028780
     31          1           0        3.541223   -1.040515   -0.658360
     32          1           0        5.213512   -0.735498    1.191229
     33          1           0        5.310594    0.976389    0.821866
     34          6           0        6.234403   -0.294272   -0.659282
     35          1           0        6.157685    0.431236   -1.480124
     36          1           0        6.060338   -1.280083   -1.110635
     37          6           0        7.653305   -0.250056   -0.080560
     38          6           0        8.743503   -0.535915   -1.118221
     39          1           0        7.730855   -0.975501    0.738786
     40          1           0        7.828170    0.734944    0.369889
     41          1           0        8.615415   -1.528714   -1.561882
     42          1           0        9.742976   -0.496939   -0.674070
     43          1           0        8.713412    0.194197   -1.933683
 ---------------------------------------------------------------------

 SCF Done:  E(UB3LYP) =  -925.267387708     A.U. after   20 cycles

 The electronic state is 2-A.
 Alpha  occ. eigenvalues --  -19.14246 -19.08506 -19.07300 -10.22207 -10.22027
 Alpha  occ. eigenvalues --  -10.21975 -10.17393 -10.17248 -10.17171 -10.17135
 Alpha  occ. eigenvalues --  -10.17056 -10.16904 -10.16132 -10.16053 -10.15792
 Alpha  occ. eigenvalues --  -10.15764 -10.15724 -10.15718 -10.15647 -10.15588
 Alpha  occ. eigenvalues --  -10.15436  -1.06238  -0.99844  -0.99486  -0.85786
 Alpha  occ. eigenvalues --   -0.81376  -0.80345  -0.78252  -0.75769  -0.75034
 Alpha  occ. eigenvalues --   -0.73067  -0.69700  -0.66987  -0.64367  -0.61764
 Alpha  occ. eigenvalues --   -0.60401  -0.58100  -0.57308  -0.57056  -0.56661
 Alpha  occ. eigenvalues --   -0.53599  -0.50359  -0.48441  -0.47881  -0.46358
 Alpha  occ. eigenvalues --   -0.45367  -0.45118  -0.43663  -0.43076  -0.42641
 Alpha  occ. eigenvalues --   -0.42444  -0.41601  -0.41492  -0.40651  -0.39843
 Alpha  occ. eigenvalues --   -0.38906  -0.38534  -0.38368  -0.37676  -0.36759
 Alpha  occ. eigenvalues --   -0.36044  -0.35235  -0.34864  -0.34317  -0.34234
 Alpha  occ. eigenvalues --   -0.33639  -0.32830  -0.32785  -0.32080  -0.31858
 Alpha  occ. eigenvalues --   -0.31687  -0.30399  -0.26639  -0.25890  -0.25726
 Alpha  occ. eigenvalues --   -0.23822  -0.22667  -0.15000
 Alpha virt. eigenvalues --   -0.03224  -0.00777  -0.00438  -0.00093   0.00598
 Alpha virt. eigenvalues --    0.00903   0.01092   0.01576   0.01868   0.02499
 Alpha virt. eigenvalues --    0.02810   0.03418   0.03913   0.04275   0.04588

  Beta  occ. eigenvalues --  -19.14199 -19.07879 -19.06768 -10.22074 -10.21925
  Beta  occ. eigenvalues --  -10.21690 -10.17377 -10.17244 -10.17062 -10.17046
  Beta  occ. eigenvalues --  -10.17006 -10.16929 -10.16053 -10.16052 -10.15792
  Beta  occ. eigenvalues --  -10.15764 -10.15731 -10.15717 -10.15646 -10.15580
  Beta  occ. eigenvalues --  -10.15436  -1.06024  -0.98915  -0.98423  -0.85551
  Beta  occ. eigenvalues --   -0.81214  -0.80205  -0.78125  -0.75631  -0.74824
  Beta  occ. eigenvalues --   -0.72983  -0.69523  -0.66309  -0.64189  -0.61606
  Beta  occ. eigenvalues --   -0.60231  -0.57983  -0.57305  -0.56978  -0.56468
  Beta  occ. eigenvalues --   -0.53425  -0.50130  -0.48293  -0.47748  -0.46236
  Beta  occ. eigenvalues --   -0.45299  -0.45035  -0.43197  -0.42617  -0.42550
  Beta  occ. eigenvalues --   -0.42373  -0.41174  -0.41100  -0.40412  -0.39654
  Beta  occ. eigenvalues --   -0.38472  -0.38331  -0.37695  -0.37449  -0.36309
  Beta  occ. eigenvalues --   -0.35525  -0.35196  -0.34253  -0.34164  -0.33525
  Beta  occ. eigenvalues --   -0.32918  -0.32765  -0.32544  -0.32067  -0.31837
  Beta  occ. eigenvalues --   -0.31643  -0.30321  -0.25339  -0.25020  -0.24674
  Beta  occ. eigenvalues --   -0.23319  -0.21771
  Beta virt. eigenvalues --   -0.08470  -0.02470  -0.00463  -0.00085   0.00326
  Beta virt. eigenvalues --    0.00639   0.00915   0.01098   0.01585   0.01874
  Beta virt. eigenvalues --    0.02512   0.02818   0.03433   0.03934   0.04279

 Mulliken charges and spin densities:
               1          2
     1  C    0.040783   0.074211
     2  C   -0.376631  -0.001113
     3  C   -0.452250   0.072701
     4  C    0.504887  -0.002861
     5  C   -0.089367   0.062024
     6  C    0.087252   0.002554
     7  C   -0.937511   0.166525
     8  C   -0.596803   0.058469
     9  C    2.037248   0.053940
    10  C   -0.734213   0.074614
    11  O   -0.524774   0.229527
    12  O   -0.455188   0.197846
    13  H    0.165759  -0.004068
    14  H    0.182694  -0.000635
    15  H    0.178102  -0.005188
    16  H    0.167023  -0.000280
    17  O   -0.285166   0.015915
    18  C   -0.393651   0.011142
    19  C   -0.718453  -0.001901
    20  C   -0.119082   0.002049
    21  C    0.016673  -0.003706
    22  C   -0.128807  -0.000581
    23  H    0.290111  -0.003665
    24  H    0.199408   0.002557
    25  H    0.214516  -0.000558
    26  H    0.165301   0.002023
    27  H    0.176647  -0.001763
    28  H    0.113714   0.000522
    29  H    0.111166  -0.000360
    30  H    0.124194  -0.000006
    31  H    0.124029  -0.000027
    32  H    0.128619  -0.000004
    33  H    0.127971  -0.000008
    34  C   -0.341480   0.000003
    35  H    0.123862  -0.000006
    36  H    0.123736   0.000002
    37  C   -0.250102   0.000120
    38  C   -0.687754  -0.000006
    39  H    0.130779   0.000006
    40  H    0.130764  -0.000009
    41  H    0.140199   0.000002
    42  H    0.145751  -0.000003
    43  H    0.140045  -0.000001
 Sum of Mulliken charges =  -1.00000   1.00000

 Dipole moment (field-independent basis, Debye):
    X=             11.3662    Y=             -1.5904    Z=             -1.3039  Tot=             11.5507
 Quadrupole moment (field-independent basis, Debye-Ang):
   XX=           -168.6100   YY=           -155.1633   ZZ=           -138.8457
   XY=             14.6697   XZ=              0.1547   YZ=              6.8818

 Normal termination of Gaussian 16 at Sun Jan 21 08:43:53 2024.
