 Q-Chem 5.4, Q-Chem, Inc., Pleasanton, CA (2021)
 Q-Chem 5.4.0 for Intel X86 EM64T Linux

User input:
--------------------------------------------------------------
$molecule
-1 2
C                 -2.0186010000     -5.4460730000      0.9035170000
C                 -0.8315310000     -5.6215260000      0.1112840000
C                 -0.1168260000     -4.5714310000     -0.4177340000
C                 -0.6048410000     -3.1916730000     -0.2669770000
C                 -2.4855120000     -4.0590000000      1.0945840000
C                 -1.8161090000     -3.0188070000      0.4928510000
O                 -2.6793800000     -6.3902280000      1.4098910000
O                  0.0303580000     -2.2529890000     -0.8142430000
N                 -3.6835060000     -3.9906170000      1.8268330000
N                  1.0399500000     -4.6760330000     -1.2079000000
C                 -3.8521150000     -3.2051830000      3.0718380000
C                 -2.5618250000     -2.8179530000      3.8000740000
C                 -4.8046840000     -1.9990890000      2.9064200000
C                  2.2559900000     -5.3208150000     -0.6784080000
C                  3.2392380000     -4.3063900000     -0.0793820000
C                  2.9588140000     -6.1925440000     -1.7390780000
N                 -5.5572600000     -2.0285610000      1.7793950000
N                  2.2643640000     -6.3525470000     -2.8903470000
C                  2.6918780000     -7.2345770000     -3.9549340000
C                 -6.4250000000     -0.9339790000      1.3988930000
O                 -4.9237240000     -1.1524740000      3.7866700000
O                  4.0574780000     -6.6976650000     -1.5239650000
Cl                -0.3550030000     -7.2942430000     -0.2078780000
Cl                -2.4303360000     -1.3659080000      0.5826540000
H                 -3.9280480000     -4.9665310000      1.9957890000
H                  1.2407340000     -3.7220570000     -1.5147570000
H                 -4.4117630000     -3.8666540000      3.7456470000
H                 -2.8170020000     -2.2963820000      4.7232490000
H                 -1.9406930000     -2.1568490000      3.1964040000
H                 -1.9872180000     -3.7158510000      4.0389050000
H                  1.9590500000     -6.0221740000      0.1029790000
H                  2.7693030000     -3.7776870000      0.7525300000
H                  3.5363380000     -3.5654600000     -0.8285310000
H                  4.1373110000     -4.8160820000      0.2724130000
H                 -5.2391740000     -2.6945950000      1.0852480000
H                  1.3400280000     -5.9362350000     -2.8875250000
H                  3.7564690000     -7.4322900000     -3.8292990000
H                  2.5240850000     -6.7657260000     -4.9284610000
H                  2.1562480000     -8.1909400000     -3.9297600000
H                 -7.2853600000     -1.3150350000      0.8429680000
H                 -5.9022380000     -0.1967070000      0.7773650000
H                 -6.7727980000     -0.4346500000      2.3032380000
$end
$rem
MAX_SCF_CYCLES=200
BASIS  =  6-311++G(d,p)
GUI  =  2
JOB_TYPE  =  SP
METHOD  =  B3LYP
SOLVENT_METHOD = COSMO
$end
$solvent
dielectric 37.219
opticaldielectric 1.43
$end

--------------------------------------------------------------

             Standard Nuclear Orientation (Angstroms)
    I     Atom           X                Y                Z
 ----------------------------------------------------------------
    1      C       0.3285400313    -1.6136382347     0.0318603554
    2      C      -1.0134280950    -1.1009569475     0.0937595665
    3      C      -1.3046614721     0.2425823928     0.1524788246
    4      C      -0.2208113785     1.2326850007     0.2503780194
    5      C       1.4180101891    -0.6192553796     0.0842196941
    6      C       1.1236720410     0.7166524626     0.2287871476
    7      O       0.6180955161    -2.8366634918    -0.0377027129
    8      O      -0.5119883163     2.4514642128     0.3682708497
    9      N       2.6910961292    -1.2153244565     0.0813384453
   10      N      -2.5895640696     0.8055304023     0.2269734790
   11      C       3.7493900787    -0.9086539294    -0.9092876787
   12      C       3.2796955483    -0.2513199635    -2.2102189352
   13      C       4.9619255828    -0.1715338976    -0.2962417904
   14      C      -3.5751743737     0.5731801374    -0.8451480486
   15      C      -3.5768939621     1.6984463039    -1.8884313066
   16      C      -4.9962132227     0.3509838980    -0.2882178067
   17      N       5.0100759387    -0.1998962780     1.0581221576
   18      N      -5.0641966747     0.2361971295     1.0591812882
   19      C      -6.2827062886    -0.1014774597     1.7629573991
   20      C       6.0087771906     0.5273384020     1.8128338668
   21      O       5.8462060902     0.3027979965    -1.0025170773
   22      O      -5.9695616797     0.2775190061    -1.0336566729
   23      Cl     -2.3016635307    -2.3109365085     0.1514172046
   24      Cl      2.4035057719     1.9146748366     0.4389834915
   25      H       2.4970466982    -2.2168701972     0.0837885028
   26      H      -2.4348993434     1.8062542076     0.3654521044
   27      H       4.1699984801    -1.8856662124    -1.1800346226
   28      H       4.1348471698    -0.1284513374    -2.8758184355
   29      H       2.8439352043     0.7312257657    -2.0313398086
   30      H       2.5315196638    -0.8824574478    -2.6953298412
   31      H      -3.3241035192    -0.3644125485    -1.3436727076
   32      H      -2.5965597386     1.7674332970    -2.3644869203
   33      H      -3.7950084325     2.6627432057    -1.4182957281
   34      H      -4.3382019004     1.5073799412    -2.6460490455
   35      H       4.1431884927    -0.4850840884     1.4983426921
   36      H      -4.1662146407     0.2428554572     1.5296115371
   37      H      -7.1269382398     0.1065724743     1.1055258677
   38      H      -6.3763677900     0.4990055903     2.6720108632
   39      H      -6.3115420142    -1.1621308074     2.0392659077
   40      H       6.2327263324    -0.0013683234     2.7427755805
   41      H       5.6752649034     1.5434452007     2.0566446404
   42      H       6.9153672125     0.5992881601     1.2119590523
 ----------------------------------------------------------------

    8   -1985.0971789163      9.95e-06  Convergence criterion met
 Total energy in the final basis set =    -1985.0971789163
    4   -1985.1845975212      6.05e-06  Convergence criterion met
 Total energy in the final basis set =    -1985.1845975212

                    Orbital Energies (a.u.)
 --------------------------------------------------------------

 Alpha MOs
 -- Occupied --
********-101.5513 -19.0954 -19.0951 -19.0951 -19.0946 -14.3354 -14.3322
-14.3265 -14.3255 -10.2732 -10.2722 -10.2432 -10.2429 -10.2239 -10.2235
-10.2232 -10.2229 -10.2196 -10.2182 -10.1940 -10.1932 -10.1619 -10.1588
 -9.4669  -9.4662  -7.2313  -7.2305  -7.2220  -7.2213  -7.2213  -7.2205
 -1.0455  -1.0454  -1.0280  -1.0241  -0.9429  -0.9393  -0.9188  -0.9170
 -0.8715  -0.8609  -0.8080  -0.7777  -0.7570  -0.7113  -0.7109  -0.7070
 -0.6858  -0.6441  -0.6322  -0.5949  -0.5865  -0.5755  -0.5670  -0.5463
 -0.5198  -0.5196  -0.5057  -0.4898  -0.4860  -0.4725  -0.4606  -0.4517
 -0.4485  -0.4454  -0.4422  -0.4383  -0.4322  -0.4301  -0.4282  -0.4247
 -0.4090  -0.4035  -0.3996  -0.3930  -0.3903  -0.3882  -0.3874  -0.3802
 -0.3722  -0.3699  -0.3629  -0.3561  -0.3496  -0.3397  -0.3217  -0.3165
 -0.3144  -0.3118  -0.2747  -0.2722  -0.2669  -0.2632  -0.2614  -0.2589
 -0.2456  -0.2184  -0.1677

 Beta MOs
 -- Occupied --
********-101.5513 -19.0954 -19.0951 -19.0893 -19.0886 -14.3353 -14.3322
-14.3257 -14.3247 -10.2732 -10.2722 -10.2413 -10.2410 -10.2236 -10.2234
-10.2216 -10.2213 -10.2195 -10.2181 -10.1940 -10.1932 -10.1619 -10.1588
 -9.4669  -9.4662  -7.2314  -7.2306  -7.2220  -7.2213  -7.2213  -7.2205
 -1.0454  -1.0453  -1.0183  -1.0139  -0.9408  -0.9371  -0.9180  -0.9162
 -0.8702  -0.8603  -0.8045  -0.7760  -0.7560  -0.7113  -0.7106  -0.7058
 -0.6770  -0.6434  -0.6310  -0.5915  -0.5843  -0.5750  -0.5660  -0.5447
 -0.5186  -0.5183  -0.5033  -0.4883  -0.4851  -0.4717  -0.4598  -0.4513
 -0.4471  -0.4424  -0.4375  -0.4357  -0.4314  -0.4288  -0.4230  -0.4193
 -0.4071  -0.4019  -0.3924  -0.3901  -0.3881  -0.3878  -0.3815  -0.3758
 -0.3708  -0.3695  -0.3586  -0.3551  -0.3487  -0.3315  -0.3191  -0.3150
 -0.3067  -0.3049  -0.2683  -0.2664  -0.2656  -0.2606  -0.2595  -0.2565
 -0.2348  -0.2125

          Ground-State Mulliken Net Atomic Charges

     Atom                 Charge (a.u.)    Spin (a.u.)
  --------------------------------------------------------
      1 C                    -0.628280       0.133976
      2 C                     0.115646      -0.029628
      3 C                    -0.184561       0.154972
      4 C                    -0.568440       0.126865
      5 C                    -0.298620       0.135506
      6 C                     0.041245      -0.035326
      7 O                    -0.443925       0.210562
      8 O                    -0.439736       0.217223
      9 N                    -0.103723       0.036137
     10 N                     0.093800       0.033469
     11 C                     0.314327       0.002565
     12 C                    -0.598006      -0.000345
     13 C                    -0.375226       0.003414
     14 C                     0.099946       0.005428
     15 C                    -0.648257       0.000376
     16 C                    -0.139348       0.000952
     17 N                    -0.169281      -0.000444
     18 N                    -0.256183      -0.000922
     19 C                    -0.312296      -0.000506
     20 C                    -0.348395      -0.000407
     21 O                    -0.463192       0.000070
     22 O                    -0.486516      -0.000116
     23 Cl                    0.427352       0.001987
     24 Cl                    0.512187       0.003274
     25 H                     0.309729      -0.002728
     26 H                     0.285863      -0.002571
     27 H                     0.254869       0.000208
     28 H                     0.187894      -0.000185
     29 H                     0.130490       0.000854
     30 H                     0.177944       0.000153
     31 H                     0.178375       0.001419
     32 H                     0.184188      -0.000588
     33 H                     0.182121       0.000104
     34 H                     0.177848       0.000908
     35 H                     0.372845       0.001516
     36 H                     0.374546       0.001626
     37 H                     0.177500       0.000099
     38 H                     0.170451       0.000028
     39 H                     0.179381      -0.000046
     40 H                     0.168935       0.000052
     41 H                     0.178618      -0.000032
     42 H                     0.167855       0.000099
  --------------------------------------------------------
  Sum of atomic charges =    -1.000030

                    Cartesian Multipole Moments
 -----------------------------------------------------------------
    Charge (ESU x 10^10)
                -4.8034
    Dipole Moment (Debye)
         X      -0.1271      Y      -0.4358      Z       4.5806
       Tot       4.6030
    Quadrupole Moments (Debye-Ang)
        XX    -229.3474     XY      -9.2707     YY    -194.3232
        XZ      -2.7504     YZ       0.3041     ZZ    -154.7258

 Total job time:  169.15s(wall), 1261.89s(cpu)
        *  Thank you very much for using Q-Chem.  Have a nice day.  *
