 Q-Chem 5.4, Q-Chem, Inc., Pleasanton, CA (2021)
 Q-Chem 5.4.0 for Intel X86 EM64T Linux

User input:
--------------------------------------------------------------
$molecule
-2 1
C                 -1.7894770000      2.7982670000     -0.7363230000
C                 -2.9009600000      2.0042240000     -0.5225050000
C                 -2.7325970000      0.6324350000     -0.1747330000
C                 -0.4640430000      2.3129230000     -0.6147360000
C                 -0.3026750000      0.9276690000     -0.1858950000
C                 -1.4601330000      0.1204860000     -0.0179900000
C                  0.6542900000      3.2037620000     -0.8905600000
C                  2.0312630000      2.6358990000     -0.7068030000
C                  2.1038900000      1.2704800000     -0.2576470000
C                  1.0063570000      0.4600130000      0.0007470000
O                  0.4809500000      4.4025170000     -1.2668260000
O                  3.0770330000      3.3242810000     -0.9149960000
H                 -1.8945500000      3.8422480000     -1.0177260000
H                 -3.9022210000      2.4164650000     -0.6363130000
H                 -3.6019980000     -0.0099800000     -0.0404550000
H                 -1.3203490000     -0.9231660000      0.2497970000
H                  3.1069780000      0.8878200000     -0.0640540000
O                  1.1898400000     -0.8734060000      0.4265620000
H                  2.0003500000     -1.1945670000      0.0058920000
$end

$rem
BASIS  =  6-311++G(d,p)
GUI  =  2
JOB_TYPE  =  SP
METHOD  =  B3LYP
SCF_CONVERGENCE  = 8
SOLVENT_METHOD = sm12
$end

$smx
solvent dimethylformamide
charges CM5
$end

--------------------------------------------------------------

             Standard Nuclear Orientation (Angstroms)
    I     Atom           X                Y                Z
 ----------------------------------------------------------------
    1      C      -1.7894770000     2.7982670000    -0.7363230000
    2      C      -2.9009600000     2.0042240000    -0.5225050000
    3      C      -2.7325970000     0.6324350000    -0.1747330000
    4      C      -0.4640430000     2.3129230000    -0.6147360000
    5      C      -0.3026750000     0.9276690000    -0.1858950000
    6      C      -1.4601330000     0.1204860000    -0.0179900000
    7      C       0.6542900000     3.2037620000    -0.8905600000
    8      C       2.0312630000     2.6358990000    -0.7068030000
    9      C       2.1038900000     1.2704800000    -0.2576470000
   10      C       1.0063570000     0.4600130000     0.0007470000
   11      O       0.4809500000     4.4025170000    -1.2668260000
   12      O       3.0770330000     3.3242810000    -0.9149960000
   13      H      -1.8945500000     3.8422480000    -1.0177260000
   14      H      -3.9022210000     2.4164650000    -0.6363130000
   15      H      -3.6019980000    -0.0099800000    -0.0404550000
   16      H      -1.3203490000    -0.9231660000     0.2497970000
   17      H       3.1069780000     0.8878200000    -0.0640540000
   18      O       1.1898400000    -0.8734060000     0.4265620000
   19      H       2.0003500000    -1.1945670000     0.0058920000
 ----------------------------------------------------------------

   18    -610.4569945378      8.36e-09  Convergence criterion met
 Total energy in the final basis set =     -610.7602424369

                    Orbital Energies (a.u.)
 --------------------------------------------------------------

 Alpha MOs
 -- Occupied --
-19.1414 -19.0282 -19.0256 -10.2015 -10.1858 -10.1806 -10.1760 -10.1719
-10.1704 -10.1681 -10.1587 -10.1474 -10.1424  -1.0378  -0.9580  -0.9315
 -0.8459  -0.7832  -0.7454  -0.7112  -0.6601  -0.6100  -0.5800  -0.5685
 -0.5125  -0.4940  -0.4872  -0.4383  -0.4315  -0.4229  -0.4055  -0.4033
 -0.3795  -0.3704  -0.3621  -0.3533  -0.3449  -0.3298  -0.3266  -0.2931
 -0.2686  -0.2469  -0.2130  -0.2020  -0.1849  -0.1200

          Ground-State Mulliken Net Atomic Charges

     Atom                 Charge (a.u.)
  ----------------------------------------
      1 C                    -0.794932
      2 C                     1.080920
      3 C                     1.280242
      4 C                    -3.847926
      5 C                     0.170819
      6 C                     1.322311
      7 C                    -1.973545
      8 C                    -1.749642
      9 C                     0.605010
     10 C                     1.237410
     11 O                    -0.406905
     12 O                    -0.394973
     13 H                     0.055123
     14 H                     0.324160
     15 H                     0.404682
     16 H                     0.216729
     17 H                     0.127859
     18 O                    -0.015725
     19 H                     0.358383
  ----------------------------------------
  Sum of atomic charges =    -2.000000

                    Cartesian Multipole Moments
 -----------------------------------------------------------------
    Charge (ESU x 10^10)
                -9.6064
    Dipole Moment (Debye)
         X      -6.2408      Y     -26.4017      Z       6.4950
       Tot      27.8960
    Quadrupole Moments (Debye-Ang)
        XX    -127.3237     XY     -32.5102     YY    -183.2921
        XZ       7.6411     YZ      28.1124     ZZ     -96.3511

 Total job time:  324.75s(wall), 2198.66s(cpu)
        *  Thank you very much for using Q-Chem.  Have a nice day.  *
