 Q-Chem 5.4, Q-Chem, Inc., Pleasanton, CA (2021)
 Q-Chem 5.4.0 for Intel X86 EM64T Linux

User input:
--------------------------------------------------------------
$molecule
-2 1
O                 -5.6016130000      1.1624810000     -1.3802980000
S                 -5.4059070000      0.6310390000     -0.0069720000
O                 -5.3483190000      1.6711030000      1.0479670000
O                 -6.2736030000     -0.5318370000      0.3184300000
C                 -3.7144660000     -0.0784650000     -0.0491230000
C                 -3.5536910000     -1.4474210000     -0.2762210000
C                 -2.2802080000     -1.9962330000     -0.3559380000
C                 -1.1466070000     -1.1898360000     -0.2105320000
C                  0.2010270000     -1.8115510000     -0.2999750000
O                  0.3348130000     -3.0152550000     -0.5060510000
C                  1.3807180000     -0.9230370000     -0.1282450000
C                  2.6645070000     -1.4742500000     -0.1950360000
C                  3.7877060000     -0.6724190000     -0.0374140000
C                  3.6444600000      0.6983690000      0.1902590000
C                  2.3717360000      1.2604850000      0.2627630000
C                  1.2351420000      0.4603430000      0.1036800000
C                 -0.1208530000      1.0865930000      0.1891450000
O                 -0.2537950000      2.2839360000      0.3894500000
C                 -1.3080150000      0.1918580000      0.0208880000
C                 -2.5943480000      0.7362400000      0.1011780000
S                  5.1443610000      1.7448390000      0.3364650000
O                  5.3086360000      2.3207710000     -1.0229630000
O                  4.8057700000      2.7381130000      1.3837230000
O                  6.2143810000      0.7852950000      0.7178270000
H                 -4.4408170000     -2.0620100000     -0.3714100000
H                 -2.1365040000     -3.0563710000     -0.5280470000
H                  2.7564070000     -2.5398450000     -0.3688750000
H                  4.7878060000     -1.0876350000     -0.0714370000
H                  2.2526030000      2.3193710000      0.4540830000
H                 -2.7113260000      1.7953280000      0.2926770000
$end
$rem
MAX_SCF_CYCLES=200
BASIS  =  6-311++G(d,p)
GUI  =  2
JOB_TYPE  =  SP
METHOD  =  B3LYP
SOLVENT_METHOD = PCM
$end
$pcm
theory = CPCM
$end
$solvent
dielectric 37.219
opticaldielectric 1.43
$end

--------------------------------------------------------------

             Standard Nuclear Orientation (Angstroms)
    I     Atom           X                Y                Z
 ----------------------------------------------------------------
    1      O      -5.6016130000     1.1624810000    -1.3802980000
    2      S      -5.4059070000     0.6310390000    -0.0069720000
    3      O      -5.3483190000     1.6711030000     1.0479670000
    4      O      -6.2736030000    -0.5318370000     0.3184300000
    5      C      -3.7144660000    -0.0784650000    -0.0491230000
    6      C      -3.5536910000    -1.4474210000    -0.2762210000
    7      C      -2.2802080000    -1.9962330000    -0.3559380000
    8      C      -1.1466070000    -1.1898360000    -0.2105320000
    9      C       0.2010270000    -1.8115510000    -0.2999750000
   10      O       0.3348130000    -3.0152550000    -0.5060510000
   11      C       1.3807180000    -0.9230370000    -0.1282450000
   12      C       2.6645070000    -1.4742500000    -0.1950360000
   13      C       3.7877060000    -0.6724190000    -0.0374140000
   14      C       3.6444600000     0.6983690000     0.1902590000
   15      C       2.3717360000     1.2604850000     0.2627630000
   16      C       1.2351420000     0.4603430000     0.1036800000
   17      C      -0.1208530000     1.0865930000     0.1891450000
   18      O      -0.2537950000     2.2839360000     0.3894500000
   19      C      -1.3080150000     0.1918580000     0.0208880000
   20      C      -2.5943480000     0.7362400000     0.1011780000
   21      S       5.1443610000     1.7448390000     0.3364650000
   22      O       5.3086360000     2.3207710000    -1.0229630000
   23      O       4.8057700000     2.7381130000     1.3837230000
   24      O       6.2143810000     0.7852950000     0.7178270000
   25      H      -4.4408170000    -2.0620100000    -0.3714100000
   26      H      -2.1365040000    -3.0563710000    -0.5280470000
   27      H       2.7564070000    -2.5398450000    -0.3688750000
   28      H       4.7878060000    -1.0876350000    -0.0714370000
   29      H       2.2526030000     2.3193710000     0.4540830000
   30      H      -2.7113260000     1.7953280000     0.2926770000
 ----------------------------------------------------------------

    9   -1935.9035131803      4.99e-06  Convergence criterion met
 Total energy in the final basis set =    -1935.9035131803

                    Orbital Energies (a.u.)
 --------------------------------------------------------------

 Alpha MOs
 -- Occupied --
-89.0527 -89.0527 -19.1322 -19.1313 -19.0981 -19.0980 -19.0973 -19.0973
-19.0970 -19.0970 -10.2853 -10.2841 -10.2155 -10.2155 -10.2117 -10.2117
-10.2096 -10.2096 -10.2020 -10.2020 -10.1994 -10.1994 -10.1981 -10.1981
 -8.1114  -8.1114  -6.0741  -6.0741  -6.0740  -6.0740  -6.0733  -6.0733
 -1.1171  -1.1171  -1.0662  -1.0618  -0.9820  -0.9819  -0.9799  -0.9799
 -0.8962  -0.8851  -0.8178  -0.7819  -0.7818  -0.7753  -0.6980  -0.6795
 -0.6606  -0.6258  -0.6105  -0.5946  -0.5865  -0.5505  -0.5421  -0.5116
 -0.5027  -0.5023  -0.4869  -0.4636  -0.4632  -0.4612  -0.4596  -0.4586
 -0.4539  -0.4535  -0.4493  -0.4484  -0.4476  -0.4206  -0.4189  -0.4073
 -0.3966  -0.3757  -0.3752  -0.3696  -0.3421  -0.3420  -0.3415  -0.3414
 -0.3179  -0.3171  -0.3044  -0.3043  -0.2992  -0.2980  -0.2878  -0.2839
 -0.2797  -0.2755  -0.2727  -0.2677  -0.2631  -0.2630

          Ground-State Mulliken Net Atomic Charges

     Atom                 Charge (a.u.)
  ----------------------------------------
      1 O                    -0.360780
      2 S                     0.789224
      3 O                    -0.398139
      4 O                    -0.408401
      5 C                    -0.825961
      6 C                    -0.352404
      7 C                     0.062659
      8 C                     0.484932
      9 C                    -0.230535
     10 O                    -0.279247
     11 C                     0.490892
     12 C                     0.066977
     13 C                    -0.350086
     14 C                    -0.833896
     15 C                    -0.159664
     16 C                     0.267817
     17 C                    -0.777016
     18 O                    -0.266981
     19 C                     0.274057
     20 C                    -0.152030
     21 S                     0.790203
     22 O                    -0.360465
     23 O                    -0.398451
     24 O                    -0.408727
     25 H                     0.251938
     26 H                     0.200458
     27 H                     0.200495
     28 H                     0.252221
     29 H                     0.215640
     30 H                     0.215236
  ----------------------------------------
  Sum of atomic charges =    -2.000035

                    Cartesian Multipole Moments
 -----------------------------------------------------------------
    Charge (ESU x 10^10)
                -9.6066
    Dipole Moment (Debye)
         X       1.6902      Y     -15.4121      Z      -1.8434
       Tot      15.6137
    Quadrupole Moments (Debye-Ang)
        XX    -464.7154     XY     -27.8003     YY    -203.0585
        XZ      -9.0661     YZ      -5.0470     ZZ    -173.4526

 Total job time:  83.60s(wall), 599.99s(cpu)
        *  Thank you very much for using Q-Chem.  Have a nice day.  *
