 Gaussian 16, Revision A.03,
 Gaussian 16:  ES64L-G16RevA.03 25-Dec-2016

 ----------------------------------------------------------------
 #P UB3LYP/6-311++G(d,p) SCRF=(PCM,Solvent=n,n-DiMethylFormamide)
 ----------------------------------------------------------------

 ------------------
 Quinone PCM in DMF
 ------------------
 Symbolic Z-matrix:
 Charge = -2 Multiplicity = 1

                         Standard orientation:
 ---------------------------------------------------------------------
 Center     Atomic      Atomic             Coordinates (Angstroms)
 Number     Number       Type             X           Y           Z
 ---------------------------------------------------------------------
      1          8           0       -5.490414   -1.199412    1.451047
      2         16           0       -5.307224   -0.869503    0.014260
      3          8           0       -5.106713   -2.048216   -0.862312
      4          8           0       -6.281171    0.127458   -0.503967
      5          6           0       -3.701828    0.017569   -0.029904
      6          6           0       -3.693024    1.414448   -0.019222
      7          6           0       -2.487411    2.104133   -0.007407
      8          6           0       -1.271342    1.413016   -0.006170
      9          6           0        0.000009    2.183854    0.004891
     10          8           0        0.000008    3.412279    0.020478
     11          6           0        1.271359    1.413032   -0.006191
     12          6           0        2.487381    2.104189   -0.007358
     13          6           0        3.693028    1.414528   -0.019065
     14          6           0        3.701858    0.017666   -0.029754
     15          6           0        2.498163   -0.683880   -0.032337
     16          6           0        1.279332    0.002894   -0.019128
     17          6           0        0.000018   -0.772689   -0.025676
     18          8           0        0.000004   -1.993880   -0.036555
     19          6           0       -1.279298    0.002890   -0.019120
     20          6           0       -2.498129   -0.683932   -0.032399
     21         16           0        5.307231   -0.869476    0.014248
     22          8           0        5.486964   -1.206091    1.449906
     23          8           0        5.108801   -2.044124   -0.868257
     24          8           0        6.282429    0.129807   -0.497149
     25          1           0       -4.642357    1.936233   -0.035956
     26          1           0       -2.461390    3.187399   -0.002548
     27          1           0        2.461283    3.187450   -0.002454
     28          1           0        4.642409    1.936225   -0.035515
     29          1           0        2.497054   -1.766227   -0.055981
     30          1           0       -2.497068   -1.766271   -0.056154
 ---------------------------------------------------------------------

 SCF Done:  E(UB3LYP) =  -1935.89481032     A.U. after   15 cycles

 The electronic state is 1-A.
 Alpha  occ. eigenvalues --  -89.04936 -89.04936 -19.13247 -19.13144 -19.09452
 Alpha  occ. eigenvalues --  -19.09451 -19.09373 -19.09373 -19.09354 -19.09353
 Alpha  occ. eigenvalues --  -10.28547 -10.28425 -10.21556 -10.21556 -10.21264
 Alpha  occ. eigenvalues --  -10.21264 -10.21057 -10.21057 -10.20292 -10.20290
 Alpha  occ. eigenvalues --  -10.20064 -10.20062 -10.19967 -10.19966  -8.10813
 Alpha  occ. eigenvalues --   -8.10813  -6.07077  -6.07076  -6.07070  -6.07070
 Alpha  occ. eigenvalues --   -6.07008  -6.07008  -1.11356  -1.11356  -1.06633
 Alpha  occ. eigenvalues --   -1.06185  -0.97822  -0.97821  -0.97617  -0.97615
 Alpha  occ. eigenvalues --   -0.89712  -0.88596  -0.81839  -0.78289  -0.78246
 Alpha  occ. eigenvalues --   -0.77630  -0.69832  -0.68006  -0.66040  -0.62658
 Alpha  occ. eigenvalues --   -0.60947  -0.59411  -0.58749  -0.55011  -0.54154
 Alpha  occ. eigenvalues --   -0.51084  -0.50237  -0.50041  -0.48793  -0.46261
 Alpha  occ. eigenvalues --   -0.46181  -0.45903  -0.45738  -0.45642  -0.45445
 Alpha  occ. eigenvalues --   -0.45316  -0.44977  -0.44717  -0.44580  -0.42109
 Alpha  occ. eigenvalues --   -0.41912  -0.40773  -0.39722  -0.37717  -0.37525
 Alpha  occ. eigenvalues --   -0.37084  -0.33805  -0.33800  -0.33747  -0.33735
 Alpha  occ. eigenvalues --   -0.31540  -0.31496  -0.30095  -0.30064  -0.29690
 Alpha  occ. eigenvalues --   -0.29529  -0.28750  -0.28415  -0.28085  -0.27534
 Alpha  occ. eigenvalues --   -0.27222  -0.26699  -0.25887  -0.25887
 Alpha virt. eigenvalues --   -0.12065  -0.07805  -0.04276  -0.02989  -0.00281
 Alpha virt. eigenvalues --    0.00668   0.01421   0.02259   0.02343   0.02659
 Alpha virt. eigenvalues --    0.03337   0.03986   0.04376   0.04521   0.04735

  Beta  occ. eigenvalues --  -89.04936 -89.04936 -19.13247 -19.13144 -19.09452
  Beta  occ. eigenvalues --  -19.09451 -19.09373 -19.09373 -19.09354 -19.09353
  Beta  occ. eigenvalues --  -10.28547 -10.28425 -10.21556 -10.21556 -10.21264
  Beta  occ. eigenvalues --  -10.21264 -10.21057 -10.21057 -10.20292 -10.20290
  Beta  occ. eigenvalues --  -10.20064 -10.20062 -10.19967 -10.19966  -8.10813
  Beta  occ. eigenvalues --   -8.10813  -6.07077  -6.07076  -6.07070  -6.07070
  Beta  occ. eigenvalues --   -6.07008  -6.07008  -1.11356  -1.11356  -1.06633
  Beta  occ. eigenvalues --   -1.06185  -0.97822  -0.97821  -0.97617  -0.97615
  Beta  occ. eigenvalues --   -0.89712  -0.88596  -0.81839  -0.78289  -0.78246
  Beta  occ. eigenvalues --   -0.77630  -0.69832  -0.68006  -0.66040  -0.62658
  Beta  occ. eigenvalues --   -0.60947  -0.59411  -0.58749  -0.55011  -0.54154
  Beta  occ. eigenvalues --   -0.51084  -0.50237  -0.50041  -0.48793  -0.46261
  Beta  occ. eigenvalues --   -0.46181  -0.45903  -0.45738  -0.45642  -0.45445
  Beta  occ. eigenvalues --   -0.45316  -0.44977  -0.44717  -0.44580  -0.42109
  Beta  occ. eigenvalues --   -0.41912  -0.40773  -0.39722  -0.37717  -0.37525
  Beta  occ. eigenvalues --   -0.37084  -0.33805  -0.33800  -0.33747  -0.33735
  Beta  occ. eigenvalues --   -0.31540  -0.31496  -0.30095  -0.30064  -0.29690
  Beta  occ. eigenvalues --   -0.29529  -0.28750  -0.28415  -0.28085  -0.27534
  Beta  occ. eigenvalues --   -0.27222  -0.26699  -0.25887  -0.25887
  Beta virt. eigenvalues --   -0.12065  -0.07805  -0.04276  -0.02989  -0.00281
  Beta virt. eigenvalues --    0.00668   0.01421   0.02259   0.02343   0.02659
  Beta virt. eigenvalues --    0.03337   0.03986   0.04376   0.04521   0.04735

 Mulliken charges and spin densities:
               1          2
     1  O   -0.345250  -0.000000
     2  S    0.772233  -0.000000
     3  O   -0.382986  -0.000000
     4  O   -0.395210  -0.000000
     5  C   -0.792982   0.000000
     6  C   -0.325050  -0.000000
     7  C    0.079757  -0.000000
     8  C    0.445975  -0.000000
     9  C   -0.300551  -0.000000
    10  O   -0.268071   0.000000
    11  C    0.445091   0.000000
    12  C    0.082478   0.000000
    13  C   -0.324006   0.000000
    14  C   -0.792962   0.000000
    15  C   -0.158167  -0.000000
    16  C    0.272564   0.000000
    17  C   -0.782634   0.000000
    18  O   -0.255530  -0.000000
    19  C    0.278024  -0.000000
    20  C   -0.155612  -0.000000
    21  S    0.772292   0.000000
    22  O   -0.345123   0.000000
    23  O   -0.382862   0.000000
    24  O   -0.395140   0.000000
    25  H    0.237313   0.000000
    26  H    0.188003   0.000000
    27  H    0.188016   0.000000
    28  H    0.237523   0.000000
    29  H    0.201446  -0.000000
    30  H    0.201423   0.000000
 Sum of Mulliken charges =  -2.00000   0.00000

 Dipole moment (field-independent basis, Debye):
    X=              0.0010    Y=             12.0695    Z=             -0.4993  Tot=             12.0798
 Quadrupole moment (field-independent basis, Debye-Ang):
   XX=           -465.9734   YY=           -191.4211   ZZ=           -172.4009
   XY=              0.0097   XZ=              0.0056   YZ=             -0.0299

 Normal termination of Gaussian 16 at Tue Jan 16 20:51:11 2024.
