 Gaussian 16, Revision A.03,
 Gaussian 16:  ES64L-G16RevA.03 25-Dec-2016

 --------------------------------------
 #P UB3LYP/6-311++G(d,p) nosym opt freq
 --------------------------------------

 --------
 Oxidized
 --------
 Symbolic Z-matrix:
 Charge = -2 Multiplicity = 1

 SCF Done:  E(UB3LYP) =  -1935.67263185     A.U. after   18 cycles
 Optimization completed.
    -- Stationary point found.
 Normal termination of Gaussian 16 at Mon Jan  8 16:41:37 2024.

 ----------------------------------------------------------------------
 #P Geom=AllCheck Guess=TCheck SCRF=Check GenChk UB3LYP/6-311++G(d,p) F
 req
 ----------------------------------------------------------------------

 Structure from the checkpoint file:  "226.chk"
 --------
 Oxidized
 --------
 Charge = -2 Multiplicity = 1

                          Input orientation:
 ---------------------------------------------------------------------
 Center     Atomic      Atomic             Coordinates (Angstroms)
 Number     Number       Type             X           Y           Z
 ---------------------------------------------------------------------
      1          8           0       -5.601613    1.162481   -1.380298
      2         16           0       -5.405907    0.631039   -0.006972
      3          8           0       -5.348319    1.671103    1.047967
      4          8           0       -6.273603   -0.531837    0.318430
      5          6           0       -3.714466   -0.078465   -0.049123
      6          6           0       -3.553691   -1.447421   -0.276221
      7          6           0       -2.280208   -1.996233   -0.355938
      8          6           0       -1.146607   -1.189836   -0.210532
      9          6           0        0.201027   -1.811551   -0.299975
     10          8           0        0.334813   -3.015255   -0.506051
     11          6           0        1.380718   -0.923037   -0.128245
     12          6           0        2.664507   -1.474250   -0.195036
     13          6           0        3.787706   -0.672419   -0.037414
     14          6           0        3.644460    0.698369    0.190259
     15          6           0        2.371736    1.260485    0.262763
     16          6           0        1.235142    0.460343    0.103680
     17          6           0       -0.120853    1.086593    0.189145
     18          8           0       -0.253795    2.283936    0.389450
     19          6           0       -1.308015    0.191858    0.020888
     20          6           0       -2.594348    0.736240    0.101178
     21         16           0        5.144361    1.744839    0.336465
     22          8           0        5.308636    2.320771   -1.022963
     23          8           0        4.805770    2.738113    1.383723
     24          8           0        6.214381    0.785295    0.717827
     25          1           0       -4.440817   -2.062010   -0.371410
     26          1           0       -2.136504   -3.056371   -0.528047
     27          1           0        2.756407   -2.539845   -0.368875
     28          1           0        4.787806   -1.087635   -0.071437
     29          1           0        2.252603    2.319371    0.454083
     30          1           0       -2.711326    1.795328    0.292677
 ---------------------------------------------------------------------

 SCF Done:  E(UB3LYP) =  -1935.67263185     A.U. after    2 cycles

 Alpha  occ. eigenvalues --  -88.84430 -88.84430 -18.95760 -18.95373 -18.88712
 Alpha  occ. eigenvalues --  -18.88711 -18.88635 -18.88634 -18.88609 -18.88608
 Alpha  occ. eigenvalues --  -10.11034 -10.10665 -10.03563 -10.03562 -10.03497
 Alpha  occ. eigenvalues --  -10.03497 -10.03160 -10.03159 -10.02733 -10.02733
 Alpha  occ. eigenvalues --  -10.02348 -10.02346 -10.02202 -10.02200  -7.90278
 Alpha  occ. eigenvalues --   -7.90277  -5.86527  -5.86526  -5.86519  -5.86519
 Alpha  occ. eigenvalues --   -5.86511  -5.86511  -0.90589  -0.90589  -0.88952
 Alpha  occ. eigenvalues --   -0.88666  -0.76979  -0.76978  -0.76770  -0.76769
 Alpha  occ. eigenvalues --   -0.72048  -0.70843  -0.63980  -0.60640  -0.60430
 Alpha  occ. eigenvalues --   -0.59820  -0.51956  -0.50004  -0.47773  -0.44742
 Alpha  occ. eigenvalues --   -0.42145  -0.40984  -0.40759  -0.36574  -0.35572
 Alpha  occ. eigenvalues --   -0.32934  -0.31262  -0.31221  -0.30220  -0.28296
 Alpha  occ. eigenvalues --   -0.28207  -0.28075  -0.27803  -0.27708  -0.27024
 Alpha  occ. eigenvalues --   -0.24791  -0.24786  -0.24447  -0.24371  -0.24213
 Alpha  occ. eigenvalues --   -0.23750  -0.22716  -0.21799  -0.19957  -0.19540
 Alpha  occ. eigenvalues --   -0.19374  -0.12881  -0.12880  -0.12779  -0.12749
 Alpha  occ. eigenvalues --   -0.12401  -0.12035  -0.11364  -0.10608  -0.10568
 Alpha  occ. eigenvalues --   -0.10473  -0.09424  -0.09186  -0.09127  -0.08720
 Alpha  occ. eigenvalues --   -0.07895  -0.07407  -0.04857  -0.04856
 Alpha virt. eigenvalues --    0.05492   0.09879   0.13530   0.14216   0.14614
 Alpha virt. eigenvalues --    0.15249   0.17606   0.17670   0.19016   0.19549
 Alpha virt. eigenvalues --    0.20126   0.20243   0.20385   0.21537   0.21951

  Beta  occ. eigenvalues --  -88.84430 -88.84430 -18.95760 -18.95373 -18.88712
  Beta  occ. eigenvalues --  -18.88711 -18.88635 -18.88634 -18.88609 -18.88608
  Beta  occ. eigenvalues --  -10.11034 -10.10665 -10.03563 -10.03562 -10.03497
  Beta  occ. eigenvalues --  -10.03497 -10.03160 -10.03159 -10.02733 -10.02733
  Beta  occ. eigenvalues --  -10.02348 -10.02346 -10.02202 -10.02200  -7.90278
  Beta  occ. eigenvalues --   -7.90277  -5.86527  -5.86526  -5.86519  -5.86519
  Beta  occ. eigenvalues --   -5.86511  -5.86511  -0.90589  -0.90589  -0.88952
  Beta  occ. eigenvalues --   -0.88666  -0.76979  -0.76978  -0.76770  -0.76769
  Beta  occ. eigenvalues --   -0.72048  -0.70843  -0.63980  -0.60640  -0.60430
  Beta  occ. eigenvalues --   -0.59820  -0.51956  -0.50004  -0.47773  -0.44742
  Beta  occ. eigenvalues --   -0.42145  -0.40984  -0.40759  -0.36574  -0.35572
  Beta  occ. eigenvalues --   -0.32934  -0.31262  -0.31221  -0.30220  -0.28296
  Beta  occ. eigenvalues --   -0.28207  -0.28075  -0.27803  -0.27708  -0.27024
  Beta  occ. eigenvalues --   -0.24791  -0.24786  -0.24447  -0.24371  -0.24213
  Beta  occ. eigenvalues --   -0.23750  -0.22716  -0.21799  -0.19957  -0.19540
  Beta  occ. eigenvalues --   -0.19374  -0.12881  -0.12880  -0.12779  -0.12749
  Beta  occ. eigenvalues --   -0.12401  -0.12035  -0.11364  -0.10608  -0.10568
  Beta  occ. eigenvalues --   -0.10473  -0.09424  -0.09186  -0.09127  -0.08720
  Beta  occ. eigenvalues --   -0.07895  -0.07407  -0.04857  -0.04856
  Beta virt. eigenvalues --    0.05492   0.09879   0.13530   0.14216   0.14614
  Beta virt. eigenvalues --    0.15249   0.17606   0.17670   0.19016   0.19549
  Beta virt. eigenvalues --    0.20126   0.20243   0.20385   0.21537   0.21951

 Mulliken charges and spin densities:
               1          2
     1  O   -0.281332   0.000000
     2  S    0.703387   0.000000
     3  O   -0.321231   0.000000
     4  O   -0.345856   0.000000
     5  C   -0.733459  -0.000000
     6  C   -0.284382  -0.000000
     7  C    0.027386   0.000000
     8  C    0.444075   0.000000
     9  C   -0.458713   0.000000
    10  O   -0.258375   0.000000
    11  C    0.443181  -0.000000
    12  C    0.029962  -0.000000
    13  C   -0.283093  -0.000000
    14  C   -0.733762  -0.000000
    15  C   -0.186719   0.000000
    16  C    0.273008  -0.000000
    17  C   -0.819141  -0.000000
    18  O   -0.214115  -0.000000
    19  C    0.278105   0.000000
    20  C   -0.184317   0.000000
    21  S    0.703457  -0.000000
    22  O   -0.281203   0.000000
    23  O   -0.321080  -0.000000
    24  O   -0.345845  -0.000000
    25  H    0.210699  -0.000000
    26  H    0.155406   0.000000
    27  H    0.155423  -0.000000
    28  H    0.211039  -0.000000
    29  H    0.208700   0.000000
    30  H    0.208794  -0.000000
 Sum of Mulliken charges =  -2.00000   0.00000

 Dipole moment (field-independent basis, Debye):
    X=              1.2820    Y=            -11.7057    Z=             -1.4007  Tot=             11.8587
 Quadrupole moment (field-independent basis, Debye-Ang):
   XX=           -444.6174   YY=           -203.4392   ZZ=           -172.9976
   XY=            -25.6110   XZ=             -8.3933   YZ=             -5.2097

  Exact polarizability: 392.797  14.600 250.926   6.339  17.679 142.687
 Approx polarizability: 503.431   1.610 477.010   4.523  38.281 241.258

                      1                      2                      3
                      A                      A                      A
 Frequencies --      7.6554                 9.3206                24.2596
 Red. masses --     15.7363                14.4284                11.6952
 Frc consts  --      0.0005                 0.0007                 0.0041
 IR Inten    --      0.0844                 0.4225                 1.3417

                      4                      5                      6
                      A                      A                      A
 Frequencies --     58.2642                73.8146                77.7565
 Red. masses --      7.3948                15.0097                10.9326
 Frc consts  --      0.0148                 0.0482                 0.0389
 IR Inten    --      0.0333                 4.7906                10.8846

                      7                      8                      9
                      A                      A                      A
 Frequencies --    127.0619               128.7715               129.3381
 Red. masses --      5.6683                10.0831                 6.3170
 Frc consts  --      0.0539                 0.0985                 0.0623
 IR Inten    --      0.6784                 2.4907                 0.8075

                     10                     11                     12
                      A                      A                      A
 Frequencies --    167.8799               180.0498               212.6712
 Red. masses --     12.0460                14.0899                 8.8710
 Frc consts  --      0.2000                 0.2691                 0.2364
 IR Inten    --      1.7543                 1.3685                 0.8860

                     13                     14                     15
                      A                      A                      A
 Frequencies --    224.5640               246.8935               269.6920
 Red. masses --     10.3905                13.1416                13.0063
 Frc consts  --      0.3087                 0.4720                 0.5574
 IR Inten    --      0.5267                 5.2937                 0.0217

                     16                     17                     18
                      A                      A                      A
 Frequencies --    303.5666               333.9164               372.1173
 Red. masses --      7.5490                 6.9802                 7.3059
 Frc consts  --      0.4099                 0.4586                 0.5961
 IR Inten    --      1.3841                 1.1081                 9.8641

                     19                     20                     21
                      A                      A                      A
 Frequencies --    378.9399               403.1854               411.7309
 Red. masses --      7.4695                10.6230                 3.5639
 Frc consts  --      0.6320                 1.0174                 0.3560
 IR Inten    --      0.8791                41.1527                 0.1467

                     22                     23                     24
                      A                      A                      A
 Frequencies --    424.7242               439.6914               460.1728
 Red. masses --      8.7581                 3.2967                 9.4270
 Frc consts  --      0.9308                 0.3755                 1.1762
 IR Inten    --      0.1923                 0.1408                49.0462

                     25                     26                     27
                      A                      A                      A
 Frequencies --    465.7375               485.3530               493.0420
 Red. masses --      9.7087                10.7434                10.0267
 Frc consts  --      1.2408                 1.4911                 1.4361
 IR Inten    --      6.5839                 0.0588                 1.6111

                     28                     29                     30
                      A                      A                      A
 Frequencies --    516.8085               523.2498               541.4881
 Red. masses --     14.9843                13.3122                 8.8882
 Frc consts  --      2.3580                 2.1474                 1.5355
 IR Inten    --     11.7579                 0.7276                45.0199

                     31                     32                     33
                      A                      A                      A
 Frequencies --    583.5575               609.3903               610.2402
 Red. masses --      6.3736                13.3202                15.5732
 Frc consts  --      1.2788                 2.9144                 3.4169
 IR Inten    --      3.5468                72.1354               297.8007

                     34                     35                     36
                      A                      A                      A
 Frequencies --    660.4694               672.3273               681.6800
 Red. masses --      7.7399                 4.1554                 7.8158
 Frc consts  --      1.9893                 1.1067                 2.1399
 IR Inten    --     55.9768                26.4268                 2.9413

                     37                     38                     39
                      A                      A                      A
 Frequencies --    704.2697               707.9867               728.3957
 Red. masses --      7.0455                 5.2123                 8.4033
 Frc consts  --      2.0589                 1.5393                 2.6268
 IR Inten    --      2.4806                 2.1420                34.1793

                     40                     41                     42
                      A                      A                      A
 Frequencies --    753.7436               786.5687               843.2777
 Red. masses --      5.0027                 6.5862                 7.4328
 Frc consts  --      1.6746                 2.4008                 3.1142
 IR Inten    --     24.6004                 0.2093                 0.2058

                     43                     44                     45
                      A                      A                      A
 Frequencies --    862.0916               879.0454               936.7522
 Red. masses --      1.3479                 1.5736                 1.3478
 Frc consts  --      0.5902                 0.7164                 0.6968
 IR Inten    --      0.7793                23.1215                 6.8176

                     46                     47                     48
                      A                      A                      A
 Frequencies --    937.0611               944.6629               968.7642
 Red. masses --      6.7948                 1.3842                 9.2428
 Frc consts  --      3.5153                 0.7278                 5.1108
 IR Inten    --    208.8067                 4.7840                54.3776

                     49                     50                     51
                      A                      A                      A
 Frequencies --    980.3402               998.5425              1002.2360
 Red. masses --     14.4011                 5.3117                 1.3643
 Frc consts  --      8.1545                 3.1205                 0.8074
 IR Inten    --     68.5306               345.7982                11.2942

                     52                     53                     54
                      A                      A                      A
 Frequencies --   1004.8308              1084.1085              1090.2056
 Red. masses --      1.3474                 2.2936                 2.0515
 Frc consts  --      0.8015                 1.5882                 1.4366
 IR Inten    --      1.8907                 1.1501                77.3253

                     55                     56                     57
                      A                      A                      A
 Frequencies --   1123.4087              1128.4282              1159.6811
 Red. masses --      1.8727                 2.1033                15.6562
 Frc consts  --      1.3925                 1.5780                12.4055
 IR Inten    --     47.9234                13.5277               504.5247

                     58                     59                     60
                      A                      A                      A
 Frequencies --   1161.7207              1173.7900              1174.4157
 Red. masses --     15.6953                14.0467                12.9270
 Frc consts  --     12.4802                11.4026                10.5049
 IR Inten    --     49.8267               499.2201                60.9009

                     61                     62                     63
                      A                      A                      A
 Frequencies --   1181.6356              1186.1320              1226.2171
 Red. masses --      2.9583                 2.5943                 1.8962
 Frc consts  --      2.4337                 2.1505                 1.6798
 IR Inten    --     30.9495                 2.1342                 3.5461

                     64                     65                     66
                      A                      A                      A
 Frequencies --   1271.1061              1279.5108              1305.7259
 Red. masses --      1.4042                 2.0114                 4.3317
 Frc consts  --      1.3367                 1.9401                 4.3513
 IR Inten    --      3.9272               165.5119               659.9720

                     67                     68                     69
                      A                      A                      A
 Frequencies --   1347.8552              1356.2323              1410.9806
 Red. masses --      8.7854                11.7665                 3.8666
 Frc consts  --      9.4037                12.7516                 4.5355
 IR Inten    --    109.4104                 0.0079                 1.4707

                     70                     71                     72
                      A                      A                      A
 Frequencies --   1428.3220              1491.2708              1498.4617
 Red. masses --      4.9379                 2.7679                 2.6420
 Frc consts  --      5.9354                 3.6267                 3.4953
 IR Inten    --      1.2329                23.6812                 0.2052

                     73                     74                     75
                      A                      A                      A
 Frequencies --   1587.2105              1595.8197              1606.2384
 Red. masses --      7.5063                 8.4366                 6.4843
 Frc consts  --     11.1415                12.6585                 9.8568
 IR Inten    --      9.4744               103.7281               148.7158

                     76                     77                     78
                      A                      A                      A
 Frequencies --   1610.3233              1689.5484              1718.2863
 Red. masses --      5.9624                12.0732                12.3277
 Frc consts  --      9.1096                20.3055                21.4449
 IR Inten    --     41.1929               128.8408               210.7908

                     79                     80                     81
                      A                      A                      A
 Frequencies --   3180.5324              3180.8411              3195.7043
 Red. masses --      1.0872                 1.0873                 1.0937
 Frc consts  --      6.4796                 6.4819                 6.5806
 IR Inten    --      2.9265                 1.7813                 0.4490

                     82                     83                     84
                      A                      A                      A
 Frequencies --   3195.8865              3207.1848              3207.5147
 Red. masses --      1.0937                 1.0902                 1.0904
 Frc consts  --      6.5818                 6.6071                 6.6095
 IR Inten    --     10.5431                 0.0772                 5.2932

 - Thermochemistry -
 -------------------
 Temperature   298.150 Kelvin.  Pressure   1.00000 Atm.
 Atom     1 has atomic number  8 and mass  15.99491

 Molecular mass:   365.95041 amu.
 Principal axes and moments of inertia in atomic units:
                           1         2         3
     Eigenvalues --  3179.45306********************
           X            0.99395  -0.10871  -0.01549
           Y            0.10493   0.98189  -0.15775
           Z            0.03236   0.15517   0.98736
 This molecule is an asymmetric top.
 Rotational symmetry number  1.
 Warning -- assumption of classical behavior for rotation
           may cause significant error
 Rotational temperatures (Kelvin)      0.02724     0.00400     0.00359
 Rotational constants (GHZ):           0.56763     0.08337     0.07483
 Zero-point vibrational energy     480912.2 (Joules/Mol)
                                  114.94079 (Kcal/Mol)
 Warning -- explicit consideration of  33 degrees of freedom as
           vibrations may cause significant error
 Vibrational temperatures:     11.01    13.41    34.90    83.83   106.20
          (Kelvin)            111.87   182.81   185.27   186.09   241.54
                              259.05   305.99   323.10   355.22   388.03
                              436.76   480.43   535.39   545.21   580.09
                              592.39   611.08   632.62   662.09   670.09
                              698.31   709.38   743.57   752.84   779.08
                              839.61   876.78   878.00   950.27   967.33
                              980.79  1013.29  1018.63  1048.00  1084.47
                             1131.70  1213.29  1240.36  1264.75  1347.78
                             1348.22  1359.16  1393.84  1410.49  1436.68
                             1441.99  1445.73  1559.79  1568.56  1616.33
                             1623.56  1668.52  1671.46  1688.82  1689.72
                             1700.11  1706.58  1764.25  1828.84  1840.93
                             1878.65  1939.26  1951.32  2030.09  2055.04
                             2145.61  2155.95  2283.64  2296.03  2311.02
                             2316.90  2430.88  2472.23  4576.08  4576.52
                             4597.91  4598.17  4614.42  4614.90

 Zero-point correction=                           0.183170 (Hartree/Particle)
 Thermal correction to Energy=                    0.202788
 Thermal correction to Enthalpy=                  0.203732
 Thermal correction to Gibbs Free Energy=         0.130269
 Sum of electronic and zero-point Energies=          -1935.489462
 Sum of electronic and thermal Energies=             -1935.469844
 Sum of electronic and thermal Enthalpies=           -1935.468900
 Sum of electronic and thermal Free Energies=        -1935.542363

                     E (Thermal)             CV                S
                      KCal/Mol        Cal/Mol-Kelvin    Cal/Mol-Kelvin
 Total                  127.251             73.762            154.617
 Electronic               0.000              0.000              0.000
 Translational            0.889              2.981             43.585
 Rotational               0.889              2.981             35.761
 Vibrational            125.474             67.800             75.271
 Vibration     1          0.593              1.987              8.542
 Vibration     2          0.593              1.987              8.151
 Vibration     3          0.593              1.985              6.251
 Vibration     4          0.596              1.974              4.515
 Vibration     5          0.599              1.966              4.049
 Vibration     6          0.599              1.964              3.947
 Vibration     7          0.611              1.926              2.990
 Vibration     8          0.611              1.924              2.964
 Vibration     9          0.612              1.924              2.956
 Vibration    10          0.625              1.882              2.459
 Vibration    11          0.629              1.867              2.328
 Vibration    12          0.644              1.822              2.021
 Vibration    13          0.649              1.804              1.922
 Vibration    14          0.661              1.768              1.753
 Vibration    15          0.674              1.729              1.598
 Vibration    16          0.695              1.667              1.397
 Vibration    17          0.715              1.608              1.241
 Vibration    18          0.744              1.529              1.071
 Vibration    19          0.749              1.515              1.043
 Vibration    20          0.769              1.463              0.951
 Vibration    21          0.776              1.445              0.921
 Vibration    22          0.787              1.416              0.876
 Vibration    23          0.800              1.384              0.828
 Vibration    24          0.818              1.338              0.766
 Vibration    25          0.823              1.326              0.750
 Vibration    26          0.841              1.283              0.696
 Vibration    27          0.849              1.265              0.676
 Vibration    28          0.872              1.213              0.617
 Vibration    29          0.878              1.199              0.602
 Vibration    30          0.897              1.158              0.562
 Vibration    31          0.940              1.067              0.479
 Vibration    32          0.968              1.012              0.434
 Vibration    33          0.969              1.010              0.432

                           ! Non-Optimized Parameters !
 Normal termination of Gaussian 16 at Mon Jan  8 17:42:34 2024.
