 Q-Chem 5.4, Q-Chem, Inc., Pleasanton, CA (2021)
 Q-Chem 5.4.0 for Intel X86 EM64T Linux

User input:
--------------------------------------------------------------
$molecule
0 1
C                  5.6806780000     -5.1079330000      1.2814440000
C                  6.6930630000     -5.0186240000      0.3377060000
C                  6.6040080000     -4.0723420000     -0.6980350000
C                  4.5727370000     -4.2602780000      1.2057720000
C                  4.4830850000     -3.3141170000      0.1707470000
C                  5.4978230000     -3.2208840000     -0.7795680000
C                  3.4883910000     -4.3677780000      2.2303630000
C                  2.3372900000     -3.4428890000      2.0998460000
C                  2.2523380000     -2.5404400000      1.1122110000
C                  3.3031710000     -2.3992240000      0.0759710000
O                  3.5390950000     -5.1784260000      3.1387630000
O                  3.1993270000     -1.5701000000     -0.8103390000
C                  7.6506530000     -3.9821630000     -1.6712860000
N                  8.4979240000     -3.9141600000     -2.4533140000
H                  5.7305950000     -5.8301570000      2.0868470000
H                  7.5544300000     -5.6727700000      0.3908360000
H                  5.4151160000     -2.4870960000     -1.5713740000
H                  1.5680830000     -3.5455090000      2.8575370000
H                  1.4099240000     -1.8640040000      1.0171600000
$end

$rem
BASIS  =  6-311++G(d,p)
GUI  =  2
JOB_TYPE  =  SP
METHOD  =  B3LYP
SCF_CONVERGENCE  = 8
SOLVENT_METHOD = sm12
$end

$smx
solvent dimethylformamide
charges CM5
$end

--------------------------------------------------------------

             Standard Nuclear Orientation (Angstroms)
    I     Atom           X                Y                Z
 ----------------------------------------------------------------
    1      C       5.6806780000    -5.1079330000     1.2814440000
    2      C       6.6930630000    -5.0186240000     0.3377060000
    3      C       6.6040080000    -4.0723420000    -0.6980350000
    4      C       4.5727370000    -4.2602780000     1.2057720000
    5      C       4.4830850000    -3.3141170000     0.1707470000
    6      C       5.4978230000    -3.2208840000    -0.7795680000
    7      C       3.4883910000    -4.3677780000     2.2303630000
    8      C       2.3372900000    -3.4428890000     2.0998460000
    9      C       2.2523380000    -2.5404400000     1.1122110000
   10      C       3.3031710000    -2.3992240000     0.0759710000
   11      O       3.5390950000    -5.1784260000     3.1387630000
   12      O       3.1993270000    -1.5701000000    -0.8103390000
   13      C       7.6506530000    -3.9821630000    -1.6712860000
   14      N       8.4979240000    -3.9141600000    -2.4533140000
   15      H       5.7305950000    -5.8301570000     2.0868470000
   16      H       7.5544300000    -5.6727700000     0.3908360000
   17      H       5.4151160000    -2.4870960000    -1.5713740000
   18      H       1.5680830000    -3.5455090000     2.8575370000
   19      H       1.4099240000    -1.8640040000     1.0171600000
 ----------------------------------------------------------------

   15    -627.5173170225      7.76e-09  Convergence criterion met
 Total energy in the final basis set =     -627.5370698904

                    Orbital Energies (a.u.)
 --------------------------------------------------------------

 Alpha MOs
 -- Occupied --
-19.1421 -19.1413 -14.3407 -10.2905 -10.2904 -10.2478 -10.2415 -10.2252
-10.2234 -10.2225 -10.2212 -10.2157 -10.2149 -10.2117  -1.0750  -1.0731
 -0.9434  -0.9096  -0.8537  -0.8067  -0.7954  -0.7150  -0.6852  -0.6614
 -0.6078  -0.5858  -0.5507  -0.5202  -0.5118  -0.4768  -0.4705  -0.4665
 -0.4626  -0.4499  -0.4369  -0.4265  -0.4219  -0.4105  -0.3959  -0.3915
 -0.3732  -0.3684  -0.3129  -0.2952  -0.2945  -0.2932  -0.2838

          Ground-State Mulliken Net Atomic Charges

     Atom                 Charge (a.u.)
  ----------------------------------------
      1 C                     0.911123
      2 C                     0.097676
      3 C                     2.707339
      4 C                     0.324790
      5 C                    -0.245047
      6 C                     0.074177
      7 C                    -1.216391
      8 C                     0.838584
      9 C                     0.694401
     10 C                    -1.007359
     11 O                    -0.310166
     12 O                    -0.330614
     13 C                    -3.411606
     14 N                    -0.625576
     15 H                     0.230518
     16 H                     0.386797
     17 H                     0.232771
     18 H                     0.325818
     19 H                     0.322765
  ----------------------------------------
  Sum of atomic charges =     0.000000

                    Cartesian Multipole Moments
 -----------------------------------------------------------------
    Charge (ESU x 10^10)
                -0.0000
    Dipole Moment (Debye)
         X      -3.2353      Y      -0.7784      Z       3.5940
       Tot       4.8979
    Quadrupole Moments (Debye-Ang)
        XX    -117.5600     XY       3.5490     YY     -76.4330
        XZ      27.4409     YZ      -6.4677     ZZ     -94.5916

 Total job time:  355.97s(wall), 1967.48s(cpu)
        *  Thank you very much for using Q-Chem.  Have a nice day.  *
