 Gaussian 16, Revision A.03,
 Gaussian 16:  ES64L-G16RevA.03 25-Dec-2016

 ----------------------------------------------------------------
 #P UB3LYP/6-311++G(d,p) SCRF=(PCM,Solvent=n,n-DiMethylFormamide)
 ----------------------------------------------------------------

 ------------------
 Quinone PCM in DMF
 ------------------
 Symbolic Z-matrix:
 Charge =  0 Multiplicity = 1

                         Standard orientation:
 ---------------------------------------------------------------------
 Center     Atomic      Atomic             Coordinates (Angstroms)
 Number     Number       Type             X           Y           Z
 ---------------------------------------------------------------------
      1          6           0        1.023802    0.879699    0.489062
      2          6           0        2.429758    1.234062    0.104726
      3          6           0        3.256392    0.305155   -0.434167
      4          6           0        2.779262   -1.099361   -0.615125
      5          6           0        1.405243   -1.460107   -0.175827
      6          6           0        0.592168   -0.539357    0.345159
      7          8           0        0.256748    1.735338    0.890847
      8          8           0        3.493271   -1.954143   -1.111572
      9         16           0       -1.037326   -1.082237    0.976820
     10          6           0       -2.259301   -0.184216    0.008394
     11          6           0       -2.749507    1.029583    0.484856
     12          6           0       -2.717607   -0.751327   -1.180152
     13          6           0       -3.683778   -0.071086   -1.917079
     14          6           0       -3.720266    1.694296   -0.260142
     15          6           0       -4.182576    1.147742   -1.457333
     16          8           0       -1.125431   -0.661440    2.374426
     17          8           0       -1.134603   -2.499159    0.607697
     18          1           0       -2.373640    1.435086    1.414005
     19          1           0       -2.338551   -1.712435   -1.503931
     20          1           0       -4.117043    2.637303    0.097121
     21          1           0        1.104533   -2.495498   -0.292069
     22          1           0       -4.054703   -0.498886   -2.841079
     23          6           0        4.668555    0.544042   -0.886372
     24          6           0        2.779615    2.673311    0.355659
     25          1           0       -4.938165    1.671113   -2.032146
     26          1           0        4.928392    1.599618   -0.910034
     27          1           0        4.819513    0.119014   -1.880942
     28          1           0        5.371001    0.026234   -0.225209
     29          1           0        2.545838    2.941054    1.388801
     30          1           0        2.170055    3.328919   -0.273165
     31          1           0        3.829539    2.884881    0.168386
 ---------------------------------------------------------------------

 SCF Done:  E(UB3LYP) =  -1239.97718283     A.U. after   17 cycles

 The electronic state is 1-A.
 Alpha  occ. eigenvalues --  -89.07557 -19.15291 -19.15254 -19.14133 -19.13988
 Alpha  occ. eigenvalues --  -10.30316 -10.29754 -10.24968 -10.23503 -10.22804
 Alpha  occ. eigenvalues --  -10.22504 -10.22321 -10.20698 -10.20535 -10.19946
 Alpha  occ. eigenvalues --  -10.19734 -10.19690 -10.18009 -10.17966  -8.13932
 Alpha  occ. eigenvalues --   -6.10199  -6.10121  -6.10033  -1.13662  -1.08732
 Alpha  occ. eigenvalues --   -1.08369  -1.03334  -0.89025  -0.88398  -0.83656
 Alpha  occ. eigenvalues --   -0.79440  -0.77571  -0.76161  -0.72949  -0.70614
 Alpha  occ. eigenvalues --   -0.68068  -0.63487  -0.62894  -0.61142  -0.59145
 Alpha  occ. eigenvalues --   -0.55987  -0.55023  -0.53029  -0.50249  -0.49572
 Alpha  occ. eigenvalues --   -0.49248  -0.47737  -0.47487  -0.46887  -0.46604
 Alpha  occ. eigenvalues --   -0.45838  -0.44869  -0.44264  -0.43635  -0.42221
 Alpha  occ. eigenvalues --   -0.41836  -0.40909  -0.40333  -0.39809  -0.39218
 Alpha  occ. eigenvalues --   -0.38692  -0.37269  -0.36484  -0.35347  -0.33967
 Alpha  occ. eigenvalues --   -0.32864  -0.32735  -0.30507  -0.29370  -0.28685
 Alpha  occ. eigenvalues --   -0.28291  -0.27924
 Alpha virt. eigenvalues --   -0.14699  -0.06423  -0.03810  -0.03540  -0.01800
 Alpha virt. eigenvalues --   -0.01051  -0.00317   0.00608   0.01243   0.01835
 Alpha virt. eigenvalues --    0.02290   0.02634   0.02878   0.03400   0.03811

  Beta  occ. eigenvalues --  -89.07557 -19.15291 -19.15254 -19.14133 -19.13988
  Beta  occ. eigenvalues --  -10.30316 -10.29754 -10.24968 -10.23503 -10.22804
  Beta  occ. eigenvalues --  -10.22504 -10.22321 -10.20698 -10.20535 -10.19946
  Beta  occ. eigenvalues --  -10.19734 -10.19690 -10.18009 -10.17966  -8.13932
  Beta  occ. eigenvalues --   -6.10199  -6.10121  -6.10033  -1.13662  -1.08732
  Beta  occ. eigenvalues --   -1.08369  -1.03334  -0.89025  -0.88398  -0.83656
  Beta  occ. eigenvalues --   -0.79440  -0.77571  -0.76161  -0.72949  -0.70614
  Beta  occ. eigenvalues --   -0.68068  -0.63487  -0.62894  -0.61142  -0.59145
  Beta  occ. eigenvalues --   -0.55987  -0.55023  -0.53029  -0.50249  -0.49572
  Beta  occ. eigenvalues --   -0.49248  -0.47737  -0.47487  -0.46887  -0.46604
  Beta  occ. eigenvalues --   -0.45838  -0.44869  -0.44264  -0.43635  -0.42221
  Beta  occ. eigenvalues --   -0.41836  -0.40909  -0.40333  -0.39809  -0.39218
  Beta  occ. eigenvalues --   -0.38692  -0.37269  -0.36484  -0.35347  -0.33967
  Beta  occ. eigenvalues --   -0.32864  -0.32735  -0.30507  -0.29370  -0.28685
  Beta  occ. eigenvalues --   -0.28291  -0.27924
  Beta virt. eigenvalues --   -0.14699  -0.06423  -0.03810  -0.03540  -0.01800
  Beta virt. eigenvalues --   -0.01051  -0.00317   0.00608   0.01243   0.01835
  Beta virt. eigenvalues --    0.02290   0.02634   0.02878   0.03400   0.03811

 Mulliken charges and spin densities:
               1          2
     1  C   -0.486650   0.000000
     2  C   -0.168570   0.000000
     3  C    0.688215  -0.000000
     4  C   -0.717054  -0.000000
     5  C    0.121875  -0.000000
     6  C    0.177250   0.000000
     7  O   -0.196529   0.000000
     8  O   -0.241246  -0.000000
     9  S    0.516302  -0.000000
    10  C    0.550601   0.000000
    11  C   -0.281455  -0.000000
    12  C    0.022457  -0.000000
    13  C   -0.530000  -0.000000
    14  C   -0.418693  -0.000000
    15  C   -0.306403   0.000000
    16  O   -0.154524   0.000000
    17  O   -0.190465   0.000000
    18  H    0.273480  -0.000000
    19  H    0.253397   0.000000
    20  H    0.221189   0.000000
    21  H    0.281933   0.000000
    22  H    0.215784  -0.000000
    23  C   -0.363962   0.000000
    24  C   -0.526369  -0.000000
    25  H    0.199942   0.000000
    26  H    0.140862  -0.000000
    27  H    0.183307  -0.000000
    28  H    0.202552   0.000000
    29  H    0.187030  -0.000000
    30  H    0.205342  -0.000000
    31  H    0.140402   0.000000
 Sum of Mulliken charges =  -0.00000  -0.00000

 Dipole moment (field-independent basis, Debye):
    X=              1.0365    Y=              5.4571    Z=             -4.8795  Tot=              7.3935
 Quadrupole moment (field-independent basis, Debye-Ang):
   XX=            -98.2803   YY=           -124.7637   ZZ=           -123.6048
   XY=              3.7127   XZ=             14.6587   YZ=              1.2899

 Normal termination of Gaussian 16 at Wed Jan 24 22:55:04 2024.
