 Q-Chem 5.4, Q-Chem, Inc., Pleasanton, CA (2021)
 Q-Chem 5.4.0 for Intel X86 EM64T Linux

User input:
--------------------------------------------------------------
$molecule
0 1
C                  5.4244660000      4.5780260000     -2.1552950000
O                  4.7180020000      3.4936730000     -1.5626330000
C                  5.3658770000      2.3416130000     -1.2993110000
C                  6.7260720000      2.1677400000     -1.5835040000
C                  7.3607510000      0.9635230000     -1.2983680000
C                  6.6581170000     -0.0872770000     -0.7283940000
C                  5.3025590000      0.0643000000     -0.4389880000
C                  4.6118480000     -1.1238180000      0.1770750000
O                  5.2605940000     -2.1305200000      0.4068340000
C                  3.1644160000     -1.0056310000      0.4712850000
C                  2.4416830000     -2.0712510000      1.0240920000
O                  3.0808520000     -3.2307880000      1.3122850000
C                  1.0514100000     -1.9474890000      1.2904860000
C                  0.3253250000     -3.1312270000      1.8932450000
C                 -1.2116420000     -3.0213080000      1.8978290000
O                 -1.7443220000     -3.3932470000      0.6303880000
C                 -1.6202260000     -1.5881190000      2.2893970000
C                 -1.0700050000     -0.5660270000      1.2962500000
O                 -1.7662100000     -0.6942010000      0.0241850000
C                 -2.6873940000      0.3188240000     -0.2814010000
C                 -3.1258130000      0.1563720000     -1.7359460000
C                 -4.5771600000      0.6358220000     -1.9544820000
N                 -4.7710400000      0.9820990000     -3.3598050000
C                 -4.9094520000      1.7515740000     -0.9487500000
O                 -4.0063680000      2.8298410000     -1.2222210000
C                 -4.8080290000      1.1947550000      0.4911150000
C                 -4.6210840000      2.2666880000      1.5627890000
O                 -3.8008710000      0.1729790000      0.6097840000
C                  0.4065880000     -0.7498330000      1.0265750000
C                  1.1202970000      0.3379920000      0.4759100000
O                  0.4294860000      1.4664180000      0.2506460000
C                  2.4946690000      0.2192250000      0.1918100000
C                  3.1927880000      1.3840460000     -0.3865000000
O                  2.5629020000      2.4361970000     -0.5900360000
C                  4.6288490000      1.2715180000     -0.7133850000
C                 -1.7936810000     -3.9842920000      2.9624750000
C                 -3.0636060000     -4.7192710000      2.6160930000
O                 -1.2460920000     -4.1001380000      4.0384820000
H                  4.6891620000      5.3726640000     -2.2655810000
H                  5.8191550000      4.3083110000     -3.1402380000
H                  6.2400950000      4.9240590000     -1.5121210000
H                  7.2941070000      2.9723320000     -2.0281860000
H                  8.4149100000      0.8525850000     -1.5269820000
H                  7.1314380000     -1.0319910000     -0.4982940000
H                  2.4564550000     -3.8610620000      1.6874830000
H                  0.6565650000     -3.2796190000      2.9283940000
H                  0.5647990000     -4.0440640000      1.3335390000
H                 -1.8856840000     -2.5906940000      0.1038650000
H                 -1.2236860000     -1.3734040000      3.2863100000
H                 -2.7067860000     -1.4903550000      2.3231860000
H                 -1.2409860000      0.4424920000      1.6768260000
H                 -2.2179560000      1.2934250000     -0.1135150000
H                 -2.4479240000      0.7267410000     -2.3745430000
H                 -3.0426830000     -0.8928520000     -2.0252400000
H                 -5.2531620000     -0.1946000000     -1.7270970000
H                 -4.2610720000      1.8326090000     -3.5801460000
H                 -5.7506890000      1.1506360000     -3.5659430000
H                 -5.9417870000      2.0914280000     -1.1074160000
H                 -4.2873150000      3.6161760000     -0.7454610000
H                 -5.7487570000      0.6667880000      0.6824300000
H                 -3.6686310000      2.7885050000      1.4444300000
H                 -4.6362000000      1.8065510000      2.5524820000
H                 -5.4310290000      3.0038040000      1.5233700000
H                  1.0893360000      2.1154090000     -0.1264380000
H                 -2.8730750000     -5.4106720000      1.7910040000
H                 -3.4177330000     -5.2596110000      3.4929030000
H                 -3.8254230000     -4.0243830000      2.2537090000
$end

$rem
BASIS  =  6-311++G(d,p)
GUI  =  2
JOB_TYPE  =  SP
METHOD  =  B3LYP
SCF_CONVERGENCE  = 8
SOLVENT_METHOD = sm12
$end

$smx
solvent dimethylformamide
charges CM5
$end

--------------------------------------------------------------

             Standard Nuclear Orientation (Angstroms)
    I     Atom           X                Y                Z
 ----------------------------------------------------------------
    1      C       5.4244660000     4.5780260000    -2.1552950000
    2      O       4.7180020000     3.4936730000    -1.5626330000
    3      C       5.3658770000     2.3416130000    -1.2993110000
    4      C       6.7260720000     2.1677400000    -1.5835040000
    5      C       7.3607510000     0.9635230000    -1.2983680000
    6      C       6.6581170000    -0.0872770000    -0.7283940000
    7      C       5.3025590000     0.0643000000    -0.4389880000
    8      C       4.6118480000    -1.1238180000     0.1770750000
    9      O       5.2605940000    -2.1305200000     0.4068340000
   10      C       3.1644160000    -1.0056310000     0.4712850000
   11      C       2.4416830000    -2.0712510000     1.0240920000
   12      O       3.0808520000    -3.2307880000     1.3122850000
   13      C       1.0514100000    -1.9474890000     1.2904860000
   14      C       0.3253250000    -3.1312270000     1.8932450000
   15      C      -1.2116420000    -3.0213080000     1.8978290000
   16      O      -1.7443220000    -3.3932470000     0.6303880000
   17      C      -1.6202260000    -1.5881190000     2.2893970000
   18      C      -1.0700050000    -0.5660270000     1.2962500000
   19      O      -1.7662100000    -0.6942010000     0.0241850000
   20      C      -2.6873940000     0.3188240000    -0.2814010000
   21      C      -3.1258130000     0.1563720000    -1.7359460000
   22      C      -4.5771600000     0.6358220000    -1.9544820000
   23      N      -4.7710400000     0.9820990000    -3.3598050000
   24      C      -4.9094520000     1.7515740000    -0.9487500000
   25      O      -4.0063680000     2.8298410000    -1.2222210000
   26      C      -4.8080290000     1.1947550000     0.4911150000
   27      C      -4.6210840000     2.2666880000     1.5627890000
   28      O      -3.8008710000     0.1729790000     0.6097840000
   29      C       0.4065880000    -0.7498330000     1.0265750000
   30      C       1.1202970000     0.3379920000     0.4759100000
   31      O       0.4294860000     1.4664180000     0.2506460000
   32      C       2.4946690000     0.2192250000     0.1918100000
   33      C       3.1927880000     1.3840460000    -0.3865000000
   34      O       2.5629020000     2.4361970000    -0.5900360000
   35      C       4.6288490000     1.2715180000    -0.7133850000
   36      C      -1.7936810000    -3.9842920000     2.9624750000
   37      C      -3.0636060000    -4.7192710000     2.6160930000
   38      O      -1.2460920000    -4.1001380000     4.0384820000
   39      H       4.6891620000     5.3726640000    -2.2655810000
   40      H       5.8191550000     4.3083110000    -3.1402380000
   41      H       6.2400950000     4.9240590000    -1.5121210000
   42      H       7.2941070000     2.9723320000    -2.0281860000
   43      H       8.4149100000     0.8525850000    -1.5269820000
   44      H       7.1314380000    -1.0319910000    -0.4982940000
   45      H       2.4564550000    -3.8610620000     1.6874830000
   46      H       0.6565650000    -3.2796190000     2.9283940000
   47      H       0.5647990000    -4.0440640000     1.3335390000
   48      H      -1.8856840000    -2.5906940000     0.1038650000
   49      H      -1.2236860000    -1.3734040000     3.2863100000
   50      H      -2.7067860000    -1.4903550000     2.3231860000
   51      H      -1.2409860000     0.4424920000     1.6768260000
   52      H      -2.2179560000     1.2934250000    -0.1135150000
   53      H      -2.4479240000     0.7267410000    -2.3745430000
   54      H      -3.0426830000    -0.8928520000    -2.0252400000
   55      H      -5.2531620000    -0.1946000000    -1.7270970000
   56      H      -4.2610720000     1.8326090000    -3.5801460000
   57      H      -5.7506890000     1.1506360000    -3.5659430000
   58      H      -5.9417870000     2.0914280000    -1.1074160000
   59      H      -4.2873150000     3.6161760000    -0.7454610000
   60      H      -5.7487570000     0.6667880000     0.6824300000
   61      H      -3.6686310000     2.7885050000     1.4444300000
   62      H      -4.6362000000     1.8065510000     2.5524820000
   63      H      -5.4310290000     3.0038040000     1.5233700000
   64      H       1.0893360000     2.1154090000    -0.1264380000
   65      H      -2.8730750000    -5.4106720000     1.7910040000
   66      H      -3.4177330000    -5.2596110000     3.4929030000
   67      H      -3.8254230000    -4.0243830000     2.2537090000
 ----------------------------------------------------------------

   15   -1853.8381647207      8.24e-09  Convergence criterion met
 Total energy in the final basis set =    -1853.8838637010

                    Orbital Energies (a.u.)
 --------------------------------------------------------------

 Alpha MOs
 -- Occupied --
-19.1690 -19.1640 -19.1521 -19.1452 -19.1275 -19.1258 -19.1239 -19.1217
-19.1215 -19.1146 -14.2884 -10.2830 -10.2733 -10.2690 -10.2686 -10.2636
-10.2624 -10.2599 -10.2486 -10.2452 -10.2236 -10.2218 -10.2188 -10.2147
-10.2071 -10.2062 -10.2062 -10.2051 -10.2041 -10.2026 -10.1972 -10.1945
-10.1914 -10.1849 -10.1841 -10.1695 -10.1654 -10.1591  -1.0884  -1.0872
 -1.0826  -1.0763  -1.0609  -1.0514  -1.0489  -1.0345  -1.0292  -1.0100
 -0.8909  -0.8859  -0.8795  -0.8416  -0.8007  -0.7923  -0.7791  -0.7727
 -0.7718  -0.7644  -0.7488  -0.7449  -0.7125  -0.7016  -0.6873  -0.6806
 -0.6635  -0.6458  -0.6321  -0.6188  -0.6149  -0.6103  -0.5898  -0.5874
 -0.5653  -0.5565  -0.5477  -0.5389  -0.5366  -0.5304  -0.5154  -0.5111
 -0.5086  -0.5016  -0.4951  -0.4910  -0.4881  -0.4813  -0.4780  -0.4757
 -0.4709  -0.4695  -0.4649  -0.4620  -0.4581  -0.4539  -0.4482  -0.4422
 -0.4404  -0.4384  -0.4299  -0.4234  -0.4222  -0.4203  -0.4153  -0.4107
 -0.4082  -0.4060  -0.3994  -0.3951  -0.3917  -0.3882  -0.3875  -0.3824
 -0.3807  -0.3797  -0.3787  -0.3751  -0.3730  -0.3692  -0.3637  -0.3609
 -0.3450  -0.3440  -0.3401  -0.3357  -0.3313  -0.3279  -0.3256  -0.3015
 -0.2927  -0.2846  -0.2772  -0.2766  -0.2731  -0.2612  -0.2593  -0.2557
 -0.2448  -0.2393  -0.2276

          Ground-State Mulliken Net Atomic Charges

     Atom                 Charge (a.u.)
  ----------------------------------------
      1 C                    -0.052643
      2 O                    -0.160902
      3 C                     0.043733
      4 C                     1.393517
      5 C                     0.427192
      6 C                    -0.188277
      7 C                    -0.582880
      8 C                    -1.614616
      9 O                    -0.291933
     10 C                    -0.489248
     11 C                    -0.556721
     12 O                    -0.191008
     13 C                    -0.109584
     14 C                    -0.562760
     15 C                     0.931133
     16 O                    -0.147394
     17 C                    -0.137463
     18 C                    -0.188911
     19 O                     0.129740
     20 C                    -0.157895
     21 C                    -1.040740
     22 C                    -0.523161
     23 N                    -0.388229
     24 C                     0.463053
     25 O                    -0.245833
     26 C                     0.047950
     27 C                    -0.371037
     28 O                    -0.077650
     29 C                     0.196553
     30 C                    -0.609691
     31 O                    -0.305029
     32 C                     0.751533
     33 C                    -0.866671
     34 O                    -0.295250
     35 C                    -0.097442
     36 C                    -0.022250
     37 C                    -0.344672
     38 O                    -0.346739
     39 H                     0.233428
     40 H                     0.223442
     41 H                     0.226251
     42 H                     0.377185
     43 H                     0.333370
     44 H                     0.135770
     45 H                     0.354870
     46 H                     0.282686
     47 H                     0.209562
     48 H                     0.261235
     49 H                     0.209376
     50 H                     0.206498
     51 H                     0.213990
     52 H                     0.199296
     53 H                     0.089573
     54 H                     0.020888
     55 H                     0.152134
     56 H                     0.240245
     57 H                     0.312283
     58 H                     0.307250
     59 H                     0.284127
     60 H                     0.203903
     61 H                     0.152397
     62 H                     0.112837
     63 H                     0.215121
     64 H                     0.454596
     65 H                     0.181532
     66 H                     0.189181
     67 H                     0.199200
  ----------------------------------------
  Sum of atomic charges =     0.000000

                    Cartesian Multipole Moments
 -----------------------------------------------------------------
    Charge (ESU x 10^10)
                 0.0000
    Dipole Moment (Debye)
         X      -3.3422      Y       7.4415      Z      -1.6695
       Tot       8.3266
    Quadrupole Moments (Debye-Ang)
        XX    -168.4382     XY      18.2917     YY    -209.8546
        XZ     -21.3752     YZ      -3.1446     ZZ    -234.6386

 Total job time:  7836.23s(wall), 33997.53s(cpu)
        *  Thank you very much for using Q-Chem.  Have a nice day.  *
