 Gaussian 16, Revision A.03,
 Gaussian 16:  ES64L-G16RevA.03 25-Dec-2016

 ----------------------------------------------------------------
 #P UB3LYP/6-311++G(d,p) SCRF=(PCM,Solvent=n,n-DiMethylFormamide)
 ----------------------------------------------------------------

 -------
 Reduced
 -------
 Symbolic Z-matrix:
 Charge = -2 Multiplicity = 1

                         Standard orientation:
 ---------------------------------------------------------------------
 Center     Atomic      Atomic             Coordinates (Angstroms)
 Number     Number       Type             X           Y           Z
 ---------------------------------------------------------------------
      1          7           0       -3.745147   -2.349455   -0.152839
      2          6           0       -3.587257   -0.958970   -0.035670
      3          6           0       -4.702853   -0.133556    0.032007
      4          6           0       -4.559943    1.276306    0.072636
      5          6           0       -3.308517    1.843924    0.034493
      6          6           0       -2.132243    1.045583   -0.014694
      7          6           0       -0.854312    1.732998   -0.023530
      8          8           0       -0.752444    3.013836   -0.023500
      9          6           0        0.291690    0.861206   -0.022003
     10          6           0        1.589661    1.428071   -0.021208
     11          6           0        2.721087    0.654217   -0.007467
     12         17           0        4.327208    1.442281   -0.000231
     13          6           0        2.604899   -0.768686    0.010472
     14         17           0        4.063729   -1.804631    0.016690
     15          6           0        1.365978   -1.353510    0.012693
     16          6           0        0.172572   -0.585516   -0.004293
     17          6           0       -1.090251   -1.263520    0.001280
     18          8           0       -1.151084   -2.568794    0.048770
     19          6           0       -2.252928   -0.402563   -0.031015
     20          1           0       -2.827242   -2.811344   -0.000092
     21          1           0       -4.519066   -2.712541    0.387262
     22          1           0       -5.692916   -0.587357    0.011276
     23          1           0       -5.448960    1.903713    0.120626
     24          1           0       -3.162234    2.918147    0.050640
     25          1           0        1.648428    2.510769   -0.028768
     26          1           0        1.254814   -2.431471    0.024760
 ---------------------------------------------------------------------

 SCF Done:  E(UB3LYP) =  -1663.81926480     A.U. after   19 cycles

 The electronic state is 1-A.
 Alpha  occ. eigenvalues -- -101.54882-101.54865 -19.03069 -19.02380 -14.27982
 Alpha  occ. eigenvalues --  -10.22433 -10.22387 -10.19112 -10.18480 -10.17942
 Alpha  occ. eigenvalues --  -10.16552 -10.16530 -10.14991 -10.14787 -10.14703
 Alpha  occ. eigenvalues --  -10.14599 -10.14146 -10.13910 -10.13583  -9.46307
 Alpha  occ. eigenvalues --   -9.46292  -7.22748  -7.22732  -7.21804  -7.21788
 Alpha  occ. eigenvalues --   -7.21775  -7.21761  -0.94859  -0.94203  -0.88939
 Alpha  occ. eigenvalues --   -0.88325  -0.84183  -0.81967  -0.80535  -0.75048
 Alpha  occ. eigenvalues --   -0.73395  -0.70506  -0.70234  -0.64162  -0.61562
 Alpha  occ. eigenvalues --   -0.59588  -0.56918  -0.53207  -0.51730  -0.50083
 Alpha  occ. eigenvalues --   -0.47266  -0.45923  -0.44970  -0.44593  -0.42326
 Alpha  occ. eigenvalues --   -0.42041  -0.41491  -0.40278  -0.38741  -0.38103
 Alpha  occ. eigenvalues --   -0.37838  -0.37001  -0.36673  -0.34383  -0.34062
 Alpha  occ. eigenvalues --   -0.33740  -0.32950  -0.32740  -0.32309  -0.31423
 Alpha  occ. eigenvalues --   -0.30331  -0.29599  -0.28210  -0.23942  -0.22979
 Alpha  occ. eigenvalues --   -0.21933  -0.21207  -0.20212  -0.19028  -0.11218
 Alpha virt. eigenvalues --   -0.03198  -0.00730  -0.00561   0.00087   0.01061
 Alpha virt. eigenvalues --    0.01320   0.01949   0.02439   0.03054   0.03614
 Alpha virt. eigenvalues --    0.04585   0.04985   0.05481   0.05525   0.05816

  Beta  occ. eigenvalues -- -101.54882-101.54865 -19.03069 -19.02380 -14.27982
  Beta  occ. eigenvalues --  -10.22433 -10.22387 -10.19112 -10.18480 -10.17942
  Beta  occ. eigenvalues --  -10.16552 -10.16530 -10.14991 -10.14787 -10.14703
  Beta  occ. eigenvalues --  -10.14599 -10.14146 -10.13910 -10.13583  -9.46307
  Beta  occ. eigenvalues --   -9.46292  -7.22748  -7.22732  -7.21804  -7.21788
  Beta  occ. eigenvalues --   -7.21775  -7.21761  -0.94859  -0.94203  -0.88939
  Beta  occ. eigenvalues --   -0.88325  -0.84183  -0.81967  -0.80535  -0.75048
  Beta  occ. eigenvalues --   -0.73395  -0.70506  -0.70234  -0.64162  -0.61562
  Beta  occ. eigenvalues --   -0.59588  -0.56918  -0.53207  -0.51730  -0.50083
  Beta  occ. eigenvalues --   -0.47266  -0.45923  -0.44970  -0.44593  -0.42326
  Beta  occ. eigenvalues --   -0.42041  -0.41491  -0.40278  -0.38741  -0.38103
  Beta  occ. eigenvalues --   -0.37838  -0.37001  -0.36673  -0.34383  -0.34062
  Beta  occ. eigenvalues --   -0.33740  -0.32950  -0.32740  -0.32309  -0.31423
  Beta  occ. eigenvalues --   -0.30331  -0.29599  -0.28210  -0.23942  -0.22979
  Beta  occ. eigenvalues --   -0.21933  -0.21207  -0.20212  -0.19028  -0.11218
  Beta virt. eigenvalues --   -0.03198  -0.00730  -0.00561   0.00087   0.01061
  Beta virt. eigenvalues --    0.01320   0.01949   0.02439   0.03054   0.03614
  Beta virt. eigenvalues --    0.04585   0.04985   0.05481   0.05525   0.05816

 Mulliken charges and spin densities:
               1          2
     1  N   -0.453388   0.000000
     2  C   -0.002214  -0.000000
     3  C   -0.313632   0.000000
     4  C   -0.514807  -0.000000
     5  C   -0.152076   0.000000
     6  C    0.533193   0.000000
     7  C   -0.635902   0.000000
     8  O   -0.635531   0.000000
     9  C   -0.496198  -0.000000
    10  C   -0.566955  -0.000000
    11  C    0.480156   0.000000
    12  Cl   0.484414   0.000000
    13  C    0.372755   0.000000
    14  Cl   0.482719  -0.000000
    15  C   -0.373496   0.000000
    16  C   -0.381415   0.000000
    17  C   -0.888862  -0.000000
    18  O   -0.606374   0.000000
    19  C    0.277898  -0.000000
    20  H    0.314488   0.000000
    21  H    0.244976  -0.000000
    22  H    0.144730   0.000000
    23  H    0.161198   0.000000
    24  H    0.138569  -0.000000
    25  H    0.188074   0.000000
    26  H    0.197683  -0.000000
 Sum of Mulliken charges =  -2.00000  -0.00000

 Dipole moment (field-independent basis, Debye):
    X=              3.9691    Y=             -3.0217    Z=              1.1761  Tot=              5.1252
 Quadrupole moment (field-independent basis, Debye-Ang):
   XX=           -182.7852   YY=           -183.9399   ZZ=           -136.0447
   XY=              3.5304   XZ=             -5.3699   YZ=             -2.9016

 Normal termination of Gaussian 16 at Sun Jan 14 01:28:28 2024.
