 Q-Chem 5.4, Q-Chem, Inc., Pleasanton, CA (2021)
 Q-Chem 5.4.0 for Intel X86 EM64T Linux

User input:
--------------------------------------------------------------
$molecule
0 1
Br                 3.7335070000     -2.2105410000      0.6220850000
C                  2.2675290000     -1.0425990000      0.2855480000
C                  0.9975990000     -1.4903310000      0.3132360000
C                 -0.1594440000     -0.6372040000      0.0625750000
C                 -1.4517300000     -1.1726460000      0.1081200000
C                 -2.5606240000     -0.3626360000     -0.1304950000
C                 -2.3947310000      0.9918080000     -0.4175640000
C                 -1.1137180000      1.5371050000     -0.4658640000
C                  0.0012530000      0.7335100000     -0.2283540000
C                  1.3644250000      1.3200340000     -0.2812870000
O                  1.5800400000      2.4833130000     -0.5238250000
C                  2.5871260000      0.3726600000     -0.0064070000
O                  3.7041700000      0.8242250000     -0.0435440000
H                  0.8030460000     -2.5347730000      0.5309590000
H                 -1.5866520000     -2.2252980000      0.3309350000
H                 -3.5553080000     -0.7916630000     -0.0917400000
H                 -3.2588720000      1.6187790000     -0.6025720000
H                 -0.9576160000      2.5862570000     -0.6867050000
$end

$rem
BASIS  =  6-311++G(d,p)
GUI  =  2
JOB_TYPE  =  SP
METHOD  =  B3LYP
SCF_CONVERGENCE  = 8
SOLVENT_METHOD = sm12
$end

$smx
solvent dimethylformamide
charges CM5
$end

--------------------------------------------------------------

             Standard Nuclear Orientation (Angstroms)
    I     Atom           X                Y                Z
 ----------------------------------------------------------------
    1      Br      3.7335070000    -2.2105410000     0.6220850000
    2      C       2.2675290000    -1.0425990000     0.2855480000
    3      C       0.9975990000    -1.4903310000     0.3132360000
    4      C      -0.1594440000    -0.6372040000     0.0625750000
    5      C      -1.4517300000    -1.1726460000     0.1081200000
    6      C      -2.5606240000    -0.3626360000    -0.1304950000
    7      C      -2.3947310000     0.9918080000    -0.4175640000
    8      C      -1.1137180000     1.5371050000    -0.4658640000
    9      C       0.0012530000     0.7335100000    -0.2283540000
   10      C       1.3644250000     1.3200340000    -0.2812870000
   11      O       1.5800400000     2.4833130000    -0.5238250000
   12      C       2.5871260000     0.3726600000    -0.0064070000
   13      O       3.7041700000     0.8242250000    -0.0435440000
   14      H       0.8030460000    -2.5347730000     0.5309590000
   15      H      -1.5866520000    -2.2252980000     0.3309350000
   16      H      -3.5553080000    -0.7916630000    -0.0917400000
   17      H      -3.2588720000     1.6187790000    -0.6025720000
   18      H      -0.9576160000     2.5862570000    -0.6867050000
 ----------------------------------------------------------------

   16   -3108.7818643684      3.18e-09  Convergence criterion met
 Total energy in the final basis set =    -3108.8045773093

                    Orbital Energies (a.u.)
 --------------------------------------------------------------

 Alpha MOs
 -- Occupied --
******** -62.4950 -56.3156 -56.3116 -56.3114 -19.1480 -19.1477 -10.2923
-10.2911 -10.2538 -10.2295 -10.2220 -10.2113 -10.2050 -10.2043 -10.2027
-10.1993  -8.7038  -6.5356  -6.5223  -6.5217  -2.6464  -2.6427  -2.6423
 -2.6317  -2.6316  -1.0939  -1.0683  -0.9046  -0.8622  -0.8062  -0.7898
 -0.7482  -0.7180  -0.6430  -0.6319  -0.6097  -0.5558  -0.5234  -0.5165
 -0.4802  -0.4709  -0.4690  -0.4637  -0.4545  -0.4474  -0.4152  -0.4140
 -0.4000  -0.3847  -0.3726  -0.3547  -0.3234  -0.3099  -0.3018  -0.2853
 -0.2712  -0.2542

          Ground-State Mulliken Net Atomic Charges

     Atom                 Charge (a.u.)
  ----------------------------------------
      1 Br                   -0.166470
      2 C                     0.417674
      3 C                     0.389008
      4 C                     0.577354
      5 C                     0.819846
      6 C                     0.563031
      7 C                     0.315308
      8 C                     0.087835
      9 C                    -0.647735
     10 C                    -1.132134
     11 O                    -0.283701
     12 C                    -2.126739
     13 O                    -0.241098
     14 H                     0.283737
     15 H                     0.308384
     16 H                     0.339230
     17 H                     0.301707
     18 H                     0.194764
  ----------------------------------------
  Sum of atomic charges =     0.000000

                    Cartesian Multipole Moments
 -----------------------------------------------------------------
    Charge (ESU x 10^10)
                 0.0000
    Dipole Moment (Debye)
         X      -8.0005      Y      -3.5726      Z       0.3395
       Tot       8.7685
    Quadrupole Moments (Debye-Ang)
        XX     -97.2960     XY      -7.6064     YY     -88.1919
        XZ       1.6875     YZ      -0.1090     ZZ     -87.7817

 Total job time:  227.47s(wall), 1728.02s(cpu)
        *  Thank you very much for using Q-Chem.  Have a nice day.  *
