 Q-Chem 5.4, Q-Chem, Inc., Pleasanton, CA (2021)
 Q-Chem 5.4.0 for Intel X86 EM64T Linux

User input:
--------------------------------------------------------------
$molecule
-2 1
C                 -1.7712170000      2.7400560000     -0.8177360000
C                 -2.8779010000      1.9345400000     -0.6288520000
C                 -2.7004430000      0.6002000000     -0.1793580000
C                 -0.4483310000      2.2870010000     -0.5969310000
C                 -0.2637620000      0.9021490000     -0.1971580000
C                 -1.4202650000      0.1150230000      0.0286740000
C                  0.6536400000      3.2206890000     -0.7939250000
C                  2.0302010000      2.6795370000     -0.5760320000
C                  2.1351190000      1.2914860000     -0.2006090000
C                  1.0705510000      0.4185170000     -0.0220760000
O                  0.4570540000      4.4195290000     -1.1441340000
O                  3.0606990000      3.3950290000     -0.7307140000
H                 -1.8752470000      3.7705130000     -1.1431930000
H                 -3.8785330000      2.3228300000     -0.8076150000
H                 -3.5595820000     -0.0405320000      0.0049460000
H                 -1.3177470000     -0.9024820000      0.3979820000
H                  3.1549890000      0.9394340000     -0.0804180000
N                  1.2602600000     -0.9226520000      0.4150460000
C                  2.5378340000     -1.5917160000      0.2329170000
C                  2.4904300000     -3.0180150000      0.7831770000
H                  0.5046910000     -1.5158440000      0.1041740000
H                  3.3084370000     -1.0224480000      0.7571280000
H                  2.8448080000     -1.6222930000     -0.8313600000
H                  2.2445350000     -3.0248020000      1.8497040000
H                  3.4530290000     -3.5234520000      0.6493000000
H                  1.7402620000     -3.6286180000      0.2654130000
$end
$rem
MAX_SCF_CYCLES=200
BASIS  =  6-311++G(d,p)
GUI  =  2
JOB_TYPE  =  SP
METHOD  =  B3LYP
SOLVENT_METHOD = COSMO
$end
$solvent
dielectric 37.219
opticaldielectric 1.43
$end

--------------------------------------------------------------

             Standard Nuclear Orientation (Angstroms)
    I     Atom           X                Y                Z
 ----------------------------------------------------------------
    1      C       2.6563074771     1.0138998335    -0.0870372127
    2      C       2.5401671070     2.3906855885    -0.0710664024
    3      C       1.2543602029     2.9806191587     0.0415320954
    4      C       1.5368909389     0.1506004043    -0.0117925487
    5      C       0.2165583642     0.7553393743     0.0402833541
    6      C       0.1339270890     2.1688262772     0.0976721057
    7      C       1.7624709292    -1.2895333254    -0.0048275856
    8      C       0.5429685089    -2.1529851607     0.0452504380
    9      C      -0.7326008584    -1.4816525795     0.0747656643
   10      C      -0.9241656986    -0.1067230180     0.0635609022
   11      O       2.9258253119    -1.7822695517    -0.0530700583
   12      O       0.6181779567    -3.4147768858     0.0426750239
   13      H       3.6271521527     0.5326516800    -0.1537227374
   14      H       3.4268481248     3.0187718695    -0.1284609128
   15      H       1.1434582589     4.0614874603     0.0868063144
   16      H      -0.8349204662     2.6493663327     0.2100573105
   17      H      -1.5871183462    -2.1511629281     0.0835440620
   18      N      -2.2193991839     0.4750274571     0.1622322630
   19      C      -3.4054488292    -0.2812445306    -0.2043081221
   20      C      -4.6694172006     0.5579666108    -0.0107347241
   21      H      -2.2395613786     1.3900214392    -0.2641269302
   22      H      -3.4587747365    -1.1735881930     0.4230445280
   23      H      -3.3640333425    -0.6404722841    -1.2517305302
   24      H      -4.7743066321     0.8850076792     1.0285114464
   25      H      -5.5648645732    -0.0108047329    -0.2839738289
   26      H      -4.6622191051     1.4551091792    -0.6422020716
 ----------------------------------------------------------------

   22    -669.2388247885      3.05e-06  Convergence criterion met
 Total energy in the final basis set =     -669.2388247885
    6    -669.5311010510      5.26e-06  Convergence criterion met
 Total energy in the final basis set =     -669.5311010510

                    Orbital Energies (a.u.)
 --------------------------------------------------------------

 Alpha MOs
 -- Occupied --
-19.0257 -19.0202 -14.2940 -10.1845 -10.1697 -10.1684 -10.1628 -10.1521
-10.1511 -10.1451 -10.1444 -10.1416 -10.1412 -10.1320 -10.1214  -0.9596
 -0.9324  -0.9054  -0.8248  -0.7676  -0.7316  -0.7161  -0.6923  -0.6383
 -0.6067  -0.5821  -0.5639  -0.5325  -0.4949  -0.4692  -0.4647  -0.4517
 -0.4261  -0.4154  -0.4036  -0.3957  -0.3824  -0.3801  -0.3700  -0.3657
 -0.3606  -0.3520  -0.3407  -0.3346  -0.3189  -0.3098  -0.3018  -0.2850
 -0.2302  -0.2258  -0.2176  -0.1859  -0.1844  -0.1059

          Ground-State Mulliken Net Atomic Charges

     Atom                 Charge (a.u.)
  ----------------------------------------
      1 C                     0.096564
      2 C                    -0.490738
      3 C                    -0.477861
      4 C                     0.412464
      5 C                     0.092415
      6 C                    -0.208743
      7 C                    -0.311766
      8 C                    -0.234629
      9 C                     0.064657
     10 C                    -0.424279
     11 O                    -0.742031
     12 O                    -0.725097
     13 H                     0.152388
     14 H                     0.172590
     15 H                     0.173912
     16 H                     0.125438
     17 H                     0.153451
     18 N                    -0.067452
     19 C                    -0.102380
     20 C                    -0.658549
     21 H                     0.251266
     22 H                     0.144267
     23 H                     0.148352
     24 H                     0.152666
     25 H                     0.157005
     26 H                     0.146091
  ----------------------------------------
  Sum of atomic charges =    -2.000000

                    Cartesian Multipole Moments
 -----------------------------------------------------------------
    Charge (ESU x 10^10)
                -9.6064
    Dipole Moment (Debye)
         X     -15.4956      Y      16.7323      Z      -1.1285
       Tot      22.8333
    Quadrupole Moments (Debye-Ang)
        XX    -129.8594     XY      23.4892     YY    -157.0353
        XZ       3.0677     YZ      -1.1192     ZZ    -101.5797

 Total job time:  84.06s(wall), 636.24s(cpu)
        *  Thank you very much for using Q-Chem.  Have a nice day.  *
