 Q-Chem 5.4, Q-Chem, Inc., Pleasanton, CA (2021)
 Q-Chem 5.4.0 for Intel X86 EM64T Linux

User input:
--------------------------------------------------------------
$molecule
-2 1
C                  0.7618750000      1.1392240000     -1.5261720000
C                 -0.6188910000      0.8924820000     -1.7927520000
C                 -1.4399340000      0.1490510000     -0.9406800000
C                 -1.0156930000     -0.4366440000      0.3144920000
C                  0.3665990000     -0.1954150000      0.5778550000
C                  1.1934740000      0.5276460000     -0.2860120000
O                  1.5112290000      1.8386680000     -2.2949240000
O                 -1.7807770000     -1.0805680000      1.1156720000
S                  2.9052100000      0.6965800000      0.2004580000
C                  3.2057020000      2.4819060000      0.4130600000
C                  3.3782930000      3.3080910000     -0.7004820000
C                  3.2819690000      2.9923630000      1.7087610000
C                  3.5426130000      4.3486280000      1.8991760000
C                  3.6345250000      4.6642480000     -0.4954890000
C                  3.7213830000      5.1872760000      0.7958440000
O                  3.8441360000      0.2295290000     -0.8388790000
O                  3.0767310000      0.1243670000      1.5606950000
H                  3.2461700000      2.8791160000     -1.6865400000
H                  3.1430220000      2.3174180000      2.5445460000
H                  3.7573020000      5.3178460000     -1.3540040000
H                  3.6042470000      4.7500280000      2.9064990000
H                  3.9190980000      6.2454300000      0.9433800000
S                 -3.1339570000     -0.0810250000     -1.4633190000
C                 -4.1773500000      0.7054270000     -0.1919240000
C                 -4.7641880000      1.9366110000     -0.4836660000
C                 -4.3990860000      0.0713890000      1.0333350000
C                 -5.2270730000      0.6924020000      1.9690570000
C                 -5.5929330000      2.5437670000      0.4587970000
C                 -5.8273170000      1.9208630000      1.6874680000
H                 -1.0293610000      1.3090730000     -2.7041110000
H                  0.7739440000     -0.6013300000      1.4954190000
H                 -4.5673710000      2.3936190000     -1.4458610000
H                 -3.8701300000     -0.8516030000      1.2393620000
H                 -5.3954610000      0.2148350000      2.9297350000
H                 -6.0531270000      3.5017990000      0.2351210000
H                 -6.4686300000      2.3961260000      2.4246280000
O                 -3.5281820000     -1.5029290000     -1.5149370000
O                 -3.3712500000      0.7222730000     -2.6902970000
$end
$rem
MAX_SCF_CYCLES=200
BASIS  =  6-311++G(d,p)
GUI  =  2
JOB_TYPE  =  SP
METHOD  =  B3LYP
SOLVENT_METHOD = COSMO
$end
$solvent
dielectric 37.219
opticaldielectric 1.43
$end

--------------------------------------------------------------

             Standard Nuclear Orientation (Angstroms)
    I     Atom           X                Y                Z
 ----------------------------------------------------------------
    1      C      -1.0132902665    -1.0077792881     1.1109048727
    2      C       0.3965173243    -1.0104533803     1.3365077623
    3      C       1.3352555488    -1.0243097538     0.3014200850
    4      C       1.0108614877    -1.0114464519    -1.1103443561
    5      C      -0.3988864913    -1.0153348061    -1.3359062986
    6      C      -1.3375960679    -1.0257285298    -0.3007628447
    7      O      -1.8757309812    -0.9732176458     2.0578655216
    8      O       1.8730504859    -0.9798171039    -2.0577147974
    9      S      -3.0586112776    -1.0620135547    -0.7824493984
   10      C      -3.8062243042     0.4694003900    -0.1353558418
   11      C      -4.1259839093     0.5830102793     1.2200745996
   12      C      -4.0703976781     1.5076905965    -1.0283227848
   13      C      -4.6710373064     2.6772382778    -0.5646006965
   14      C      -4.7230355347     1.7605945366     1.6713654702
   15      C      -5.0003845603     2.8047778488     0.7873958743
   16      O      -3.7993688303    -2.1851400857    -0.1743333626
   17      O      -3.1470885653    -0.9258159709    -2.2591734263
   18      H      -3.8431703900    -0.2232949101     1.8861638368
   19      H      -3.8075786991     1.3785840097    -2.0712279874
   20      H      -4.9637769539     1.8646540375     2.7251812662
   21      H      -4.8798182636     3.4877031534    -1.2568272010
   22      H      -5.4634997771     3.7181225548     1.1505400939
   23      S       3.0561928077    -1.0612341114     0.7839259991
   24      C       3.8068131220     0.4680998939     0.1348284788
   25      C       4.0802948156     1.5038981930     1.0279331320
   26      C       4.1206068396     0.5820396566    -1.2219993988
   27      C       4.7205749789     1.7576076259    -1.6746288950
   28      C       4.6841373447     2.6712632509     0.5628243153
   29      C       5.0072101095     2.7992756063    -0.7906211045
   30      H       0.7332772710    -1.0023136210     2.3656507998
   31      H      -0.7355964093    -1.0107372113    -2.3650933193
   32      H       3.8221694236     1.3745447083     2.0719884081
   33      H       3.8301208574    -0.2221459114    -1.8876263763
   34      H       4.9564283231     1.8620655390    -2.7295169090
   35      H       4.9002177432     3.4797346818     1.2551522653
   36      H       5.4727485037     3.7109862336    -1.1547912355
   37      O       3.7957120139    -2.1864460146     0.1782047181
   38      O       3.1439960239    -0.9226887143     2.2604646628
 ----------------------------------------------------------------

   11   -1941.1213358876      4.14e-06  Convergence criterion met
 Total energy in the final basis set =    -1941.1213358876
    5   -1941.3844146596      7.71e-06  Convergence criterion met
 Total energy in the final basis set =    -1941.3844146596

                    Orbital Energies (a.u.)
 --------------------------------------------------------------

 Alpha MOs
 -- Occupied --
-89.0441 -89.0441 -19.1130 -19.1130 -19.1107 -19.1107 -19.0418 -19.0418
-10.2107 -10.2107 -10.2042 -10.2042 -10.1871 -10.1871 -10.1854 -10.1854
-10.1815 -10.1815 -10.1800 -10.1800 -10.1795 -10.1794 -10.1785 -10.1785
-10.1578 -10.1578  -8.1080  -8.1080  -6.0711  -6.0710  -6.0697  -6.0697
 -6.0686  -6.0686  -1.1016  -1.1015  -0.9970  -0.9969  -0.9667  -0.9634
 -0.8673  -0.8673  -0.8253  -0.7833  -0.7703  -0.7563  -0.7542  -0.7535
 -0.6955  -0.6947  -0.6487  -0.6175  -0.6137  -0.6115  -0.5864  -0.5847
 -0.5576  -0.5344  -0.5250  -0.4938  -0.4840  -0.4833  -0.4770  -0.4739
 -0.4672  -0.4606  -0.4478  -0.4461  -0.4457  -0.4421  -0.4296  -0.4282
 -0.4219  -0.3999  -0.3934  -0.3900  -0.3816  -0.3775  -0.3720  -0.3708
 -0.3610  -0.3492  -0.3467  -0.3448  -0.3374  -0.3346  -0.3224  -0.3213
 -0.3067  -0.3055  -0.2956  -0.2942  -0.2738  -0.2698  -0.2647  -0.2629
 -0.2555  -0.2510  -0.2233  -0.2206  -0.1507

          Ground-State Mulliken Net Atomic Charges

     Atom                 Charge (a.u.)
  ----------------------------------------
      1 C                    -0.495517
      2 C                    -0.339897
      3 C                     0.341420
      4 C                    -0.491180
      5 C                    -0.339462
      6 C                     0.342542
      7 O                    -0.598568
      8 O                    -0.599155
      9 S                     0.303877
     10 C                     0.084274
     11 C                    -0.311493
     12 C                     0.292139
     13 C                    -0.470008
     14 C                    -0.397766
     15 C                    -0.338690
     16 O                    -0.222748
     17 O                    -0.310689
     18 H                     0.292172
     19 H                     0.260260
     20 H                     0.227187
     21 H                     0.226119
     22 H                     0.206186
     23 S                     0.302816
     24 C                     0.081026
     25 C                     0.298985
     26 C                    -0.320559
     27 C                    -0.397048
     28 C                    -0.467263
     29 C                    -0.338477
     30 H                     0.249563
     31 H                     0.249020
     32 H                     0.260604
     33 H                     0.292496
     34 H                     0.227250
     35 H                     0.226211
     36 H                     0.206114
     37 O                    -0.221713
     38 O                    -0.310033
  ----------------------------------------
  Sum of atomic charges =    -2.000004

                    Cartesian Multipole Moments
 -----------------------------------------------------------------
    Charge (ESU x 10^10)
                -9.6064
    Dipole Moment (Debye)
         X       0.0194      Y      18.5519      Z      -0.0015
       Tot      18.5519
    Quadrupole Moments (Debye-Ang)
        XX    -244.5463     XY       0.0331     YY    -187.1181
        XZ      -5.8219     YZ      -0.0496     ZZ    -206.5919

 Total job time:  150.94s(wall), 1153.04s(cpu)
        *  Thank you very much for using Q-Chem.  Have a nice day.  *
