 Q-Chem 5.4, Q-Chem, Inc., Pleasanton, CA (2021)
 Q-Chem 5.4.0 for Intel X86 EM64T Linux

User input:
--------------------------------------------------------------
$molecule
-1 2
C                 -3.0710990000      3.5479720000      1.0671990000
C                 -3.9875690000      2.9250240000      1.8903400000
C                 -3.8460090000      1.5533420000      2.1933720000
C                 -1.9817070000      2.8373630000      0.5159640000
C                 -1.8408940000      1.4577190000      0.8219460000
C                 -2.7898910000      0.8390120000      1.6652280000
C                 -1.0403240000      3.5551690000     -0.3530930000
C                  0.0809520000      2.7742240000     -0.8829480000
C                  0.2089080000      1.3744430000     -0.5856190000
C                 -0.7398820000      0.6658760000      0.2784520000
C                  1.0810630000      3.3337010000     -1.7278480000
C                  2.1054840000      2.5800880000     -2.2620810000
C                  2.2032760000      1.2073370000     -1.9652190000
C                  1.2707960000      0.6253970000     -1.1353230000
O                 -1.2188660000      4.7709680000     -0.6131320000
O                 -0.6124310000     -0.5560870000      0.5360950000
H                 -2.6544090000     -0.2150400000      1.8779470000
H                  1.3137380000     -0.4260590000     -0.8783340000
H                 -3.1557210000      4.5992220000      0.8188910000
O                  1.0427530000      4.6691890000     -2.1296150000
H                  3.0115040000      0.6198410000     -2.3887130000
H                 -4.5672170000      1.0633050000      2.8406320000
C                  1.5516890000      5.6386830000     -1.3184600000
C                  1.3974730000      6.9689440000     -1.7608100000
C                  2.2418520000      5.3874710000     -0.1329460000
C                  2.7911870000      6.4402910000      0.5992720000
C                  1.9598820000      8.0064490000     -1.0254040000
C                  2.6621170000      7.7522530000      0.1542720000
O                  0.7602200000      7.2544490000     -2.9434440000
C                 -0.6636380000      7.0330610000     -2.9380040000
H                 -4.8172350000      3.4891070000      2.3059120000
H                  2.8230940000      3.0722020000     -2.9085210000
H                  2.3472220000      4.3664330000      0.2102560000
H                  3.3220680000      6.2239960000      1.5201830000
H                  1.8341050000      9.0165610000     -1.3996930000
H                  3.0921930000      8.5721760000      0.7189230000
H                 -0.9713960000      7.0189260000     -3.9846730000
H                 -1.1620110000      7.8627120000     -2.4215240000
H                 -0.9212890000      6.0948510000     -2.4458310000
$end
$rem
MAX_SCF_CYCLES=200
BASIS  =  6-311++G(d,p)
GUI  =  2
JOB_TYPE  =  SP
METHOD  =  B3LYP
SOLVENT_METHOD = COSMO
$end
$solvent
dielectric 37.219
opticaldielectric 1.43
$end

--------------------------------------------------------------

             Standard Nuclear Orientation (Angstroms)
    I     Atom           X                Y                Z
 ----------------------------------------------------------------
    1      C      -2.2951580082    -2.5693236230     0.0897642576
    2      C      -3.5377462513    -3.1192152566    -0.1534151551
    3      C      -4.6450336890    -2.2790654884    -0.4012901902
    4      C      -2.1031258768    -1.1697890487     0.0949354933
    5      C      -3.2180558091    -0.3262849488    -0.1546700587
    6      C      -4.4809652922    -0.9087848687    -0.4001729510
    7      C      -0.7575516506    -0.6447976694     0.3604943924
    8      C      -0.6115349703     0.8132704880     0.3360473116
    9      C      -1.7460100418     1.6630258481     0.1014279169
   10      C      -3.0864677526     1.1288124944    -0.1567920841
   11      C       0.6318275812     1.4690221214     0.5621709430
   12      C       0.7506886322     2.8430921649     0.5862417435
   13      C      -0.3779958535     3.6549843240     0.3647963006
   14      C      -1.5989322652     3.0661803711     0.1208195221
   15      O       0.1935411593    -1.4300491188     0.5981230184
   16      O      -4.0680290123     1.8824494269    -0.3674722059
   17      H      -5.3112064137    -0.2373140869    -0.5857990086
   18      H      -2.4900144401     3.6551918222    -0.0594168489
   19      H      -1.4287453767    -3.1907539766     0.2823720871
   20      O       1.7975473211     0.7583452350     0.8493092854
   21      H      -0.2779802029     4.7354081842     0.3851031952
   22      H      -5.6225604676    -2.7117392939    -0.5922287234
   23      C       2.5479317202     0.2435382935    -0.1649904576
   24      C       3.6633181417    -0.5321522222     0.2135168473
   25      C       2.3060286046     0.4795629609    -1.5180060225
   26      C       3.1695365878    -0.0307017553    -2.4877100890
   27      C       4.5204764700    -1.0248185317    -0.7642878371
   28      C       4.2844527488    -0.7763874717    -2.1177869608
   29      O       3.9585709440    -0.7527478305     1.5365402898
   30      C       3.0460015076    -1.6281445413     2.2274176063
   31      H      -3.6645691218    -4.1977089440    -0.1550629531
   32      H       1.7277080008     3.2716541246     0.7780561715
   33      H       1.4419454525     1.0644585679    -1.8055238172
   34      H       2.9622922481     0.1619431574    -3.5349125309
   35      H       5.3759458430    -1.6067642756    -0.4390961016
   36      H       4.9600058696    -1.1702477277    -2.8691669733
   37      H       3.2302274208    -1.4774856494     3.2922150009
   38      H       3.2651030574    -2.6698380931     1.9622439380
   39      H       2.0086976328    -1.4029273529     1.9781502934
 ----------------------------------------------------------------

    9   -1109.9094850356      9.42e-06  Convergence criterion met
 Total energy in the final basis set =    -1109.9094850356
    4   -1109.9887919230      7.55e-06  Convergence criterion met
 Total energy in the final basis set =    -1109.9887919230

                    Orbital Energies (a.u.)
 --------------------------------------------------------------

 Alpha MOs
 -- Occupied --
-19.1631 -19.1416 -19.0810 -19.0776 -10.2401 -10.2400 -10.2308 -10.2282
-10.2278 -10.2028 -10.1852 -10.1795 -10.1769 -10.1755 -10.1749 -10.1745
-10.1742 -10.1741 -10.1737 -10.1736 -10.1731 -10.1709 -10.1708 -10.1708
-10.1703  -1.0880  -1.0513  -1.0092  -1.0053  -0.8677  -0.8576  -0.8504
 -0.7892  -0.7703  -0.7541  -0.7518  -0.7434  -0.7331  -0.6841  -0.6722
 -0.6492  -0.6297  -0.6224  -0.6005  -0.5811  -0.5642  -0.5439  -0.5343
 -0.5216  -0.5028  -0.4952  -0.4797  -0.4725  -0.4650  -0.4613  -0.4574
 -0.4539  -0.4385  -0.4322  -0.4260  -0.4244  -0.4194  -0.4181  -0.4117
 -0.4068  -0.3940  -0.3849  -0.3786  -0.3752  -0.3668  -0.3650  -0.3592
 -0.3520  -0.3476  -0.3410  -0.3369  -0.3305  -0.2848  -0.2725  -0.2588
 -0.2558  -0.2542  -0.2505  -0.2496  -0.2395  -0.2244  -0.1456

 Beta MOs
 -- Occupied --
-19.1631 -19.1416 -19.0756 -19.0720 -10.2401 -10.2399 -10.2293 -10.2278
-10.2264 -10.2028 -10.1843 -10.1785 -10.1763 -10.1749 -10.1745 -10.1741
-10.1741 -10.1737 -10.1735 -10.1732 -10.1727 -10.1709 -10.1708 -10.1708
-10.1703  -1.0879  -1.0513  -0.9997  -0.9954  -0.8656  -0.8565  -0.8497
 -0.7853  -0.7692  -0.7541  -0.7498  -0.7415  -0.7321  -0.6837  -0.6654
 -0.6481  -0.6283  -0.6200  -0.6004  -0.5805  -0.5629  -0.5416  -0.5327
 -0.5211  -0.5015  -0.4951  -0.4783  -0.4705  -0.4646  -0.4607  -0.4567
 -0.4531  -0.4375  -0.4312  -0.4243  -0.4193  -0.4170  -0.4119  -0.4085
 -0.4035  -0.3926  -0.3782  -0.3741  -0.3668  -0.3639  -0.3626  -0.3562
 -0.3508  -0.3452  -0.3360  -0.3336  -0.3274  -0.2847  -0.2553  -0.2522
 -0.2512  -0.2470  -0.2464  -0.2451  -0.2350  -0.2236

          Ground-State Mulliken Net Atomic Charges

     Atom                 Charge (a.u.)    Spin (a.u.)
  --------------------------------------------------------
      1 C                    -0.125804       0.021894
      2 C                    -0.434490       0.039622
      3 C                    -0.552878       0.027041
      4 C                     0.165239       0.030067
      5 C                     0.271151       0.025610
      6 C                    -0.053596       0.027844
      7 C                    -0.373352       0.081391
      8 C                     0.358465       0.056083
      9 C                     0.684225       0.063585
     10 C                    -0.616965       0.101749
     11 C                    -0.262482       0.016362
     12 C                     0.214380       0.041967
     13 C                    -0.487840       0.049491
     14 C                    -0.114367       0.021471
     15 O                    -0.404479       0.212177
     16 O                    -0.491904       0.198350
     17 H                     0.187648      -0.001424
     18 H                     0.193215      -0.001372
     19 H                     0.165902      -0.001098
     20 O                    -0.055670      -0.002051
     21 H                     0.221209      -0.003889
     22 H                     0.200936      -0.002404
     23 C                     0.479449      -0.001513
     24 C                    -0.527454       0.014589
     25 C                    -0.235699      -0.013773
     26 C                    -0.442093       0.001863
     27 C                     0.058638       0.000914
     28 C                    -0.304321       0.000339
     29 O                    -0.206844      -0.000128
     30 C                    -0.306026       0.000479
     31 H                     0.207030      -0.003103
     32 H                     0.211771      -0.003232
     33 H                     0.196862       0.000008
     34 H                     0.224021       0.000015
     35 H                     0.224505      -0.000036
     36 H                     0.198655       0.000105
     37 H                     0.164338       0.000108
     38 H                     0.145237      -0.000147
     39 H                     0.223387       0.001044
  --------------------------------------------------------
  Sum of atomic charges =    -1.000001

                    Cartesian Multipole Moments
 -----------------------------------------------------------------
    Charge (ESU x 10^10)
                -4.8032
    Dipole Moment (Debye)
         X       5.8398      Y      -1.8504      Z      -1.6266
       Tot       6.3382
    Quadrupole Moments (Debye-Ang)
        XX    -196.1592     XY      16.4854     YY    -149.8238
        XZ      -8.1819     YZ       1.0615     ZZ    -148.7184

 Total job time:  207.31s(wall), 1539.61s(cpu)
        *  Thank you very much for using Q-Chem.  Have a nice day.  *
