 Gaussian 16, Revision A.03,
 Gaussian 16:  ES64L-G16RevA.03 25-Dec-2016

 --------------------------------------
 #P UB3LYP/6-311++G(d,p) nosym opt freq
 --------------------------------------

 -------
 Radical
 -------
 Symbolic Z-matrix:
 Charge = -1 Multiplicity = 2

 SCF Done:  E(UB3LYP) =  -1502.76005658     A.U. after   21 cycles
 SCF Done:  E(UB3LYP) =  -1502.76005656     A.U. after    9 cycles
 Optimization completed.
    -- Stationary point found.
 Normal termination of Gaussian 16 at Sun Jan  7 05:21:52 2024.

 ----------------------------------------------------------------------
 #P Geom=AllCheck Guess=TCheck SCRF=Check GenChk UB3LYP/6-311++G(d,p) F
 req
 ----------------------------------------------------------------------

 Structure from the checkpoint file:  "195-rad.chk"
 -------
 Radical
 -------
 Charge = -1 Multiplicity = 2

                          Input orientation:
 ---------------------------------------------------------------------
 Center     Atomic      Atomic             Coordinates (Angstroms)
 Number     Number       Type             X           Y           Z
 ---------------------------------------------------------------------
      1          6           0        4.792412   -3.042122    0.317636
      2          6           0        5.702038   -2.243533   -0.346396
      3          6           0        5.272148   -1.055651   -0.974386
      4          6           0        3.428090   -2.686753    0.378968
      5          6           0        2.994702   -1.490763   -0.253472
      6          6           0        3.941709   -0.689753   -0.926262
      7          6           0        2.489124   -3.544743    1.085582
      8          6           0        1.101367   -3.139679    1.118632
      9          6           0        0.663717   -1.934796    0.483605
     10          6           0        1.596637   -1.080124   -0.218099
     11          6           0        0.163368   -3.964676    1.804721
     12          6           0       -1.177139   -3.571923    1.836544
     13          6           0       -0.713401   -1.572069    0.550765
     14          6           0       -1.614270   -2.384113    1.221369
     15          8           0        2.883890   -4.618261    1.655030
     16          8           0        1.217374   -0.004247   -0.786145
     17          8           0        0.568500   -5.083923    2.420439
     18          1           0        5.096905   -3.959066    0.807510
     19          1           0        6.748515   -2.528681   -0.386284
     20          1           0        5.989275   -0.429605   -1.495863
     21          1           0        1.568675   -5.134478    2.232904
     22          8           0       -1.162151   -0.438914   -0.031801
     23          1           0       -2.656024   -2.099908    1.272218
     24          1           0       -0.352842   -0.021641   -0.449984
     25          1           0        3.586531    0.217219   -1.400370
     26         16           0       -2.410586   -4.593081    2.616782
     27          8           0       -3.657419   -3.839047    2.659453
     28          8           0       -2.415525   -5.951874    2.079534
     29          8           0       -1.900737   -4.674184    4.183986
     30          6           0       -1.415712   -5.936242    4.690586
     31          1           0       -0.570008   -6.284459    4.100800
     32          1           0       -2.214697   -6.679727    4.696898
     33          1           0       -1.102794   -5.713571    5.710751
 ---------------------------------------------------------------------

 SCF Done:  E(UB3LYP) =  -1502.76005656     A.U. after    1 cycles

 Alpha  occ. eigenvalues --  -88.97806 -19.07030 -19.03527 -19.02533 -19.02364
 Alpha  occ. eigenvalues --  -19.02240 -18.99527 -18.99080 -10.14979 -10.14041
 Alpha  occ. eigenvalues --  -10.13653 -10.13491 -10.13412 -10.10765 -10.08848
 Alpha  occ. eigenvalues --  -10.08797 -10.08530 -10.08498 -10.08476 -10.08421
 Alpha  occ. eigenvalues --  -10.08313 -10.08237 -10.08001  -8.03838  -6.00232
 Alpha  occ. eigenvalues --   -6.00043  -5.99884  -1.04526  -0.96386  -0.95065
 Alpha  occ. eigenvalues --   -0.93965  -0.91617  -0.91176  -0.90697  -0.77409
 Alpha  occ. eigenvalues --   -0.75947  -0.70770  -0.66711  -0.66393  -0.64778
 Alpha  occ. eigenvalues --   -0.63394  -0.59104  -0.56543  -0.54498  -0.52242
 Alpha  occ. eigenvalues --   -0.50241  -0.48317  -0.45764  -0.44843  -0.43446
 Alpha  occ. eigenvalues --   -0.41902  -0.41439  -0.39936  -0.38715  -0.38178
 Alpha  occ. eigenvalues --   -0.37336  -0.36460  -0.35259  -0.34428  -0.34093
 Alpha  occ. eigenvalues --   -0.33577  -0.33170  -0.32667  -0.32280  -0.31110
 Alpha  occ. eigenvalues --   -0.30800  -0.30323  -0.29512  -0.28039  -0.27262
 Alpha  occ. eigenvalues --   -0.27063  -0.26039  -0.25895  -0.25239  -0.24600
 Alpha  occ. eigenvalues --   -0.23593  -0.22595  -0.21714  -0.21230  -0.20537
 Alpha  occ. eigenvalues --   -0.17892  -0.16792  -0.16457  -0.16125  -0.15027
 Alpha  occ. eigenvalues --   -0.11830  -0.05175
 Alpha virt. eigenvalues --    0.03996   0.05902   0.06757   0.07575   0.08768
 Alpha virt. eigenvalues --    0.09551   0.09954   0.10444   0.10776   0.11467
 Alpha virt. eigenvalues --    0.11845   0.12830   0.13197   0.13563   0.13686

  Beta  occ. eigenvalues --  -88.97806 -19.07021 -19.03507 -19.02488 -19.02352
  Beta  occ. eigenvalues --  -19.02240 -18.99058 -18.98545 -10.14975 -10.13857
  Beta  occ. eigenvalues --  -10.13490 -10.13481 -10.13395 -10.10663 -10.08805
  Beta  occ. eigenvalues --  -10.08753 -10.08483 -10.08465 -10.08411 -10.08374
  Beta  occ. eigenvalues --  -10.08311 -10.08235 -10.07827  -8.03838  -6.00229
  Beta  occ. eigenvalues --   -6.00043  -5.99888  -1.04510  -0.96267  -0.94875
  Beta  occ. eigenvalues --   -0.93948  -0.91595  -0.90428  -0.89851  -0.77168
  Beta  occ. eigenvalues --   -0.75778  -0.70398  -0.66530  -0.66203  -0.64550
  Beta  occ. eigenvalues --   -0.63270  -0.58579  -0.56277  -0.54258  -0.52132
  Beta  occ. eigenvalues --   -0.50161  -0.48170  -0.45639  -0.44695  -0.43324
  Beta  occ. eigenvalues --   -0.41839  -0.41263  -0.39859  -0.38688  -0.37986
  Beta  occ. eigenvalues --   -0.37228  -0.36362  -0.35193  -0.34032  -0.33690
  Beta  occ. eigenvalues --   -0.33498  -0.33032  -0.32316  -0.32012  -0.30890
  Beta  occ. eigenvalues --   -0.30071  -0.29651  -0.29305  -0.27919  -0.26944
  Beta  occ. eigenvalues --   -0.25989  -0.25723  -0.25180  -0.24874  -0.24452
  Beta  occ. eigenvalues --   -0.23510  -0.22503  -0.21683  -0.20987  -0.20068
  Beta  occ. eigenvalues --   -0.16193  -0.16050  -0.15998  -0.15644  -0.14615
  Beta  occ. eigenvalues --   -0.10758
  Beta virt. eigenvalues --    0.00278   0.04965   0.06753   0.06891   0.07648
  Beta virt. eigenvalues --    0.08765   0.09877   0.09997   0.10464   0.10792
  Beta virt. eigenvalues --    0.11506   0.11865   0.13105   0.13385   0.13634

 Mulliken charges and spin densities:
               1          2
     1  C   -0.017132   0.024522
     2  C   -0.451282   0.034724
     3  C   -0.414490   0.033643
     4  C    0.220861   0.022615
     5  C    0.261793   0.028888
     6  C   -0.006345   0.027402
     7  C   -0.356145   0.103486
     8  C    0.317660   0.005932
     9  C    0.695864   0.030243
    10  C   -0.434335   0.087956
    11  C   -0.084962   0.008140
    12  C   -0.989109   0.062729
    13  C   -0.369329   0.023673
    14  C   -0.173653   0.125158
    15  O   -0.410517   0.172098
    16  O   -0.407894   0.196932
    17  O   -0.406024   0.008805
    18  H    0.162736  -0.000522
    19  H    0.139419  -0.002979
    20  H    0.136826  -0.002821
    21  H    0.448197  -0.002612
    22  O   -0.352708   0.016139
    23  H    0.231867  -0.009856
    24  H    0.350910  -0.004144
    25  H    0.168818  -0.000799
    26  S    1.101805   0.004024
    27  O   -0.141085   0.000157
    28  O   -0.203130   0.002941
    29  O   -0.169502   0.002560
    30  C   -0.346965   0.000412
    31  H    0.204687  -0.000119
    32  H    0.167502   0.000558
    33  H    0.125664   0.000113
 Sum of Mulliken charges =  -1.00000   1.00000

 Dipole moment (field-independent basis, Debye):
    X=              0.9466    Y=             13.7744    Z=             -4.4853  Tot=             14.5171
 Quadrupole moment (field-independent basis, Debye-Ang):
   XX=           -182.7943   YY=           -209.3957   ZZ=           -154.3784
   XY=             -8.6545   XZ=              9.9083   YZ=             20.3199

  Exact polarizability: 374.732  27.985 239.335 -68.399 -79.256 189.654
 Approx polarizability: 578.797 -12.035 426.963 -69.434-128.084 295.140

                      1                      2                      3
                      A                      A                      A
 Frequencies --     35.7299                38.4352                72.2362
 Red. masses --      7.4151                 5.7120                 1.6924
 Frc consts  --      0.0056                 0.0050                 0.0052
 IR Inten    --      0.2199                 1.2479                 0.8717

                      4                      5                      6
                      A                      A                      A
 Frequencies --     85.2154                94.5906               109.9651
 Red. masses --      3.2618                 5.6608                 5.0063
 Frc consts  --      0.0140                 0.0298                 0.0357
 IR Inten    --      1.8772                 1.3440                 3.1980

                      7                      8                      9
                      A                      A                      A
 Frequencies --    130.0426               145.9236               157.1218
 Red. masses --      2.7544                 5.8918                 8.8873
 Frc consts  --      0.0274                 0.0739                 0.1293
 IR Inten    --      2.4663                 0.0706                 0.6274

                     10                     11                     12
                      A                      A                      A
 Frequencies --    179.1753               206.8942               233.5159
 Red. masses --      9.2063                 7.8052                 7.9258
 Frc consts  --      0.1741                 0.1968                 0.2546
 IR Inten    --      1.0907                 1.1555                 0.3936

                     13                     14                     15
                      A                      A                      A
 Frequencies --    241.3137               257.5989               280.3397
 Red. masses --      7.9096                 4.8841                 7.1860
 Frc consts  --      0.2714                 0.1910                 0.3327
 IR Inten    --      2.0178                 7.4562                 1.9981

                     16                     17                     18
                      A                      A                      A
 Frequencies --    297.2678               336.4834               361.8156
 Red. masses --      7.5956                 6.7801                 6.4712
 Frc consts  --      0.3955                 0.4523                 0.4991
 IR Inten    --      1.6628                 1.8965                 8.4085

                     19                     20                     21
                      A                      A                      A
 Frequencies --    383.7125               409.9311               414.1248
 Red. masses --     10.3419                11.5285                 7.7320
 Frc consts  --      0.8971                 1.1414                 0.7813
 IR Inten    --      2.3552                 3.1616                 2.9453

                     22                     23                     24
                      A                      A                      A
 Frequencies --    438.6771               439.2176               459.8398
 Red. masses --      7.1343                 3.9339                 9.7607
 Frc consts  --      0.8089                 0.4471                 1.2160
 IR Inten    --     38.5397                 4.6512                 6.2824

                     25                     26                     27
                      A                      A                      A
 Frequencies --    463.6438               486.3088               496.4635
 Red. masses --      7.9674                10.1135                 7.5008
 Frc consts  --      1.0091                 1.4092                 1.0893
 IR Inten    --      3.1847                18.6184                13.3039

                     28                     29                     30
                      A                      A                      A
 Frequencies --    512.3147               535.4715               554.3061
 Red. masses --      5.7189                 8.4742                 8.4282
 Frc consts  --      0.8844                 1.4316                 1.5257
 IR Inten    --      5.9566                27.2430                 4.4851

                     31                     32                     33
                      A                      A                      A
 Frequencies --    593.3313               617.3479               653.3368
 Red. masses --     10.6875                 4.5174                 6.8618
 Frc consts  --      2.2168                 1.0144                 1.7257
 IR Inten    --    143.6125                12.7600                64.0317

                     34                     35                     36
                      A                      A                      A
 Frequencies --    658.0163               678.8750               692.9081
 Red. masses --      6.6195                 9.7974                 7.1474
 Frc consts  --      1.6887                 2.6604                 2.0219
 IR Inten    --      0.9331               239.3023                91.4771

                     37                     38                     39
                      A                      A                      A
 Frequencies --    716.8056               735.0658               738.0315
 Red. masses --      3.7275                 3.9782                 6.4729
 Frc consts  --      1.1284                 1.2665                 2.0773
 IR Inten    --      7.2546                42.8797                 9.0218

                     40                     41                     42
                      A                      A                      A
 Frequencies --    782.1384               787.8280               799.1487
 Red. masses --      4.2009                 2.1810                 8.1379
 Frc consts  --      1.5141                 0.7976                 3.0621
 IR Inten    --      6.7597                22.2175                19.9953

                     43                     44                     45
                      A                      A                      A
 Frequencies --    862.1037               878.8397               894.2689
 Red. masses --      1.4167                 1.4306                 1.0640
 Frc consts  --      0.6204                 0.6510                 0.5014
 IR Inten    --     35.9723                 0.1309                61.1929

                     46                     47                     48
                      A                      A                      A
 Frequencies --    908.0035               921.2732               972.9100
 Red. masses --      8.0155                 8.8020                 1.0620
 Frc consts  --      3.8936                 4.4016                 0.5923
 IR Inten    --     58.0240                56.0035                70.2782

                     49                     50                     51
                      A                      A                      A
 Frequencies --    986.0557               990.9449              1008.4455
 Red. masses --      1.3625                 1.2747                 7.1358
 Frc consts  --      0.7805                 0.7375                 4.2756
 IR Inten    --      1.0091                 0.1603               243.6029

                     52                     53                     54
                      A                      A                      A
 Frequencies --   1010.0817              1039.2416              1100.9191
 Red. masses --      8.2801                 2.2509                 5.0131
 Frc consts  --      4.9773                 1.4323                 3.5799
 IR Inten    --     23.5143                21.0740               123.9486

                     55                     56                     57
                      A                      A                      A
 Frequencies --   1113.8154              1119.1281              1158.0355
 Red. masses --      2.2700                 6.7816                 1.2926
 Frc consts  --      1.6592                 5.0043                 1.0213
 IR Inten    --     41.4916               257.7423                11.1923

                     58                     59                     60
                      A                      A                      A
 Frequencies --   1170.0216              1186.1509              1188.7114
 Red. masses --      1.2438                 1.3290                 1.8098
 Frc consts  --      1.0032                 1.1017                 1.5067
 IR Inten    --      1.0302                 7.8667                31.0278

                     61                     62                     63
                      A                      A                      A
 Frequencies --   1224.3648              1252.2379              1279.0078
 Red. masses --      2.0214                 2.8664                 2.6256
 Frc consts  --      1.7854                 2.6483                 2.5306
 IR Inten    --      5.6554                 3.1416                50.0503

                     64                     65                     66
                      A                      A                      A
 Frequencies --   1288.0744              1297.1525              1310.6838
 Red. masses --      8.5481                 9.8031                 6.1094
 Frc consts  --      8.3561                 9.7184                 6.1836
 IR Inten    --     64.2171               130.1637                24.1472

                     67                     68                     69
                      A                      A                      A
 Frequencies --   1324.8434              1362.6499              1377.0320
 Red. masses --      3.4409                10.3391                 7.2261
 Frc consts  --      3.5584                11.3111                 8.0731
 IR Inten    --    227.3690                 2.0010                14.0390

                     70                     71                     72
                      A                      A                      A
 Frequencies --   1402.0192              1453.1794              1461.2379
 Red. masses --      3.0940                 6.2879                 1.1638
 Frc consts  --      3.5832                 7.8233                 1.4641
 IR Inten    --    139.0545                20.6525                37.7173

                     73                     74                     75
                      A                      A                      A
 Frequencies --   1478.2591              1481.5674              1487.0580
 Red. masses --      1.3523                 1.7446                 2.5277
 Frc consts  --      1.7411                 2.2563                 3.2933
 IR Inten    --    170.6719               214.5882               103.5327

                     76                     77                     78
                      A                      A                      A
 Frequencies --   1500.3710              1505.9759              1531.5101
 Red. masses --      1.3582                 1.9045                 6.1781
 Frc consts  --      1.8014                 2.5449                 8.5378
 IR Inten    --     54.4064               287.2645               351.1582

                     79                     80                     81
                      A                      A                      A
 Frequencies --   1569.2959              1590.1653              1630.1201
 Red. masses --      6.1268                 1.8937                 5.7370
 Frc consts  --      8.8898                 2.8213                 8.9820
 IR Inten    --     99.7497               103.1630                 0.3230

                     82                     83                     84
                      A                      A                      A
 Frequencies --   1642.3874              1647.9687              2751.1458
 Red. masses --      4.6451                 2.0106                 1.0794
 Frc consts  --      7.3824                 3.2172                 4.8136
 IR Inten    --      2.8084                76.4710               440.9986

                     85                     86                     87
                      A                      A                      A
 Frequencies --   3044.4691              3051.7855              3122.0628
 Red. masses --      1.0300                 1.0719                 1.1053
 Frc consts  --      5.6246                 5.8819                 6.3474
 IR Inten    --     96.4705               263.1765                19.7930

                     88                     89                     90
                      A                      A                      A
 Frequencies --   3145.5694              3151.9432              3163.3965
 Red. masses --      1.0854                 1.1063                 1.0915
 Frc consts  --      6.3276                 6.4756                 6.4355
 IR Inten    --     13.8837                 3.6174                40.5651

                     91                     92                     93
                      A                      A                      A
 Frequencies --   3191.7177              3193.9641              3218.9666
 Red. masses --      1.0917                 1.0932                 1.0900
 Frc consts  --      6.5525                 6.5709                 6.6543
 IR Inten    --      5.3271                24.6365                10.8082

 - Thermochemistry -
 -------------------
 Temperature   298.150 Kelvin.  Pressure   1.00000 Atm.
 Atom     1 has atomic number  6 and mass  12.00000

 Molecular mass:   334.01472 amu.
 Principal axes and moments of inertia in atomic units:
                           1         2         3
     Eigenvalues --  3447.87442********************
           X            0.79832  -0.57945   0.16409
           Y            0.41284   0.72492   0.55141
           Z           -0.43847  -0.37245   0.81794
 This molecule is an asymmetric top.
 Rotational symmetry number  1.
 Warning -- assumption of classical behavior for rotation
           may cause significant error
 Rotational temperatures (Kelvin)      0.02512     0.00723     0.00580
 Rotational constants (GHZ):           0.52344     0.15074     0.12086
 Zero-point vibrational energy     597843.6 (Joules/Mol)
                                  142.88805 (Kcal/Mol)
 Warning -- explicit consideration of  32 degrees of freedom as
           vibrations may cause significant error
 Vibrational temperatures:     51.41    55.30   103.93   122.61   136.09
          (Kelvin)            158.22   187.10   209.95   226.06   257.79
                              297.67   335.98   347.20   370.63   403.35
                              427.70   484.12   520.57   552.08   589.80
                              595.83   631.16   631.94   661.61   667.08
                              699.69   714.30   737.11   770.42   797.52
                              853.67   888.23   940.01   946.74   976.75
                              996.94  1031.32  1057.60  1061.86  1125.32
                             1133.51  1149.80  1240.37  1264.45  1286.65
                             1306.41  1325.51  1399.80  1418.71  1425.75
                             1450.93  1453.28  1495.24  1583.98  1602.53
                             1610.18  1666.15  1683.40  1706.61  1710.29
                             1761.59  1801.69  1840.21  1853.25  1866.31
                             1885.78  1906.15  1960.55  1981.24  2017.19
                             2090.80  2102.40  2126.89  2131.65  2139.54
                             2158.70  2166.76  2203.50  2257.87  2287.89
                             2345.38  2363.03  2371.06  3958.29  4380.31
                             4390.84  4491.95  4525.77  4534.94  4551.42
                             4592.17  4595.40  4631.37

 Zero-point correction=                           0.227707 (Hartree/Particle)
 Thermal correction to Energy=                    0.246671
 Thermal correction to Enthalpy=                  0.247615
 Thermal correction to Gibbs Free Energy=         0.179586
 Sum of electronic and zero-point Energies=          -1502.532350
 Sum of electronic and thermal Energies=             -1502.513385
 Sum of electronic and thermal Enthalpies=           -1502.512441
 Sum of electronic and thermal Free Energies=        -1502.580471

                     E (Thermal)             CV                S
                      KCal/Mol        Cal/Mol-Kelvin    Cal/Mol-Kelvin
 Total                  154.789             73.665            143.181
 Electronic               0.000              0.000              1.377
 Translational            0.889              2.981             43.313
 Rotational               0.889              2.981             34.776
 Vibrational            153.011             67.704             63.714
 Vibration     1          0.594              1.982              5.483
 Vibration     2          0.594              1.982              5.338
 Vibration     3          0.598              1.967              4.091
 Vibration     4          0.601              1.959              3.767
 Vibration     5          0.603              1.953              3.563
 Vibration     6          0.606              1.941              3.270
 Vibration     7          0.612              1.923              2.945
 Vibration     8          0.617              1.907              2.725
 Vibration     9          0.621              1.895              2.584
 Vibration    10          0.629              1.868              2.337
 Vibration    11          0.641              1.830              2.071
 Vibration    12          0.654              1.790              1.852
 Vibration    13          0.658              1.777              1.793
 Vibration    14          0.667              1.750              1.678
 Vibration    15          0.680              1.710              1.532
 Vibration    16          0.691              1.679              1.432
 Vibration    17          0.717              1.603              1.229
 Vibration    18          0.736              1.551              1.114
 Vibration    19          0.753              1.505              1.024
 Vibration    20          0.774              1.449              0.927
 Vibration    21          0.778              1.440              0.912
 Vibration    22          0.799              1.386              0.831
 Vibration    23          0.799              1.385              0.829
 Vibration    24          0.818              1.339              0.767
 Vibration    25          0.821              1.331              0.756
 Vibration    26          0.842              1.280              0.693
 Vibration    27          0.852              1.258              0.667
 Vibration    28          0.867              1.223              0.628
 Vibration    29          0.890              1.172              0.575
 Vibration    30          0.910              1.130              0.535
 Vibration    31          0.951              1.046              0.461
 Vibration    32          0.977              0.995              0.421

                           ! Non-Optimized Parameters !
 Normal termination of Gaussian 16 at Sun Jan  7 07:54:00 2024.
