 Gaussian 16, Revision A.03,
 Gaussian 16:  ES64L-G16RevA.03 25-Dec-2016

 ----------------------------------------------------------------
 #P UB3LYP/6-311++G(d,p) SCRF=(PCM,Solvent=n,n-DiMethylFormamide)
 ----------------------------------------------------------------

 ------------------
 Radical PCM in DMF
 ------------------
 Symbolic Z-matrix:
 Charge = -1 Multiplicity = 2

                         Standard orientation:
 ---------------------------------------------------------------------
 Center     Atomic      Atomic             Coordinates (Angstroms)
 Number     Number       Type             X           Y           Z
 ---------------------------------------------------------------------
      1          6           0       -3.769345   -2.046031    0.064169
      2          6           0       -5.117838   -1.754603    0.011836
      3          6           0       -5.547590   -0.413264   -0.067938
      4          6           0       -2.805606   -1.015497    0.039068
      5          6           0       -3.237916    0.335388   -0.041025
      6          6           0       -4.620997    0.609980   -0.093675
      7          6           0       -1.390276   -1.348460    0.094585
      8          6           0       -0.441075   -0.257870    0.068674
      9          6           0       -0.874836    1.102875   -0.013568
     10          6           0       -2.281810    1.435146   -0.070249
     11          6           0        0.950698   -0.559970    0.122378
     12          6           0        1.866921    0.494590    0.096608
     13          6           0        0.098599    2.144002   -0.045423
     14          6           0        1.448631    1.835310    0.007619
     15          8           0       -1.006026   -2.565042    0.164094
     16          8           0       -2.678736    2.643835   -0.144744
     17          8           0        1.366194   -1.832852    0.177972
     18          1           0       -3.413617   -3.067358    0.126042
     19          1           0       -5.848668   -2.556779    0.032260
     20          1           0       -6.608340   -0.186819   -0.108876
     21          1           0        0.509357   -2.383847    0.195583
     22          8           0       -0.273324    3.439976   -0.128642
     23          1           0        2.180955    2.629939   -0.021977
     24          1           0       -1.274891    3.423606   -0.152510
     25          1           0       -4.925327    1.647864   -0.154562
     26         16           0        3.616598    0.188854    0.231087
     27          8           0        4.313223    1.444507   -0.019972
     28          8           0        3.946537   -0.584596    1.426032
     29          8           0        3.939509   -0.754828   -1.083388
     30          6           0        4.302459   -2.136296   -0.872448
     31          1           0        3.513704   -2.660412   -0.336270
     32          1           0        5.248753   -2.206353   -0.333182
     33          1           0        4.413379   -2.541299   -1.878383
 ---------------------------------------------------------------------

 SCF Done:  E(UB3LYP) =  -1502.82789277     A.U. after   19 cycles

 The electronic state is 2-A.
 Alpha  occ. eigenvalues --  -89.09075 -19.17591 -19.14627 -19.13919 -19.13773
 Alpha  occ. eigenvalues --  -19.13689 -19.10561 -19.10163 -10.26049 -10.24963
 Alpha  occ. eigenvalues --  -10.24591 -10.24500 -10.22506 -10.21795 -10.19416
 Alpha  occ. eigenvalues --  -10.19362 -10.18996 -10.18866 -10.18816 -10.18325
 Alpha  occ. eigenvalues --  -10.18271 -10.18135 -10.18073  -8.15106  -6.11484
 Alpha  occ. eigenvalues --   -6.11327  -6.11154  -1.15726  -1.07494  -1.06399
 Alpha  occ. eigenvalues --   -1.04665  -1.03084  -1.02239  -1.01846  -0.87953
 Alpha  occ. eigenvalues --   -0.86484  -0.81459  -0.77121  -0.76480  -0.75459
 Alpha  occ. eigenvalues --   -0.73605  -0.69741  -0.67038  -0.64875  -0.62636
 Alpha  occ. eigenvalues --   -0.61126  -0.58616  -0.56222  -0.55307  -0.54160
 Alpha  occ. eigenvalues --   -0.52960  -0.52505  -0.50614  -0.49463  -0.48444
 Alpha  occ. eigenvalues --   -0.47664  -0.46431  -0.45811  -0.45303  -0.44506
 Alpha  occ. eigenvalues --   -0.43852  -0.43682  -0.43483  -0.42854  -0.42043
 Alpha  occ. eigenvalues --   -0.41825  -0.41223  -0.39938  -0.39135  -0.38387
 Alpha  occ. eigenvalues --   -0.37028  -0.36782  -0.36196  -0.35999  -0.34945
 Alpha  occ. eigenvalues --   -0.34800  -0.33778  -0.32767  -0.32488  -0.31539
 Alpha  occ. eigenvalues --   -0.28787  -0.27540  -0.26845  -0.26420  -0.26091
 Alpha  occ. eigenvalues --   -0.22974  -0.16076
 Alpha virt. eigenvalues --   -0.06509  -0.04533  -0.00948  -0.00387   0.00235
 Alpha virt. eigenvalues --    0.00681   0.01256   0.01644   0.02327   0.02968
 Alpha virt. eigenvalues --    0.03186   0.03564   0.04057   0.04413   0.04688

  Beta  occ. eigenvalues --  -89.09075 -19.17580 -19.14612 -19.13877 -19.13760
  Beta  occ. eigenvalues --  -19.13689 -19.10117 -19.09653 -10.26051 -10.24768
  Beta  occ. eigenvalues --  -10.24484 -10.24396 -10.22505 -10.21682 -10.19386
  Beta  occ. eigenvalues --  -10.19304 -10.18822 -10.18815 -10.18774 -10.18293
  Beta  occ. eigenvalues --  -10.18236 -10.18122 -10.18056  -8.15106  -6.11481
  Beta  occ. eigenvalues --   -6.11328  -6.11157  -1.15707  -1.07387  -1.06227
  Beta  occ. eigenvalues --   -1.04646  -1.03064  -1.01516  -1.01022  -0.87686
  Beta  occ. eigenvalues --   -0.86330  -0.81093  -0.76915  -0.76256  -0.75235
  Beta  occ. eigenvalues --   -0.73493  -0.69210  -0.66796  -0.64623  -0.62519
  Beta  occ. eigenvalues --   -0.61043  -0.58477  -0.56116  -0.55142  -0.54034
  Beta  occ. eigenvalues --   -0.52898  -0.52317  -0.50522  -0.49433  -0.48246
  Beta  occ. eigenvalues --   -0.47528  -0.46321  -0.45673  -0.44707  -0.44358
  Beta  occ. eigenvalues --   -0.43672  -0.43535  -0.43227  -0.42660  -0.41856
  Beta  occ. eigenvalues --   -0.41059  -0.40406  -0.39870  -0.38995  -0.36960
  Beta  occ. eigenvalues --   -0.36762  -0.36673  -0.35992  -0.35304  -0.34842
  Beta  occ. eigenvalues --   -0.34706  -0.33671  -0.32746  -0.32156  -0.31132
  Beta  occ. eigenvalues --   -0.27153  -0.27079  -0.26179  -0.25926  -0.25702
  Beta  occ. eigenvalues --   -0.21923
  Beta virt. eigenvalues --   -0.10622  -0.05448  -0.03454  -0.00647  -0.00361
  Beta virt. eigenvalues --    0.00244   0.00716   0.01307   0.01683   0.02586
  Beta virt. eigenvalues --    0.03112   0.03373   0.03697   0.04080   0.04627

 Mulliken charges and spin densities:
               1          2
     1  C   -0.004731   0.031870
     2  C   -0.482406   0.029062
     3  C   -0.448997   0.024654
     4  C    0.151693   0.006142
     5  C    0.192732   0.007067
     6  C    0.000587   0.037882
     7  C   -0.284386   0.114349
     8  C    0.329334   0.015992
     9  C    0.713892   0.042450
    10  C   -0.349286   0.106899
    11  C   -0.079275   0.003078
    12  C   -0.990257   0.069277
    13  C   -0.331248   0.022104
    14  C   -0.197227   0.129474
    15  O   -0.460603   0.162384
    16  O   -0.463730   0.186405
    17  O   -0.427825   0.007497
    18  H    0.174656  -0.001000
    19  H    0.194506  -0.002470
    20  H    0.191921  -0.002106
    21  H    0.455512  -0.002321
    22  O   -0.386296   0.015044
    23  H    0.238662  -0.010232
    24  H    0.363931  -0.003859
    25  H    0.178080  -0.001469
    26  S    1.163161   0.004696
    27  O   -0.195567   0.000214
    28  O   -0.257946   0.002961
    29  O   -0.199445   0.002992
    30  C   -0.346104   0.000487
    31  H    0.205076  -0.000032
    32  H    0.188836   0.000416
    33  H    0.162748   0.000092
 Sum of Mulliken charges =  -1.00000   1.00000

 Dipole moment (field-independent basis, Debye):
    X=             -3.7670    Y=             -5.1244    Z=             -1.7626  Tot=              6.5997
 Quadrupole moment (field-independent basis, Debye-Ang):
   XX=           -172.7192   YY=           -169.2512   ZZ=           -149.3039
   XY=             -3.8133   XZ=             -8.0281   YZ=              5.5926

 Normal termination of Gaussian 16 at Tue Jan 16 05:47:23 2024.
