 Q-Chem 5.4, Q-Chem, Inc., Pleasanton, CA (2021)
 Q-Chem 5.4.0 for Intel X86 EM64T Linux

User input:
--------------------------------------------------------------
$molecule
-1 2
C                  4.7924120000     -3.0421220000      0.3176360000
C                  5.7020380000     -2.2435330000     -0.3463960000
C                  5.2721480000     -1.0556510000     -0.9743860000
C                  3.4280900000     -2.6867530000      0.3789680000
C                  2.9947020000     -1.4907630000     -0.2534720000
C                  3.9417090000     -0.6897530000     -0.9262620000
C                  2.4891240000     -3.5447430000      1.0855820000
C                  1.1013670000     -3.1396790000      1.1186320000
C                  0.6637170000     -1.9347960000      0.4836050000
C                  1.5966370000     -1.0801240000     -0.2180990000
C                  0.1633680000     -3.9646760000      1.8047210000
C                 -1.1771390000     -3.5719230000      1.8365440000
C                 -0.7134010000     -1.5720690000      0.5507650000
C                 -1.6142700000     -2.3841130000      1.2213690000
O                  2.8838900000     -4.6182610000      1.6550300000
O                  1.2173740000     -0.0042470000     -0.7861450000
O                  0.5685000000     -5.0839230000      2.4204390000
H                  5.0969050000     -3.9590660000      0.8075100000
H                  6.7485150000     -2.5286810000     -0.3862840000
H                  5.9892750000     -0.4296050000     -1.4958630000
H                  1.5686750000     -5.1344780000      2.2329040000
O                 -1.1621510000     -0.4389140000     -0.0318010000
H                 -2.6560240000     -2.0999080000      1.2722180000
H                 -0.3528420000     -0.0216410000     -0.4499840000
H                  3.5865310000      0.2172190000     -1.4003700000
S                 -2.4105860000     -4.5930810000      2.6167820000
O                 -3.6574190000     -3.8390470000      2.6594530000
O                 -2.4155250000     -5.9518740000      2.0795340000
O                 -1.9007370000     -4.6741840000      4.1839860000
C                 -1.4157120000     -5.9362420000      4.6905860000
H                 -0.5700080000     -6.2844590000      4.1008000000
H                 -2.2146970000     -6.6797270000      4.6968980000
H                 -1.1027940000     -5.7135710000      5.7107510000
$end
$rem
MAX_SCF_CYCLES=200
BASIS  =  6-311++G(d,p)
GUI  =  2
JOB_TYPE  =  SP
METHOD  =  B3LYP
SOLVENT_METHOD = PCM
$end
$pcm
theory = CPCM
$end
$solvent
dielectric 37.219
opticaldielectric 1.43
$end

--------------------------------------------------------------

             Standard Nuclear Orientation (Angstroms)
    I     Atom           X                Y                Z
 ----------------------------------------------------------------
    1      C       4.7924120000    -3.0421220000     0.3176360000
    2      C       5.7020380000    -2.2435330000    -0.3463960000
    3      C       5.2721480000    -1.0556510000    -0.9743860000
    4      C       3.4280900000    -2.6867530000     0.3789680000
    5      C       2.9947020000    -1.4907630000    -0.2534720000
    6      C       3.9417090000    -0.6897530000    -0.9262620000
    7      C       2.4891240000    -3.5447430000     1.0855820000
    8      C       1.1013670000    -3.1396790000     1.1186320000
    9      C       0.6637170000    -1.9347960000     0.4836050000
   10      C       1.5966370000    -1.0801240000    -0.2180990000
   11      C       0.1633680000    -3.9646760000     1.8047210000
   12      C      -1.1771390000    -3.5719230000     1.8365440000
   13      C      -0.7134010000    -1.5720690000     0.5507650000
   14      C      -1.6142700000    -2.3841130000     1.2213690000
   15      O       2.8838900000    -4.6182610000     1.6550300000
   16      O       1.2173740000    -0.0042470000    -0.7861450000
   17      O       0.5685000000    -5.0839230000     2.4204390000
   18      H       5.0969050000    -3.9590660000     0.8075100000
   19      H       6.7485150000    -2.5286810000    -0.3862840000
   20      H       5.9892750000    -0.4296050000    -1.4958630000
   21      H       1.5686750000    -5.1344780000     2.2329040000
   22      O      -1.1621510000    -0.4389140000    -0.0318010000
   23      H      -2.6560240000    -2.0999080000     1.2722180000
   24      H      -0.3528420000    -0.0216410000    -0.4499840000
   25      H       3.5865310000     0.2172190000    -1.4003700000
   26      S      -2.4105860000    -4.5930810000     2.6167820000
   27      O      -3.6574190000    -3.8390470000     2.6594530000
   28      O      -2.4155250000    -5.9518740000     2.0795340000
   29      O      -1.9007370000    -4.6741840000     4.1839860000
   30      C      -1.4157120000    -5.9362420000     4.6905860000
   31      H      -0.5700080000    -6.2844590000     4.1008000000
   32      H      -2.2146970000    -6.6797270000     4.6968980000
   33      H      -1.1027940000    -5.7135710000     5.7107510000
 ----------------------------------------------------------------

    8   -1502.8327868316      6.47e-06  Convergence criterion met
 Total energy in the final basis set =    -1502.8327868316

                    Orbital Energies (a.u.)
 --------------------------------------------------------------

 Alpha MOs
 -- Occupied --
-89.0917 -19.1759 -19.1471 -19.1402 -19.1390 -19.1381 -19.1055 -19.1019
-10.2607 -10.2501 -10.2464 -10.2453 -10.2220 -10.2181 -10.1941 -10.1936
-10.1895 -10.1881 -10.1876 -10.1816 -10.1811 -10.1801 -10.1795  -8.1521
 -6.1158  -6.1143  -6.1125  -1.1582  -1.0754  -1.0647  -1.0468  -1.0323
 -1.0227  -1.0190  -0.8794  -0.8644  -0.8144  -0.7709  -0.7640  -0.7542
 -0.7352  -0.6970  -0.6700  -0.6482  -0.6259  -0.6113  -0.5854  -0.5619
 -0.5526  -0.5414  -0.5303  -0.5254  -0.5061  -0.4953  -0.4839  -0.4759
 -0.4631  -0.4578  -0.4529  -0.4447  -0.4385  -0.4364  -0.4339  -0.4283
 -0.4203  -0.4186  -0.4124  -0.3990  -0.3918  -0.3844  -0.3704  -0.3667
 -0.3617  -0.3600  -0.3493  -0.3482  -0.3386  -0.3287  -0.3256  -0.3155
 -0.2879  -0.2759  -0.2678  -0.2636  -0.2614  -0.2301  -0.1608

 Beta MOs
 -- Occupied --
-89.0917 -19.1757 -19.1469 -19.1397 -19.1388 -19.1381 -19.1013 -19.0972
-10.2607 -10.2481 -10.2451 -10.2444 -10.2220 -10.2169 -10.1938 -10.1931
-10.1877 -10.1876 -10.1872 -10.1813 -10.1807 -10.1799 -10.1793  -8.1521
 -6.1158  -6.1143  -6.1126  -1.1580  -1.0743  -1.0629  -1.0466  -1.0321
 -1.0158  -1.0111  -0.8767  -0.8628  -0.8108  -0.7687  -0.7618  -0.7520
 -0.7341  -0.6918  -0.6676  -0.6456  -0.6247  -0.6104  -0.5841  -0.5608
 -0.5509  -0.5401  -0.5297  -0.5235  -0.5052  -0.4950  -0.4819  -0.4745
 -0.4619  -0.4562  -0.4472  -0.4432  -0.4364  -0.4346  -0.4323  -0.4264
 -0.4185  -0.4110  -0.4041  -0.3984  -0.3904  -0.3698  -0.3683  -0.3657
 -0.3602  -0.3530  -0.3483  -0.3472  -0.3375  -0.3285  -0.3220  -0.3116
 -0.2723  -0.2714  -0.2612  -0.2587  -0.2577  -0.2195

          Ground-State Mulliken Net Atomic Charges

     Atom                 Charge (a.u.)    Spin (a.u.)
  --------------------------------------------------------
      1 C                    -0.023378       0.032378
      2 C                    -0.492588       0.029108
      3 C                    -0.454378       0.024873
      4 C                     0.127791       0.005260
      5 C                     0.185927       0.005758
      6 C                    -0.018561       0.038186
      7 C                    -0.267869       0.118521
      8 C                     0.334921       0.015507
      9 C                     0.739072       0.041238
     10 C                    -0.331894       0.112990
     11 C                    -0.074997       0.004126
     12 C                    -0.989646       0.070241
     13 C                    -0.316432       0.025113
     14 C                    -0.214230       0.127177
     15 O                    -0.475463       0.156866
     16 O                    -0.479882       0.180055
     17 O                    -0.437588       0.007771
     18 H                     0.184281      -0.001048
     19 H                     0.210923      -0.002494
     20 H                     0.208659      -0.002179
     21 H                     0.462597      -0.002154
     22 O                    -0.397230       0.015596
     23 H                     0.251850      -0.009911
     24 H                     0.372899      -0.003667
     25 H                     0.186718      -0.001448
     26 S                     1.181573       0.004889
     27 O                    -0.212109       0.000231
     28 O                    -0.271205       0.003007
     29 O                    -0.208120       0.003048
     30 C                    -0.362963       0.000483
     31 H                     0.210017      -0.000022
     32 H                     0.197857       0.000413
     33 H                     0.173449       0.000090
  --------------------------------------------------------
  Sum of atomic charges =    -1.000001

                    Cartesian Multipole Moments
 -----------------------------------------------------------------
    Charge (ESU x 10^10)
                -4.8032
    Dipole Moment (Debye)
         X       3.5108      Y      13.7274      Z      -4.3852
       Tot      14.8323
    Quadrupole Moments (Debye-Ang)
        XX    -168.1778     XY     -12.2136     YY    -208.6028
        XZ       7.0292     YZ      16.8303     ZZ    -149.0592

 Total job time:  110.58s(wall), 730.27s(cpu)
        *  Thank you very much for using Q-Chem.  Have a nice day.  *
