 Gaussian 16, Revision A.03,
 Gaussian 16:  ES64L-G16RevA.03 25-Dec-2016

 ----------------------------------------------------------------
 #P UB3LYP/6-311++G(d,p) SCRF=(PCM,Solvent=n,n-DiMethylFormamide)
 ----------------------------------------------------------------

 -------
 Reduced
 -------
 Symbolic Z-matrix:
 Charge = -2 Multiplicity = 1

                         Standard orientation:
 ---------------------------------------------------------------------
 Center     Atomic      Atomic             Coordinates (Angstroms)
 Number     Number       Type             X           Y           Z
 ---------------------------------------------------------------------
      1          6           0       -1.363822   -1.699711   -0.041283
      2          6           0       -2.699394   -1.342441   -0.026372
      3          6           0       -3.061490    0.034402    0.039097
      4          6           0       -0.314074   -0.749003   -0.005203
      5          6           0       -0.695375    0.659335   -0.013503
      6          6           0       -2.073867    0.998939    0.048739
      7          6           0        1.068143   -1.206764    0.011299
      8          6           0        2.130596   -0.146820    0.012210
      9          6           0        1.671753    1.216878   -0.022081
     10          6           0        0.338991    1.606012   -0.044960
     11          8           0        1.367263   -2.439251    0.023114
     12          8           0        3.367149   -0.432642    0.021881
     13          1           0       -1.065163   -2.743645   -0.074878
     14          1           0       -3.474133   -2.107176   -0.045800
     15          1           0       -4.110476    0.323842    0.088486
     16          1           0       -2.338783    2.051595    0.095588
     17          1           0        2.450830    1.977695   -0.087563
     18          8           0       -0.003124    2.975516   -0.065156
     19          1           0        0.678668    3.443743    0.437793
 ---------------------------------------------------------------------

 SCF Done:  E(UB3LYP) =  -610.753822838     A.U. after   18 cycles

 The electronic state is 1-A.
 Alpha  occ. eigenvalues --  -19.12302 -19.01875 -19.01559 -10.18212 -10.16848
 Alpha  occ. eigenvalues --  -10.16342 -10.14729 -10.14352 -10.14265 -10.14037
 Alpha  occ. eigenvalues --  -10.13789 -10.12894 -10.12234  -1.02096  -0.95051
 Alpha  occ. eigenvalues --   -0.92353  -0.82323  -0.76146  -0.72113  -0.68960
 Alpha  occ. eigenvalues --   -0.64038  -0.58607  -0.55759  -0.54775  -0.49145
 Alpha  occ. eigenvalues --   -0.47394  -0.46466  -0.41682  -0.40953  -0.39687
 Alpha  occ. eigenvalues --   -0.38903  -0.38199  -0.36623  -0.35718  -0.34640
 Alpha  occ. eigenvalues --   -0.33678  -0.32785  -0.31183  -0.30454  -0.28401
 Alpha  occ. eigenvalues --   -0.24948  -0.22580  -0.20938  -0.18449  -0.17935
 Alpha  occ. eigenvalues --   -0.10631
 Alpha virt. eigenvalues --   -0.00808   0.00029   0.00983   0.01856   0.02728
 Alpha virt. eigenvalues --    0.03269   0.03296   0.05112   0.05755   0.06109
 Alpha virt. eigenvalues --    0.06186   0.07094   0.07576   0.08439   0.09324

  Beta  occ. eigenvalues --  -19.12302 -19.01875 -19.01559 -10.18212 -10.16848
  Beta  occ. eigenvalues --  -10.16342 -10.14729 -10.14352 -10.14265 -10.14037
  Beta  occ. eigenvalues --  -10.13789 -10.12894 -10.12234  -1.02096  -0.95051
  Beta  occ. eigenvalues --   -0.92353  -0.82323  -0.76146  -0.72113  -0.68960
  Beta  occ. eigenvalues --   -0.64038  -0.58607  -0.55759  -0.54775  -0.49145
  Beta  occ. eigenvalues --   -0.47394  -0.46466  -0.41682  -0.40953  -0.39687
  Beta  occ. eigenvalues --   -0.38903  -0.38199  -0.36623  -0.35718  -0.34640
  Beta  occ. eigenvalues --   -0.33678  -0.32785  -0.31183  -0.30454  -0.28401
  Beta  occ. eigenvalues --   -0.24948  -0.22580  -0.20938  -0.18449  -0.17935
  Beta  occ. eigenvalues --   -0.10631
  Beta virt. eigenvalues --   -0.00808   0.00029   0.00983   0.01856   0.02728
  Beta virt. eigenvalues --    0.03269   0.03296   0.05112   0.05755   0.06109
  Beta virt. eigenvalues --    0.06186   0.07094   0.07576   0.08439   0.09324

 Mulliken charges and spin densities:
               1          2
     1  C    0.060082  -0.000000
     2  C   -0.412045  -0.000000
     3  C   -0.366267   0.000000
     4  C    0.163003   0.000000
     5  C   -0.053033  -0.000000
     6  C    0.073885  -0.000000
     7  C   -0.404622  -0.000000
     8  C   -0.199408   0.000000
     9  C    0.367019   0.000000
    10  C   -0.480619  -0.000000
    11  O   -0.683501   0.000000
    12  O   -0.689086   0.000000
    13  H    0.134277  -0.000000
    14  H    0.150279  -0.000000
    15  H    0.152681   0.000000
    16  H    0.151991  -0.000000
    17  H    0.125223   0.000000
    18  O   -0.370914   0.000000
    19  H    0.281057  -0.000000
 Sum of Mulliken charges =  -2.00000   0.00000

 Dipole moment (field-independent basis, Debye):
    X=            -12.2272    Y=              8.7802    Z=              0.8224  Tot=             15.0755
 Quadrupole moment (field-independent basis, Debye-Ang):
   XX=           -136.8978   YY=           -107.8591   ZZ=            -86.0529
   XY=             20.5709   XZ=              0.0227   YZ=              3.9604

 Normal termination of Gaussian 16 at Sat Jan 13 19:17:20 2024.
