 Q-Chem 5.4, Q-Chem, Inc., Pleasanton, CA (2021)
 Q-Chem 5.4.0 for Intel X86 EM64T Linux

User input:
--------------------------------------------------------------
$molecule
0 1
C                  1.0527490000      1.7081760000     -0.4877050000
C                 -0.2415340000      1.2259830000      0.0973780000
C                 -0.5344650000     -0.0965930000      0.1371740000
C                  0.4225710000     -1.0879370000     -0.4410830000
C                  1.6760830000     -0.6002340000     -1.0750420000
C                  1.9641130000      0.7022890000     -1.1027990000
O                  1.3518620000      2.8873570000     -0.4431430000
O                  0.1953640000     -2.2854760000     -0.4064750000
S                  3.4616310000      1.2379200000     -2.0080650000
C                  4.5083200000      2.0427620000     -0.7856980000
C                  4.4157230000      3.4215930000     -0.6099750000
C                  5.4204180000      1.2660760000     -0.0721590000
C                  6.2508000000      1.8914160000      0.8544970000
C                  5.2576180000      4.0330220000      0.3155560000
C                  6.1685350000      3.2705450000      1.0467030000
O                  3.0402040000      2.2213460000     -3.0047640000
O                  4.1274540000     -0.0064220000     -2.4101530000
H                  3.6996910000      3.9913210000     -1.1859390000
H                  5.4882820000      0.2015820000     -0.2578790000
H                  5.2033920000      5.1053290000      0.4623430000
H                  2.3310560000     -1.3451090000     -1.5133850000
H                  6.9686510000      1.3041690000      1.4150370000
C                 -1.7776030000     -0.7027350000      0.7228020000
C                 -1.1132010000      2.3293820000      0.6260660000
H                  6.8204850000      3.7534180000      1.7657560000
H                 -2.3666990000      0.0141360000      1.2897040000
H                 -1.5146960000     -1.5395010000      1.3734250000
H                 -2.4054730000     -1.1208740000     -0.0706900000
H                 -1.2574040000      3.0933470000     -0.1415820000
H                 -0.6246340000      2.8316830000      1.4661850000
H                 -2.0871460000      1.9709200000      0.9502700000
$end
$rem
MAX_SCF_CYCLES=200
BASIS  =  6-311++G(d,p)
GUI  =  2
JOB_TYPE  =  SP
METHOD  =  B3LYP
SOLVENT_METHOD = COSMO
$end
$solvent
dielectric 37.219
opticaldielectric 1.43
$end

--------------------------------------------------------------

             Standard Nuclear Orientation (Angstroms)
    I     Atom           X                Y                Z
 ----------------------------------------------------------------
    1      C      -1.0238019426    -0.8796986038     0.4890622334
    2      C      -2.4297579690    -1.2340624355     0.1047256400
    3      C      -3.2563923728    -0.3051545919    -0.4341670661
    4      C      -2.7792622132     1.0993606252    -0.6151250866
    5      C      -1.4052428615     1.4601074465    -0.1758266503
    6      C      -0.5921683849     0.5393566781     0.3451587772
    7      O      -0.2567478374    -1.7353382107     0.8908470666
    8      O      -3.4932710095     1.9541428586    -1.1115716228
    9      S       1.0373262983     1.0822368756     0.9768196259
   10      C       2.2593005691     0.1842162717     0.0083943748
   11      C       2.7495067839    -1.0295834175     0.4848562149
   12      C       2.7176072777     0.7513270974    -1.1801518300
   13      C       3.6837783357     0.0710859237    -1.9170786624
   14      C       3.7202662860    -1.6942964208    -0.2601423470
   15      C       4.1825758015    -1.1477424122    -1.4573330251
   16      O       1.1254305429     0.6614403172     2.3744262260
   17      O       1.1346028747     2.4991588718     0.6076972010
   18      H       2.3736395899    -1.4350864043     1.4140050343
   19      H       2.3385511941     1.7124348666    -1.5039314748
   20      H       4.1170430215    -2.6373025926     0.0971205350
   21      H      -1.1045326912     2.4954981880    -0.2920694472
   22      H       4.0547027895     0.4988864969    -2.8410786125
   23      C      -4.6685553915    -0.5440416757    -0.8863715943
   24      C      -2.7796152678    -2.6733109302     0.3556586082
   25      H       4.9381651962    -1.6711134202    -2.0321458712
   26      H      -4.9283923409    -1.5996177625    -0.9100335911
   27      H      -4.8195129136    -0.1190139221    -1.8809423322
   28      H      -5.3710010567    -0.0262342566    -0.2252089226
   29      H      -2.5458377244    -2.9410536606     1.3888005969
   30      H      -2.1700554714    -3.3289190352    -0.2731647449
   31      H      -3.8295388359    -2.8848805337     0.1683863300
 ----------------------------------------------------------------

    9   -1239.9607959665      9.29e-06  Convergence criterion met
 Total energy in the final basis set =    -1239.9607959665
    5   -1239.9842398093      3.70e-06  Convergence criterion met
 Total energy in the final basis set =    -1239.9842398093

                    Orbital Energies (a.u.)
 --------------------------------------------------------------

 Alpha MOs
 -- Occupied --
-89.0766 -19.1526 -19.1518 -19.1431 -19.1415 -10.3025 -10.2971 -10.2488
-10.2335 -10.2264 -10.2228 -10.2208 -10.2041 -10.2025 -10.1957 -10.1937
-10.1933 -10.1757 -10.1751  -8.1404  -6.1031  -6.1023  -6.1013  -1.1383
 -1.0868  -1.0835  -1.0353  -0.8880  -0.8823  -0.8345  -0.7924  -0.7726
 -0.7585  -0.7282  -0.7033  -0.6791  -0.6318  -0.6268  -0.6094  -0.5896
 -0.5582  -0.5488  -0.5303  -0.5008  -0.4952  -0.4922  -0.4774  -0.4732
 -0.4688  -0.4625  -0.4568  -0.4451  -0.4410  -0.4332  -0.4191  -0.4153
 -0.4058  -0.4000  -0.3959  -0.3892  -0.3833  -0.3689  -0.3665  -0.3554
 -0.3410  -0.3291  -0.3278  -0.3048  -0.2920  -0.2854  -0.2807  -0.2771

          Ground-State Mulliken Net Atomic Charges

     Atom                 Charge (a.u.)
  ----------------------------------------
      1 C                    -0.469629
      2 C                    -0.193017
      3 C                     0.688768
      4 C                    -0.668408
      5 C                     0.113311
      6 C                     0.171960
      7 O                    -0.209710
      8 O                    -0.261723
      9 S                     0.527011
     10 C                     0.556237
     11 C                    -0.286948
     12 C                     0.012341
     13 C                    -0.546358
     14 C                    -0.437780
     15 C                    -0.326161
     16 O                    -0.178579
     17 O                    -0.212185
     18 H                     0.285770
     19 H                     0.270904
     20 H                     0.239692
     21 H                     0.298165
     22 H                     0.234130
     23 C                    -0.387337
     24 C                    -0.550548
     25 H                     0.217531
     26 H                     0.149363
     27 H                     0.190223
     28 H                     0.212838
     29 H                     0.195093
     30 H                     0.215104
     31 H                     0.149943
  ----------------------------------------
  Sum of atomic charges =     0.000000

                    Cartesian Multipole Moments
 -----------------------------------------------------------------
    Charge (ESU x 10^10)
                -0.0000
    Dipole Moment (Debye)
         X      -1.0240      Y      -5.6966      Z      -5.0794
       Tot       7.7007
    Quadrupole Moments (Debye-Ang)
        XX     -97.0270     XY       3.8138     YY    -124.7230
        XZ     -15.3616     YZ      -1.3127     ZZ    -123.6520

 Total job time:  105.14s(wall), 615.18s(cpu)
        *  Thank you very much for using Q-Chem.  Have a nice day.  *
