 Gaussian 16, Revision A.03,
 Gaussian 16:  ES64L-G16RevA.03 25-Dec-2016

 ----------------------------------------------------------------------
 #P UB3LYP/6-311++G(d,p) nosym opt freq SCRF=(PCM,Solvent=n,n-DiMethylF
 ormamide)
 ----------------------------------------------------------------------

 -------
 Radical
 -------
 Symbolic Z-matrix:
 Charge = -1 Multiplicity = 2

 SCF Done:  E(UB3LYP) =  -727.381193424     A.U. after   18 cycles
 SCF Done:  E(UB3LYP) =  -727.382134330     A.U. after   15 cycles
 SCF Done:  E(UB3LYP) =  -727.382305206     A.U. after   15 cycles
 SCF Done:  E(UB3LYP) =  -727.382305948     A.U. after   13 cycles
 SCF Done:  E(UB3LYP) =  -727.382313657     A.U. after   12 cycles
 SCF Done:  E(UB3LYP) =  -727.382314699     A.U. after   12 cycles
 SCF Done:  E(UB3LYP) =  -727.382314730     A.U. after   11 cycles
 Optimization completed.
    -- Stationary point found.
 Normal termination of Gaussian 16 at Sun Feb 11 15:43:51 2024.

 ----------------------------------------------------------------------
 #P Geom=AllCheck Guess=TCheck SCRF=Check GenChk UB3LYP/6-311++G(d,p) F
 req
 ----------------------------------------------------------------------

 Structure from the checkpoint file:  "322-rad.chk"
 -------
 Radical
 -------
 Charge = -1 Multiplicity = 2

                          Input orientation:
 ---------------------------------------------------------------------
 Center     Atomic      Atomic             Coordinates (Angstroms)
 Number     Number       Type             X           Y           Z
 ---------------------------------------------------------------------
      1          6           0       -1.646281    2.877942   -0.708335
      2          6           0       -2.840496    2.255509   -0.391457
      3          6           0       -2.844163    0.910716    0.021990
      4          6           0       -0.414395    2.193124   -0.627821
      5          6           0       -0.424564    0.830936   -0.206930
      6          6           0       -1.651052    0.212891    0.111658
      7          6           0        0.828596    2.887183   -0.973788
      8          6           0        2.092160    2.120720   -0.867354
      9          6           0        2.014834    0.744529   -0.434511
     10          6           0        0.833849    0.125481   -0.120900
     11          8           0        0.826173    4.093792   -1.350524
     12          8           0        3.206424    2.650562   -1.148109
     13          8           0        0.726178   -1.174040    0.290560
     14          6           0        1.911212   -1.955619    0.407392
     15          6           0        1.580558   -3.341093    0.869326
     16          6           0        0.368877   -3.816520    1.145056
     17          1           0       -1.630395    3.912975   -1.027581
     18          1           0       -3.774150    2.803273   -0.461456
     19          1           0       -3.778577    0.419916    0.270592
     20          1           0       -1.649784   -0.821594    0.429823
     21          1           0        2.958994    0.218903   -0.370459
     22          1           0        2.602985   -1.484186    1.118062
     23          1           0        2.427097   -2.001700   -0.560886
     24          1           0        2.453295   -3.981783    0.973624
     25          1           0       -0.519199   -3.203448    1.050975
     26          1           0        0.235713   -4.840497    1.474565
 ---------------------------------------------------------------------

 SCF Done:  E(UB3LYP) =  -727.382314730     A.U. after    1 cycles

 Alpha  occ. eigenvalues --  -19.16077 -19.07467 -19.07002 -10.23783 -10.23461
 Alpha  occ. eigenvalues --  -10.21609 -10.21359 -10.18396 -10.18241 -10.17389
 Alpha  occ. eigenvalues --  -10.17384 -10.17254 -10.17194 -10.16966 -10.16747
 Alpha  occ. eigenvalues --  -10.15694  -1.07671  -1.00515  -0.97623  -0.86465
 Alpha  occ. eigenvalues --   -0.81441  -0.78860  -0.75502  -0.73193  -0.70923
 Alpha  occ. eigenvalues --   -0.66980  -0.62124  -0.59801  -0.58794  -0.54986
 Alpha  occ. eigenvalues --   -0.53058  -0.51031  -0.49821  -0.48427  -0.47137
 Alpha  occ. eigenvalues --   -0.44872  -0.44429  -0.42998  -0.42275  -0.41858
 Alpha  occ. eigenvalues --   -0.41784  -0.40415  -0.38715  -0.37733  -0.36867
 Alpha  occ. eigenvalues --   -0.36029  -0.35891  -0.34128  -0.33838  -0.33362
 Alpha  occ. eigenvalues --   -0.27952  -0.26932  -0.25869  -0.25332  -0.22576
 Alpha  occ. eigenvalues --   -0.22514  -0.15195
 Alpha virt. eigenvalues --   -0.03547  -0.00855  -0.00423  -0.00202   0.00403
 Alpha virt. eigenvalues --    0.01084   0.02139   0.02309   0.03180   0.03554
 Alpha virt. eigenvalues --    0.04286   0.04386   0.04794   0.05582   0.05951

  Beta  occ. eigenvalues --  -19.15968 -19.06783 -19.06470 -10.23571 -10.23465
  Beta  occ. eigenvalues --  -10.21452 -10.21142 -10.18395 -10.18149 -10.17406
  Beta  occ. eigenvalues --  -10.17353 -10.17208 -10.17148 -10.16919 -10.16748
  Beta  occ. eigenvalues --  -10.15770  -1.07438  -0.99438  -0.96499  -0.86229
  Beta  occ. eigenvalues --   -0.81263  -0.78659  -0.75265  -0.73053  -0.70773
  Beta  occ. eigenvalues --   -0.66235  -0.61975  -0.59434  -0.58631  -0.54855
  Beta  occ. eigenvalues --   -0.52916  -0.50893  -0.49555  -0.48147  -0.47040
  Beta  occ. eigenvalues --   -0.44691  -0.44312  -0.42941  -0.42099  -0.41609
  Beta  occ. eigenvalues --   -0.40433  -0.39925  -0.38375  -0.36806  -0.36078
  Beta  occ. eigenvalues --   -0.35814  -0.35331  -0.33986  -0.33744  -0.30927
  Beta  occ. eigenvalues --   -0.27333  -0.26494  -0.24894  -0.24721  -0.21957
  Beta  occ. eigenvalues --   -0.21709
  Beta virt. eigenvalues --   -0.08464  -0.02851  -0.00433  -0.00410   0.00406
  Beta virt. eigenvalues --    0.00827   0.01100   0.02145   0.02327   0.03249
  Beta virt. eigenvalues --    0.03580   0.04394   0.04814   0.05299   0.05970

 Mulliken charges and spin densities:
               1          2
     1  C    0.046828   0.062710
     2  C   -0.461075   0.002548
     3  C   -0.344371   0.071233
     4  C    0.473911   0.006556
     5  C    0.305538   0.052550
     6  C   -0.187698  -0.004178
     7  C   -0.567416   0.142473
     8  C   -0.035412   0.148601
     9  C    0.153032  -0.072323
    10  C   -0.134547   0.114362
    11  O   -0.497532   0.257335
    12  O   -0.531976   0.192057
    13  O   -0.133122   0.028030
    14  C    0.093935   0.001001
    15  C   -0.314360  -0.000610
    16  C   -0.615014  -0.000047
    17  H    0.170991  -0.004641
    18  H    0.176217  -0.001060
    19  H    0.195707  -0.004802
    20  H    0.112175   0.001174
    21  H    0.220386   0.002265
    22  H    0.176467   0.002585
    23  H    0.176730   0.002582
    24  H    0.220954  -0.000193
    25  H    0.134464  -0.000246
    26  H    0.165189   0.000040
 Sum of Mulliken charges =  -1.00000   1.00000

 Dipole moment (field-independent basis, Debye):
    X=             -8.0585    Y=            -17.2910    Z=              6.1699  Tot=             20.0496
 Quadrupole moment (field-independent basis, Debye-Ang):
   XX=           -116.3099   YY=           -152.4350   ZZ=           -107.9242
   XY=            -35.9998   XZ=             12.7222   YZ=             19.7909

  Exact polarizability: 355.570  18.581 283.838 -29.346 -49.321 148.860
 Approx polarizability: 396.976  30.948 310.166 -35.773 -53.649 167.302

                      1                      2                      3
                      A                      A                      A
 Frequencies --     42.5364                65.1102                89.1611
 Red. masses --      4.7702                 2.7520                 9.7731
 Frc consts  --      0.0051                 0.0069                 0.0458
 IR Inten    --      1.8497                 3.5340                 0.4698

                      4                      5                      6
                      A                      A                      A
 Frequencies --     96.8494               126.5412               182.1463
 Red. masses --      4.4075                 4.2493                 2.7198
 Frc consts  --      0.0244                 0.0401                 0.0532
 IR Inten    --      3.9459                 3.0729                 0.0109

                      7                      8                      9
                      A                      A                      A
 Frequencies --    197.7295               214.0116               222.4776
 Red. masses --      2.9777                 4.4773                 4.5517
 Frc consts  --      0.0686                 0.1208                 0.1327
 IR Inten    --     11.3695                 6.2362                 1.8694

                     10                     11                     12
                      A                      A                      A
 Frequencies --    259.6364               354.5885               381.3864
 Red. masses --      5.4030                 6.5152                14.2418
 Frc consts  --      0.2146                 0.4826                 1.2205
 IR Inten    --      4.2430                 1.4010                 2.9956

                     13                     14                     15
                      A                      A                      A
 Frequencies --    408.5788               416.2313               440.4825
 Red. masses --      4.4726                 7.9018                 4.2792
 Frc consts  --      0.4399                 0.8066                 0.4892
 IR Inten    --      0.0201                18.3694                 4.9285

                     16                     17                     18
                      A                      A                      A
 Frequencies --    469.4136               512.2530               528.4917
 Red. masses --      7.7406                 4.7763                 3.7839
 Frc consts  --      1.0049                 0.7384                 0.6227
 IR Inten    --      2.1964                 1.1400                 9.7928

                     19                     20                     21
                      A                      A                      A
 Frequencies --    578.2235               609.5603               627.3452
 Red. masses --      1.2552                 5.9459                 3.6828
 Frc consts  --      0.2473                 1.3017                 0.8540
 IR Inten    --     25.0228                11.0988                 6.4065

                     22                     23                     24
                      A                      A                      A
 Frequencies --    670.3904               693.5750               723.4496
 Red. masses --      4.5442                 6.4519                 3.2762
 Frc consts  --      1.2033                 1.8286                 1.0103
 IR Inten    --      0.3317                21.5877                36.6933

                     25                     26                     27
                      A                      A                      A
 Frequencies --    725.8618               763.9515               779.4339
 Red. masses --      6.6279                 2.8806                 2.0932
 Frc consts  --      2.0575                 0.9905                 0.7492
 IR Inten    --     24.7386                33.9035                38.6001

                     28                     29                     30
                      A                      A                      A
 Frequencies --    831.3163               849.4169               877.2021
 Red. masses --      1.5255                 4.2805                 1.3991
 Frc consts  --      0.6212                 1.8196                 0.6343
 IR Inten    --     56.7337                30.4822                 0.0868

                     31                     32                     33
                      A                      A                      A
 Frequencies --    935.8197               947.0228               975.5545
 Red. masses --      3.0610                 1.3186                 1.3650
 Frc consts  --      1.5794                 0.6968                 0.7654
 IR Inten    --      0.3594                82.8094                 3.0137

                     34                     35                     36
                      A                      A                      A
 Frequencies --    982.1525               995.4892               996.6708
 Red. masses --      2.8124                 1.2862                 4.6184
 Frc consts  --      1.5984                 0.7510                 2.7030
 IR Inten    --     12.4652                 0.1127                57.6460

                     37                     38                     39
                      A                      A                      A
 Frequencies --   1018.5374              1044.2113              1046.2702
 Red. masses --      1.1565                 1.5381                 2.0116
 Frc consts  --      0.7069                 0.9881                 1.2974
 IR Inten    --      6.5413                23.8713                23.4723

                     40                     41                     42
                      A                      A                      A
 Frequencies --   1091.3552              1127.3608              1146.7765
 Red. masses --      2.5575                 1.9501                 2.0065
 Frc consts  --      1.7947                 1.4603                 1.5547
 IR Inten    --    174.5699                48.7397               103.2983

                     43                     44                     45
                      A                      A                      A
 Frequencies --   1170.2638              1219.8259              1238.6685
 Red. masses --      1.4366                 2.2440                 4.2895
 Frc consts  --      1.1592                 1.9673                 3.8776
 IR Inten    --    150.6338               368.5420                55.5677

                     46                     47                     48
                      A                      A                      A
 Frequencies --   1241.1257              1266.7467              1281.9148
 Red. masses --      2.2347                 1.0675                 2.2857
 Frc consts  --      2.0282                 1.0092                 2.2130
 IR Inten    --     45.0895                 0.1751                 4.1625

                     49                     50                     51
                      A                      A                      A
 Frequencies --   1316.5539              1349.3699              1388.2498
 Red. masses --      1.2678                 7.8061                 1.9595
 Frc consts  --      1.2947                 8.3742                 2.2250
 IR Inten    --      4.4774                26.6164               318.0450

                     52                     53                     54
                      A                      A                      A
 Frequencies --   1424.5434              1441.3757              1447.2529
 Red. masses --      1.6665                 1.2890                 2.5951
 Frc consts  --      1.9925                 1.5778                 3.2025
 IR Inten    --     20.8758                18.4241               204.2512

                     55                     56                     57
                      A                      A                      A
 Frequencies --   1473.1431              1490.8179              1510.4847
 Red. masses --      4.6351                 1.1881                 5.7329
 Frc consts  --      5.9265                 1.5558                 7.7065
 IR Inten    --    492.8211                86.6000               699.7686

                     58                     59                     60
                      A                      A                      A
 Frequencies --   1518.6417              1572.2243              1599.7758
 Red. masses --      3.3301                 6.9508                 6.8429
 Frc consts  --      4.5250                10.1232                10.3183
 IR Inten    --     66.5538               534.2743               243.5617

                     61                     62                     63
                      A                      A                      A
 Frequencies --   1624.5618              1703.2609              2989.4881
 Red. masses --      5.8175                 4.8594                 1.0555
 Frc consts  --      9.0461                 8.3060                 5.5577
 IR Inten    --      5.6876                16.3318                49.6032

                     64                     65                     66
                      A                      A                      A
 Frequencies --   3016.5576              3136.1237              3147.6837
 Red. masses --      1.1047                 1.0693                 1.0799
 Frc consts  --      5.9229                 6.1962                 6.3041
 IR Inten    --     37.8641                17.3489                12.1066

                     67                     68                     69
                      A                      A                      A
 Frequencies --   3160.3109              3175.3302              3187.9980
 Red. masses --      1.0861                 1.0906                 1.0935
 Frc consts  --      6.3914                 6.4787                 6.5479
 IR Inten    --     10.1036                21.4759                27.9859

                     70                     71                     72
                      A                      A                      A
 Frequencies --   3191.9295              3201.9763              3228.2866
 Red. masses --      1.0894                 1.0927                 1.1158
 Frc consts  --      6.5398                 6.6007                 6.8516
 IR Inten    --     16.4176                24.2789                13.5150

 - Thermochemistry -
 -------------------
 Temperature   298.150 Kelvin.  Pressure   1.00000 Atm.
 Atom     1 has atomic number  6 and mass  12.00000

 Molecular mass:   214.06299 amu.
 Principal axes and moments of inertia in atomic units:
                           1         2         3
     Eigenvalues --  2381.152584454.777196824.70461
           X           -0.18072   0.97846   0.09983
           Y            0.94496   0.14459   0.29350
           Z           -0.27274  -0.14737   0.95073
 This molecule is an asymmetric top.
 Rotational symmetry number  1.
 Warning -- assumption of classical behavior for rotation
           may cause significant error
 Rotational temperatures (Kelvin)      0.03637     0.01944     0.01269
 Rotational constants (GHZ):           0.75793     0.40512     0.26444
 Zero-point vibrational energy     512953.1 (Joules/Mol)
                                  122.59873 (Kcal/Mol)
 Warning -- explicit consideration of  20 degrees of freedom as
           vibrations may cause significant error
 Vibrational temperatures:     61.20    93.68   128.28   139.34   182.06
          (Kelvin)            262.07   284.49   307.91   320.10   373.56
                              510.17   548.73   587.85   598.86   633.76
                              675.38   737.02   760.38   831.93   877.02
                              902.61   964.54   997.90  1040.88  1044.35
                             1099.16  1121.43  1196.08  1222.12  1262.10
                             1346.44  1362.55  1403.61  1413.10  1432.29
                             1433.99  1465.45  1502.39  1505.35  1570.22
                             1622.02  1649.96  1683.75  1755.06  1782.17
                             1785.70  1822.57  1844.39  1894.23  1941.44
                             1997.38  2049.60  2073.82  2082.27  2119.52
                             2144.95  2173.25  2184.99  2262.08  2301.72
                             2337.38  2450.61  4301.21  4340.15  4512.18
                             4528.81  4546.98  4568.59  4586.82  4592.47
                             4606.93  4644.78

 Zero-point correction=                           0.195374 (Hartree/Particle)
 Thermal correction to Energy=                    0.208817
 Thermal correction to Enthalpy=                  0.209761
 Thermal correction to Gibbs Free Energy=         0.153947
 Sum of electronic and zero-point Energies=           -727.186941
 Sum of electronic and thermal Energies=              -727.173498
 Sum of electronic and thermal Enthalpies=            -727.172554
 Sum of electronic and thermal Free Energies=         -727.228367

                     E (Thermal)             CV                S
                      KCal/Mol        Cal/Mol-Kelvin    Cal/Mol-Kelvin
 Total                  131.035             51.875            117.470
 Electronic               0.000              0.000              1.377
 Translational            0.889              2.981             41.987
 Rotational               0.889              2.981             32.648
 Vibrational            129.257             45.914             41.458
 Vibration     1          0.595              1.980              5.137
 Vibration     2          0.597              1.971              4.296
 Vibration     3          0.602              1.957              3.678
 Vibration     4          0.603              1.951              3.517
 Vibration     5          0.611              1.927              2.998
 Vibration     6          0.630              1.864              2.306
 Vibration     7          0.637              1.843              2.154
 Vibration     8          0.644              1.820              2.009
 Vibration     9          0.648              1.807              1.939
 Vibration    10          0.668              1.746              1.664
 Vibration    11          0.730              1.566              1.146
 Vibration    12          0.751              1.510              1.034
 Vibration    13          0.773              1.452              0.932
 Vibration    14          0.779              1.435              0.905
 Vibration    15          0.800              1.382              0.825
 Vibration    16          0.827              1.318              0.739
 Vibration    17          0.867              1.223              0.628
 Vibration    18          0.883              1.187              0.591
 Vibration    19          0.935              1.078              0.489
 Vibration    20          0.969              1.012              0.434

 Optimization completed.
    -- Stationary point found.
 Normal termination of Gaussian 16 at Sun Feb 11 16:37:40 2024.
