 Q-Chem 5.4, Q-Chem, Inc., Pleasanton, CA (2021)
 Q-Chem 5.4.0 for Intel X86 EM64T Linux

User input:
--------------------------------------------------------------
$molecule
-2 1
C                 -0.5643220000      1.2191720000     -0.2881880000
C                 -1.4454830000      0.1651040000     -0.7922810000
C                 -1.1525630000     -1.1737490000     -0.6558440000
C                  0.0353950000     -1.6962030000     -0.0119410000
C                  0.8866800000     -0.6865470000      0.4750290000
C                  0.6472700000      0.7350300000      0.3695260000
O                 -0.9032210000      2.4354360000     -0.4522660000
O                  0.2471820000     -2.9783620000      0.0808890000
C                  1.6197710000      1.6569220000      0.9219640000
C                  2.8774330000      1.0509640000      1.6036020000
O                  1.5727390000      2.9030560000      0.9188530000
H                  2.6136570000      0.4093810000      2.4527130000
H                  3.4875320000      1.8871580000      1.9543310000
H                  3.4632960000      0.4367260000      0.9095900000
H                  1.7886550000     -1.0394970000      0.9645990000
C                 -2.7094990000      0.6194220000     -1.4791890000
H                 -1.8474660000     -1.9192500000     -1.0517820000
H                 -3.3293210000      1.2345740000     -0.8117630000
H                 -3.2997200000     -0.2407260000     -1.8206080000
H                 -2.4874680000      1.2640510000     -2.3412610000
$end
$rem
MAX_SCF_CYCLES=200
BASIS  =  6-311++G(d,p)
GUI  =  2
JOB_TYPE  =  SP
METHOD  =  B3LYP
SOLVENT_METHOD = PCM
$end
$pcm
theory = CPCM
$end
$solvent
dielectric 37.219
opticaldielectric 1.43
$end

--------------------------------------------------------------

             Standard Nuclear Orientation (Angstroms)
    I     Atom           X                Y                Z
 ----------------------------------------------------------------
    1      C      -0.5643220000     1.2191720000    -0.2881880000
    2      C      -1.4454830000     0.1651040000    -0.7922810000
    3      C      -1.1525630000    -1.1737490000    -0.6558440000
    4      C       0.0353950000    -1.6962030000    -0.0119410000
    5      C       0.8866800000    -0.6865470000     0.4750290000
    6      C       0.6472700000     0.7350300000     0.3695260000
    7      O      -0.9032210000     2.4354360000    -0.4522660000
    8      O       0.2471820000    -2.9783620000     0.0808890000
    9      C       1.6197710000     1.6569220000     0.9219640000
   10      C       2.8774330000     1.0509640000     1.6036020000
   11      O       1.5727390000     2.9030560000     0.9188530000
   12      H       2.6136570000     0.4093810000     2.4527130000
   13      H       3.4875320000     1.8871580000     1.9543310000
   14      H       3.4632960000     0.4367260000     0.9095900000
   15      H       1.7886550000    -1.0394970000     0.9645990000
   16      C      -2.7094990000     0.6194220000    -1.4791890000
   17      H      -1.8474660000    -1.9192500000    -1.0517820000
   18      H      -3.3293210000     1.2345740000    -0.8117630000
   19      H      -3.2997200000    -0.2407260000    -1.8206080000
   20      H      -2.4874680000     1.2640510000    -2.3412610000
 ----------------------------------------------------------------

    9    -573.8638708566      7.09e-06  Convergence criterion met
 Total energy in the final basis set =     -573.8638708566

                    Orbital Energies (a.u.)
 --------------------------------------------------------------

 Alpha MOs
 -- Occupied --
-19.0702 -19.0345 -19.0191 -10.2234 -10.1902 -10.1726 -10.1447 -10.1433
-10.1416 -10.1358 -10.1351 -10.1195  -0.9951  -0.9539  -0.9283  -0.7907
 -0.7468  -0.7018  -0.6700  -0.6367  -0.5890  -0.5249  -0.4922  -0.4473
 -0.4394  -0.4250  -0.4132  -0.3969  -0.3914  -0.3860  -0.3669  -0.3653
 -0.3514  -0.3479  -0.3325  -0.3313  -0.3202  -0.3151  -0.2375  -0.2332
 -0.2190  -0.2014  -0.1907  -0.1296

          Ground-State Mulliken Net Atomic Charges

     Atom                 Charge (a.u.)
  ----------------------------------------
      1 C                    -1.334261
      2 C                     1.127867
      3 C                    -0.494846
      4 C                    -0.389153
      5 C                    -0.924534
      6 C                     1.719869
      7 O                    -0.605983
      8 O                    -0.765521
      9 C                    -0.128150
     10 C                    -0.499516
     11 O                    -0.488157
     12 H                     0.161734
     13 H                     0.169292
     14 H                     0.162104
     15 H                     0.130970
     16 C                    -0.417721
     17 H                     0.131673
     18 H                     0.151409
     19 H                     0.141695
     20 H                     0.151228
  ----------------------------------------
  Sum of atomic charges =    -2.000000

                    Cartesian Multipole Moments
 -----------------------------------------------------------------
    Charge (ESU x 10^10)
                -9.6064
    Dipole Moment (Debye)
         X      -0.9974      Y      -2.4609      Z      -0.5912
       Tot       2.7203
    Quadrupole Moments (Debye-Ang)
        XX     -84.1158     XY       0.5251     YY    -157.9000
        XZ      -3.2012     YZ      -1.1815     ZZ     -80.0669

 Total job time:  23.55s(wall), 136.86s(cpu)
        *  Thank you very much for using Q-Chem.  Have a nice day.  *
