 Q-Chem 5.4, Q-Chem, Inc., Pleasanton, CA (2021)
 Q-Chem 5.4.0 for Intel X86 EM64T Linux

User input:
--------------------------------------------------------------
$molecule
-2 2
C                  5.0464580000     -2.9036790000     -0.3703330000
C                  5.8166600000     -2.0486710000     -1.1338110000
C                  5.2720600000     -0.8206280000     -1.5822260000
C                  3.7160220000     -2.5809570000     -0.0220130000
C                  3.1672510000     -1.3430800000     -0.4740920000
C                  3.9745430000     -0.4832970000     -1.2546990000
C                  2.9355280000     -3.5080540000      0.7842350000
C                  1.5751300000     -3.1330530000      1.1162420000
C                  1.0301670000     -1.8840040000      0.6567000000
C                  1.8077250000     -0.9634150000     -0.1449700000
C                  0.7723620000     -4.0136600000      1.9061810000
C                 -0.5483840000     -3.6517510000      2.2294850000
C                 -0.3056200000     -1.5592070000      1.0059390000
C                 -1.0620540000     -2.4376420000      1.7765120000
O                  3.4530490000     -4.6103780000      1.1752490000
O                  1.3213800000      0.1521210000     -0.5559060000
O                  1.2781340000     -5.1789640000      2.3356700000
H                  5.4366540000     -3.8499970000     -0.0132980000
H                  6.8381610000     -2.3162050000     -1.3906150000
H                  5.8762600000     -0.1460000000     -2.1832030000
H                  2.2132250000     -5.2098890000      1.9852170000
O                 -0.8682080000     -0.3897490000      0.5963990000
H                 -2.0807760000     -2.1810950000      2.0381680000
H                 -0.1471120000      0.0644630000      0.0687600000
H                  3.5319380000      0.4499650000     -1.5840990000
S                 -1.6592460000     -4.7208520000      3.2419820000
O                 -1.8016670000     -5.9875570000      2.4789460000
O                 -0.9859580000     -4.8658950000      4.5583070000
O                 -2.9272620000     -3.9364720000      3.3162450000
$end

$rem
BASIS  =  6-311++G(d,p)
GUI  =  2
JOB_TYPE  =  SP
METHOD  =  B3LYP
SCF_CONVERGENCE  = 8
SOLVENT_METHOD = sm12
$end

$smx
solvent dimethylformamide
charges CM5
$end

--------------------------------------------------------------

             Standard Nuclear Orientation (Angstroms)
    I     Atom           X                Y                Z
 ----------------------------------------------------------------
    1      C       5.0464580000    -2.9036790000    -0.3703330000
    2      C       5.8166600000    -2.0486710000    -1.1338110000
    3      C       5.2720600000    -0.8206280000    -1.5822260000
    4      C       3.7160220000    -2.5809570000    -0.0220130000
    5      C       3.1672510000    -1.3430800000    -0.4740920000
    6      C       3.9745430000    -0.4832970000    -1.2546990000
    7      C       2.9355280000    -3.5080540000     0.7842350000
    8      C       1.5751300000    -3.1330530000     1.1162420000
    9      C       1.0301670000    -1.8840040000     0.6567000000
   10      C       1.8077250000    -0.9634150000    -0.1449700000
   11      C       0.7723620000    -4.0136600000     1.9061810000
   12      C      -0.5483840000    -3.6517510000     2.2294850000
   13      C      -0.3056200000    -1.5592070000     1.0059390000
   14      C      -1.0620540000    -2.4376420000     1.7765120000
   15      O       3.4530490000    -4.6103780000     1.1752490000
   16      O       1.3213800000     0.1521210000    -0.5559060000
   17      O       1.2781340000    -5.1789640000     2.3356700000
   18      H       5.4366540000    -3.8499970000    -0.0132980000
   19      H       6.8381610000    -2.3162050000    -1.3906150000
   20      H       5.8762600000    -0.1460000000    -2.1832030000
   21      H       2.2132250000    -5.2098890000     1.9852170000
   22      O      -0.8682080000    -0.3897490000     0.5963990000
   23      H      -2.0807760000    -2.1810950000     2.0381680000
   24      H      -0.1471120000     0.0644630000     0.0687600000
   25      H       3.5319380000     0.4499650000    -1.5840990000
   26      S      -1.6592460000    -4.7208520000     3.2419820000
   27      O      -1.8016670000    -5.9875570000     2.4789460000
   28      O      -0.9859580000    -4.8658950000     4.5583070000
   29      O      -2.9272620000    -3.9364720000     3.3162450000
 ----------------------------------------------------------------

   17   -1462.8297374245      7.20e-09  Convergence criterion met
 Total energy in the final basis set =    -1463.0896139488

                    Orbital Energies (a.u.)
 --------------------------------------------------------------

 Alpha MOs
 -- Occupied --
-89.0252 -19.1303 -19.1279 -19.0937 -19.0931 -19.0673 -19.0668 -19.0668
-10.2410 -10.2399 -10.2381 -10.2340 -10.1889 -10.1859 -10.1855 -10.1854
-10.1850 -10.1846 -10.1835 -10.1822 -10.1820 -10.1731  -8.0834  -6.0461
 -6.0459  -6.0456  -1.0846  -1.0565  -1.0518  -1.0092  -1.0055  -0.9486
 -0.9471  -0.8711  -0.8522  -0.7981  -0.7634  -0.7534  -0.7388  -0.6845
 -0.6535  -0.6420  -0.6075  -0.5852  -0.5744  -0.5459  -0.5324  -0.5137
 -0.5086  -0.4812  -0.4774  -0.4651  -0.4448  -0.4386  -0.4364  -0.4332
 -0.4273  -0.4260  -0.4221  -0.4192  -0.4051  -0.4028  -0.4017  -0.3750
 -0.3716  -0.3668  -0.3579  -0.3559  -0.3445  -0.3119  -0.3090  -0.3074
 -0.2885  -0.2772  -0.2698  -0.2692  -0.2675  -0.2636  -0.2522  -0.2484
 -0.2297  -0.2163  -0.1499

 Beta MOs
 -- Occupied --
-89.0252 -19.1297 -19.1273 -19.0890 -19.0882 -19.0674 -19.0667 -19.0667
-10.2404 -10.2381 -10.2361 -10.2334 -10.1877 -10.1851 -10.1851 -10.1847
-10.1846 -10.1845 -10.1836 -10.1821 -10.1820 -10.1721  -8.0834  -6.0461
 -6.0459  -6.0456  -1.0845  -1.0547  -1.0497  -1.0016  -0.9974  -0.9483
 -0.9471  -0.8687  -0.8505  -0.7942  -0.7611  -0.7517  -0.7359  -0.6782
 -0.6516  -0.6395  -0.6064  -0.5841  -0.5730  -0.5440  -0.5313  -0.5119
 -0.5074  -0.4801  -0.4758  -0.4635  -0.4377  -0.4372  -0.4356  -0.4324
 -0.4257  -0.4230  -0.4194  -0.4173  -0.4015  -0.3958  -0.3942  -0.3738
 -0.3655  -0.3574  -0.3556  -0.3462  -0.3431  -0.3102  -0.3072  -0.3045
 -0.2809  -0.2762  -0.2692  -0.2607  -0.2596  -0.2571  -0.2475  -0.2450
 -0.2296  -0.2049

          Ground-State Mulliken Net Atomic Charges

     Atom                 Charge (a.u.)    Spin (a.u.)
  --------------------------------------------------------
      1 C                     1.176568       0.027389
      2 C                     1.336510       0.044401
      3 C                     1.775375       0.034216
      4 C                    -0.636717       0.048785
      5 C                    -0.849676       0.025719
      6 C                     1.212062       0.040552
      7 C                    -1.088547       0.091865
      8 C                     0.448730      -0.025705
      9 C                     0.596260      -0.019297
     10 C                    -1.469925       0.101027
     11 C                    -1.357053       0.049097
     12 C                    -1.650841       0.082990
     13 C                    -0.867218       0.052215
     14 C                    -1.180590       0.068580
     15 O                    -0.337076       0.172424
     16 O                    -0.297368       0.181177
     17 O                    -0.284597       0.019272
     18 H                     0.213760      -0.000395
     19 H                     0.398761      -0.003386
     20 H                     0.421796      -0.002712
     21 H                     0.418909      -0.004007
     22 O                    -0.234112       0.021230
     23 H                     0.149219      -0.006584
     24 H                     0.404808      -0.004230
     25 H                     0.238034      -0.000873
     26 S                     0.412101      -0.003163
     27 O                    -0.329314       0.004887
     28 O                    -0.330044       0.004813
     29 O                    -0.289813      -0.000285
  --------------------------------------------------------
  Sum of atomic charges =    -2.000000

                    Cartesian Multipole Moments
 -----------------------------------------------------------------
    Charge (ESU x 10^10)
                -9.6064
    Dipole Moment (Debye)
         X       2.6002      Y      35.5204      Z     -20.6051
       Tot      41.1464
    Quadrupole Moments (Debye-Ang)
        XX    -189.8860     XY     -21.4375     YY    -320.9751
        XZ      27.3359     YZ     102.1992     ZZ    -216.7946

 Total job time:  912.98s(wall), 6995.96s(cpu)
        *  Thank you very much for using Q-Chem.  Have a nice day.  *
