 Q-Chem 5.4, Q-Chem, Inc., Pleasanton, CA (2021)
 Q-Chem 5.4.0 for Intel X86 EM64T Linux

User input:
--------------------------------------------------------------
$molecule
0 1
C                  4.9913220000     -2.0561900000      0.4419460000
C                  5.7299600000     -1.3281400000     -0.4784040000
C                  5.1253070000     -0.5693550000     -1.4816910000
C                  3.5969970000     -2.0344500000      0.3548550000
C                  2.9700130000     -1.2793270000     -0.6513560000
C                  3.7394060000     -0.5491770000     -1.5624520000
C                  2.8053110000     -2.8227490000      1.3461160000
C                  1.3171410000     -2.7709550000      1.2301590000
C                  0.6849470000     -2.0179680000      0.2255670000
C                  1.4803110000     -1.2350870000     -0.7691790000
C                  0.5483460000     -3.4911220000      2.1479620000
C                 -0.7106670000     -1.9879110000      0.1452060000
C                 -1.4791730000     -2.7040190000      1.0531520000
O                  3.3504360000     -3.4825710000      2.2107690000
O                  0.9352100000     -0.5858180000     -1.6426860000
H                  5.4694570000     -2.6293370000      1.2261720000
S                  7.5220910000     -1.3539230000     -0.3734750000
H                 -2.5608690000     -2.6841530000      1.0122840000
H                  3.2333820000      0.0293110000     -2.3249630000
H                  1.0394910000     -4.0594250000      2.9276620000
H                 -1.1745480000     -1.3963550000     -0.6339010000
C                 -0.8335470000     -3.4485310000      2.0414290000
S                 -1.8268830000     -4.3728040000      3.2171710000
O                 -1.0971660000     -4.5294460000      4.4664520000
O                 -3.1829650000     -3.8425740000      3.2209970000
O                 -1.8129110000     -5.8007670000      2.4127310000
C                 -2.4590610000     -6.9143330000      3.0830670000
H                 -1.9629730000     -7.1223240000      4.0321080000
H                 -2.3394550000     -7.7537400000      2.4022070000
H                 -3.5181570000     -6.7007840000      3.2363440000
H                  5.7364970000     -0.0018910000     -2.1720310000
O                  7.9341860000     -1.6204730000      0.9964960000
O                  8.0616100000     -0.2083270000     -1.0922580000
O                  7.7558210000     -2.7061030000     -1.2698660000
C                  9.1277700000     -3.1672730000     -1.3789310000
H                  9.5228260000     -3.4122870000     -0.3920370000
H                  9.7436620000     -2.4105080000     -1.8675700000
H                  9.0706640000     -4.0611220000     -1.9955820000
$end
$rem
MAX_SCF_CYCLES=200
BASIS  =  6-311++G(d,p)
GUI  =  2
JOB_TYPE  =  SP
METHOD  =  B3LYP
SOLVENT_METHOD = PCM
$end
$pcm
theory = CPCM
$end
$solvent
dielectric 37.219
opticaldielectric 1.43
$end

--------------------------------------------------------------

             Standard Nuclear Orientation (Angstroms)
    I     Atom           X                Y                Z
 ----------------------------------------------------------------
    1      C       4.9913220000    -2.0561900000     0.4419460000
    2      C       5.7299600000    -1.3281400000    -0.4784040000
    3      C       5.1253070000    -0.5693550000    -1.4816910000
    4      C       3.5969970000    -2.0344500000     0.3548550000
    5      C       2.9700130000    -1.2793270000    -0.6513560000
    6      C       3.7394060000    -0.5491770000    -1.5624520000
    7      C       2.8053110000    -2.8227490000     1.3461160000
    8      C       1.3171410000    -2.7709550000     1.2301590000
    9      C       0.6849470000    -2.0179680000     0.2255670000
   10      C       1.4803110000    -1.2350870000    -0.7691790000
   11      C       0.5483460000    -3.4911220000     2.1479620000
   12      C      -0.7106670000    -1.9879110000     0.1452060000
   13      C      -1.4791730000    -2.7040190000     1.0531520000
   14      O       3.3504360000    -3.4825710000     2.2107690000
   15      O       0.9352100000    -0.5858180000    -1.6426860000
   16      H       5.4694570000    -2.6293370000     1.2261720000
   17      S       7.5220910000    -1.3539230000    -0.3734750000
   18      H      -2.5608690000    -2.6841530000     1.0122840000
   19      H       3.2333820000     0.0293110000    -2.3249630000
   20      H       1.0394910000    -4.0594250000     2.9276620000
   21      H      -1.1745480000    -1.3963550000    -0.6339010000
   22      C      -0.8335470000    -3.4485310000     2.0414290000
   23      S      -1.8268830000    -4.3728040000     3.2171710000
   24      O      -1.0971660000    -4.5294460000     4.4664520000
   25      O      -3.1829650000    -3.8425740000     3.2209970000
   26      O      -1.8129110000    -5.8007670000     2.4127310000
   27      C      -2.4590610000    -6.9143330000     3.0830670000
   28      H      -1.9629730000    -7.1223240000     4.0321080000
   29      H      -2.3394550000    -7.7537400000     2.4022070000
   30      H      -3.5181570000    -6.7007840000     3.2363440000
   31      H       5.7364970000    -0.0018910000    -2.1720310000
   32      O       7.9341860000    -1.6204730000     0.9964960000
   33      O       8.0616100000    -0.2083270000    -1.0922580000
   34      O       7.7558210000    -2.7061030000    -1.2698660000
   35      C       9.1277700000    -3.1672730000    -1.3789310000
   36      H       9.5228260000    -3.4122870000    -0.3920370000
   37      H       9.7436620000    -2.4105080000    -1.8675700000
   38      H       9.0706640000    -4.0611220000    -1.9955820000
 ----------------------------------------------------------------

    9   -2015.3785619977      4.63e-06  Convergence criterion met
 Total energy in the final basis set =    -2015.3785619977

                    Orbital Energies (a.u.)
 --------------------------------------------------------------

 Alpha MOs
 -- Occupied --
-89.1041 -89.1041 -19.1901 -19.1901 -19.1524 -19.1524 -19.1521 -19.1520
-19.1485 -19.1465 -10.3001 -10.2994 -10.2484 -10.2484 -10.2345 -10.2345
-10.2300 -10.2300 -10.2290 -10.2290 -10.2254 -10.2254 -10.2241 -10.2240
-10.2155 -10.2155  -8.1651  -8.1651  -6.1287  -6.1287  -6.1271  -6.1270
 -6.1258  -6.1258  -1.1734  -1.1733  -1.0839  -1.0819  -1.0622  -1.0622
 -1.0473  -1.0473  -0.9191  -0.9105  -0.8462  -0.8163  -0.8046  -0.7985
 -0.7614  -0.7500  -0.7111  -0.6994  -0.6818  -0.6502  -0.6415  -0.6252
 -0.6068  -0.5871  -0.5847  -0.5528  -0.5493  -0.5375  -0.5340  -0.5282
 -0.5130  -0.5027  -0.5021  -0.4857  -0.4784  -0.4729  -0.4729  -0.4718
 -0.4693  -0.4676  -0.4671  -0.4630  -0.4603  -0.4388  -0.4348  -0.4266
 -0.4186  -0.4177  -0.4137  -0.3998  -0.3944  -0.3911  -0.3696  -0.3695
 -0.3660  -0.3653  -0.3545  -0.3543  -0.3503  -0.3502  -0.3178  -0.3177
 -0.3108  -0.3041  -0.3028  -0.2980  -0.2965  -0.2917

          Ground-State Mulliken Net Atomic Charges

     Atom                 Charge (a.u.)
  ----------------------------------------
      1 C                     0.013592
      2 C                    -0.697821
      3 C                    -0.302184
      4 C                     0.436687
      5 C                     0.421872
      6 C                    -0.026455
      7 C                    -0.875654
      8 C                     0.441863
      9 C                     0.421719
     10 C                    -0.444260
     11 C                     0.009820
     12 C                    -0.019306
     13 C                    -0.306552
     14 O                    -0.232585
     15 O                    -0.239800
     16 H                     0.248240
     17 S                     0.372453
     18 H                     0.277014
     19 H                     0.215609
     20 H                     0.248115
     21 H                     0.215309
     22 C                    -0.703894
     23 S                     0.375311
     24 O                    -0.224393
     25 O                    -0.180152
     26 O                    -0.065460
     27 C                    -0.168304
     28 H                     0.186393
     29 H                     0.202826
     30 H                     0.186968
     31 H                     0.276424
     32 O                    -0.224477
     33 O                    -0.181877
     34 O                    -0.065232
     35 C                    -0.168158
     36 H                     0.186322
     37 H                     0.187128
     38 H                     0.202861
  ----------------------------------------
  Sum of atomic charges =    -0.000039

                    Cartesian Multipole Moments
 -----------------------------------------------------------------
    Charge (ESU x 10^10)
                -0.0002
    Dipole Moment (Debye)
         X      -1.0892      Y      -3.4469      Z      -5.7468
       Tot       6.7892
    Quadrupole Moments (Debye-Ang)
        XX    -174.5963     XY     -10.0862     YY    -134.3919
        XZ     -20.2290     YZ      14.7335     ZZ    -187.9924

 Total job time:  234.09s(wall), 762.42s(cpu)
        *  Thank you very much for using Q-Chem.  Have a nice day.  *
