 Q-Chem 5.4, Q-Chem, Inc., Pleasanton, CA (2021)
 Q-Chem 5.4.0 for Intel X86 EM64T Linux

User input:
--------------------------------------------------------------
$molecule
-1 2
C                 -1.2985340000      2.0646340000      0.5692380000
C                 -2.5504270000      1.4009070000      0.2232120000
C                 -2.6550200000      0.1466770000     -0.3028850000
C                 -1.4800470000     -0.6605380000     -0.5712660000
C                 -0.2117570000     -0.0421830000     -0.2431090000
C                 -0.1448840000      1.2151180000      0.2820970000
O                 -1.5591560000     -1.8203710000     -1.0566840000
H                 -3.6181330000     -0.2889760000     -0.5380150000
O                 -1.2164000000      3.2124080000      1.0497320000
Cl                 1.4417950000      1.9062390000      0.6582750000
Br                -4.1638010000      2.4159920000      0.5530400000
H                  0.6866760000     -0.6175380000     -0.4309650000
$end

$rem
BASIS  =  6-311++G(d,p)
GUI  =  2
JOB_TYPE  =  SP
METHOD  =  B3LYP
SCF_CONVERGENCE  = 8
SOLVENT_METHOD = sm12
$end

$smx
solvent dimethylformamide
charges CM5
$end

--------------------------------------------------------------

             Standard Nuclear Orientation (Angstroms)
    I     Atom           X                Y                Z
 ----------------------------------------------------------------
    1      C      -1.2985340000     2.0646340000     0.5692380000
    2      C      -2.5504270000     1.4009070000     0.2232120000
    3      C      -2.6550200000     0.1466770000    -0.3028850000
    4      C      -1.4800470000    -0.6605380000    -0.5712660000
    5      C      -0.2117570000    -0.0421830000    -0.2431090000
    6      C      -0.1448840000     1.2151180000     0.2820970000
    7      O      -1.5591560000    -1.8203710000    -1.0566840000
    8      H      -3.6181330000    -0.2889760000    -0.5380150000
    9      O      -1.2164000000     3.2124080000     1.0497320000
   10      Cl      1.4417950000     1.9062390000     0.6582750000
   11      Br     -4.1638010000     2.4159920000     0.5530400000
   12      H       0.6866760000    -0.6175380000    -0.4309650000
 ----------------------------------------------------------------

   18   -3414.8178320959      6.69e-09  Convergence criterion met
 Total energy in the final basis set =    -3414.8950894758

                    Orbital Energies (a.u.)
 --------------------------------------------------------------

 Alpha MOs
 -- Occupied --
********-101.5521 -62.4786 -56.2990 -56.2953 -56.2951 -19.0899 -19.0871
-10.2444 -10.2362 -10.2359 -10.2302 -10.1830 -10.1825  -9.4659  -8.6871
 -7.2303  -7.2212  -7.2203  -6.5183  -6.5059  -6.5051  -2.6294  -2.6256
 -2.6250  -2.6154  -2.6153  -1.0196  -1.0090  -0.8776  -0.8419  -0.7867
 -0.7311  -0.6961  -0.6002  -0.5806  -0.5022  -0.4852  -0.4498  -0.4334
 -0.4267  -0.4166  -0.3960  -0.3892  -0.3766  -0.3533  -0.3229  -0.3130
 -0.2870  -0.2795  -0.2562  -0.2542  -0.2488  -0.1751

 Beta MOs
 -- Occupied --
********-101.5521 -62.4786 -56.2990 -56.2953 -56.2951 -19.0824 -19.0796
-10.2434 -10.2351 -10.2350 -10.2291 -10.1817 -10.1813  -9.4659  -8.6871
 -7.2304  -7.2210  -7.2203  -6.5183  -6.5058  -6.5051  -2.6294  -2.6256
 -2.6250  -2.6153  -2.6153  -1.0071  -0.9960  -0.8744  -0.8389  -0.7843
 -0.7288  -0.6860  -0.5960  -0.5765  -0.5001  -0.4810  -0.4471  -0.4249
 -0.4170  -0.4095  -0.3911  -0.3746  -0.3619  -0.3478  -0.3126  -0.3084
 -0.2866  -0.2537  -0.2492  -0.2478  -0.2421

          Ground-State Mulliken Net Atomic Charges

     Atom                 Charge (a.u.)    Spin (a.u.)
  --------------------------------------------------------
      1 C                    -2.140216       0.008122
      2 C                     1.368420       0.111195
      3 C                    -0.300227       0.079332
      4 C                    -1.093927       0.097505
      5 C                    -0.591169       0.079099
      6 C                     1.452601       0.090619
      7 O                    -0.396431       0.264911
      8 H                     0.205355      -0.008587
      9 O                    -0.241129       0.275595
     10 Cl                    0.468523       0.002603
     11 Br                    0.076012       0.006941
     12 H                     0.192187      -0.007335
  --------------------------------------------------------
  Sum of atomic charges =    -1.000000

                    Cartesian Multipole Moments
 -----------------------------------------------------------------
    Charge (ESU x 10^10)
                -4.8032
    Dipole Moment (Debye)
         X       6.7477      Y      -4.7477      Z      -0.5604
       Tot       8.2696
    Quadrupole Moments (Debye-Ang)
        XX     -98.6576     XY       5.1684     YY    -115.3654
        XZ      -0.3352     YZ     -13.2275     ZZ     -85.6997

 Total job time:  152.41s(wall), 1058.31s(cpu)
        *  Thank you very much for using Q-Chem.  Have a nice day.  *
