 Q-Chem 5.4, Q-Chem, Inc., Pleasanton, CA (2021)
 Q-Chem 5.4.0 for Intel X86 EM64T Linux

User input:
--------------------------------------------------------------
$molecule
-1 2
N                 -3.3412030000     -0.8993340000      0.0762850000
C                 -2.0839070000     -0.2919340000      0.1265110000
C                 -1.9141430000      1.0499070000      0.4152710000
C                 -0.6354350000      1.6947220000      0.4301780000
O                 -0.4875900000      2.9158240000      0.6992780000
C                  0.5226280000      0.8329680000      0.0997720000
C                  1.8160470000      1.3815470000      0.0774820000
C                  2.9219990000      0.6023250000     -0.2227990000
C                  2.7540130000     -0.7669370000     -0.5103480000
C                  1.4903430000     -1.3287870000     -0.4938080000
C                  0.3511320000     -0.5502630000     -0.1934070000
C                 -0.9683130000     -1.1703870000     -0.1745980000
O                 -1.1630430000     -2.4065400000     -0.3892370000
H                 -4.0192760000     -0.5471400000      0.7359500000
H                 -3.2472860000     -1.9100910000      0.0756710000
H                 -2.7765780000      1.6749780000      0.6341950000
H                  1.9112590000      2.4374360000      0.3057630000
H                  3.9145700000      1.0433160000     -0.2360370000
H                  3.6185120000     -1.3816740000     -0.7456490000
H                  1.3362710000     -2.3799370000     -0.7104740000
$end

$rem
BASIS  =  6-311++G(d,p)
GUI  =  2
JOB_TYPE  =  SP
METHOD  =  B3LYP
SCF_CONVERGENCE  = 8
SOLVENT_METHOD = sm12
$end

$smx
solvent dimethylformamide
charges CM5
$end

--------------------------------------------------------------

             Standard Nuclear Orientation (Angstroms)
    I     Atom           X                Y                Z
 ----------------------------------------------------------------
    1      N      -3.3412030000    -0.8993340000     0.0762850000
    2      C      -2.0839070000    -0.2919340000     0.1265110000
    3      C      -1.9141430000     1.0499070000     0.4152710000
    4      C      -0.6354350000     1.6947220000     0.4301780000
    5      O      -0.4875900000     2.9158240000     0.6992780000
    6      C       0.5226280000     0.8329680000     0.0997720000
    7      C       1.8160470000     1.3815470000     0.0774820000
    8      C       2.9219990000     0.6023250000    -0.2227990000
    9      C       2.7540130000    -0.7669370000    -0.5103480000
   10      C       1.4903430000    -1.3287870000    -0.4938080000
   11      C       0.3511320000    -0.5502630000    -0.1934070000
   12      C      -0.9683130000    -1.1703870000    -0.1745980000
   13      O      -1.1630430000    -2.4065400000    -0.3892370000
   14      H      -4.0192760000    -0.5471400000     0.7359500000
   15      H      -3.2472860000    -1.9100910000     0.0756710000
   16      H      -2.7765780000     1.6749780000     0.6341950000
   17      H       1.9112590000     2.4374360000     0.3057630000
   18      H       3.9145700000     1.0433160000    -0.2360370000
   19      H       3.6185120000    -1.3816740000    -0.7456490000
   20      H       1.3362710000    -2.3799370000    -0.7104740000
 ----------------------------------------------------------------

   18    -590.7109447111      6.72e-09  Convergence criterion met
 Total energy in the final basis set =     -590.8007322872

                    Orbital Energies (a.u.)
 --------------------------------------------------------------

 Alpha MOs
 -- Occupied --
-19.0813 -19.0717 -14.3186 -10.2253 -10.2217 -10.2119 -10.1835 -10.1822
-10.1813 -10.1796 -10.1794 -10.1790 -10.1586  -1.0044  -0.9957  -0.9118
 -0.8641  -0.7971  -0.7583  -0.7374  -0.6773  -0.6261  -0.6151  -0.5686
 -0.5381  -0.5162  -0.4854  -0.4768  -0.4556  -0.4382  -0.4308  -0.4229
 -0.4168  -0.4046  -0.3901  -0.3803  -0.3646  -0.3600  -0.3450  -0.3253
 -0.2696  -0.2648  -0.2503  -0.2372  -0.2275  -0.1516

 Beta MOs
 -- Occupied --
-19.0741 -19.0665 -14.3180 -10.2244 -10.2193 -10.2105 -10.1835 -10.1813
-10.1809 -10.1798 -10.1790 -10.1779 -10.1582  -0.9924  -0.9865  -0.9090
 -0.8622  -0.7928  -0.7563  -0.7356  -0.6681  -0.6246  -0.6122  -0.5661
 -0.5367  -0.5137  -0.4841  -0.4734  -0.4548  -0.4365  -0.4275  -0.4148
 -0.4104  -0.3990  -0.3870  -0.3650  -0.3578  -0.3516  -0.3433  -0.3095
 -0.2582  -0.2508  -0.2438  -0.2321  -0.2170

          Ground-State Mulliken Net Atomic Charges

     Atom                 Charge (a.u.)    Spin (a.u.)
  --------------------------------------------------------
      1 N                    -0.161174       0.033837
      2 C                     0.425690       0.085540
      3 C                     0.379197       0.038394
      4 C                    -1.421055       0.030930
      5 O                    -0.376746       0.188614
      6 C                    -1.388733       0.082823
      7 C                     0.015715      -0.007367
      8 C                     0.978059       0.071355
      9 C                     0.920710      -0.001680
     10 C                     0.178408       0.076894
     11 C                    -0.714345      -0.003777
     12 C                    -1.360145       0.150578
     13 O                    -0.353848       0.269307
     14 H                     0.375646       0.001887
     15 H                     0.310140      -0.002032
     16 H                     0.169846      -0.005163
     17 H                     0.137455      -0.000093
     18 H                     0.356998      -0.004998
     19 H                     0.369110      -0.000598
     20 H                     0.159071      -0.004450
  --------------------------------------------------------
  Sum of atomic charges =    -1.000000

                    Cartesian Multipole Moments
 -----------------------------------------------------------------
    Charge (ESU x 10^10)
                -4.8032
    Dipole Moment (Debye)
         X       2.0047      Y      -2.4178      Z       0.2911
       Tot       3.1542
    Quadrupole Moments (Debye-Ang)
        XX     -77.9823     XY      -0.1925     YY    -111.1017
        XZ      -5.1722     YZ      -7.1484     ZZ     -83.5862

 Total job time:  293.77s(wall), 2269.24s(cpu)
        *  Thank you very much for using Q-Chem.  Have a nice day.  *
