 Gaussian 16, Revision A.03,
 Gaussian 16:  ES64L-G16RevA.03 25-Dec-2016

 --------------------------------------
 #P UB3LYP/6-311++G(d,p) nosym opt freq
 --------------------------------------

 -------
 Radical
 -------
 Symbolic Z-matrix:
 Charge = -1 Multiplicity = 2

 SCF Done:  E(UB3LYP) =  -590.714006653     A.U. after   24 cycles
 Optimization completed.
    -- Stationary point found.
 Normal termination of Gaussian 16 at Mon Jan  8 01:24:20 2024.

 ----------------------------------------------------------------------
 #P Geom=AllCheck Guess=TCheck SCRF=Check GenChk UB3LYP/6-311++G(d,p) F
 req
 ----------------------------------------------------------------------

 Structure from the checkpoint file:  "269-rad.chk"
 -------
 Radical
 -------
 Charge = -1 Multiplicity = 2

                          Input orientation:
 ---------------------------------------------------------------------
 Center     Atomic      Atomic             Coordinates (Angstroms)
 Number     Number       Type             X           Y           Z
 ---------------------------------------------------------------------
      1          7           0       -3.341203   -0.899334    0.076285
      2          6           0       -2.083907   -0.291934    0.126511
      3          6           0       -1.914143    1.049907    0.415271
      4          6           0       -0.635435    1.694722    0.430178
      5          8           0       -0.487590    2.915824    0.699278
      6          6           0        0.522628    0.832968    0.099772
      7          6           0        1.816047    1.381547    0.077482
      8          6           0        2.921999    0.602325   -0.222799
      9          6           0        2.754013   -0.766937   -0.510348
     10          6           0        1.490343   -1.328787   -0.493808
     11          6           0        0.351132   -0.550263   -0.193407
     12          6           0       -0.968313   -1.170387   -0.174598
     13          8           0       -1.163043   -2.406540   -0.389237
     14          1           0       -4.019276   -0.547140    0.735950
     15          1           0       -3.247286   -1.910091    0.075671
     16          1           0       -2.776578    1.674978    0.634195
     17          1           0        1.911259    2.437436    0.305763
     18          1           0        3.914570    1.043316   -0.236037
     19          1           0        3.618512   -1.381674   -0.745649
     20          1           0        1.336271   -2.379937   -0.710474
 ---------------------------------------------------------------------

 SCF Done:  E(UB3LYP) =  -590.714006653     A.U. after    1 cycles

 Alpha  occ. eigenvalues --  -18.94035 -18.92991 -14.18948 -10.08354 -10.08175
 Alpha  occ. eigenvalues --  -10.07307 -10.04977 -10.04808 -10.04218 -10.04150
 Alpha  occ. eigenvalues --  -10.04114 -10.03877 -10.01918  -0.86414  -0.85365
 Alpha  occ. eigenvalues --   -0.78088  -0.72675  -0.65932  -0.62060  -0.60070
 Alpha  occ. eigenvalues --   -0.53879  -0.48879  -0.47976  -0.43024  -0.40580
 Alpha  occ. eigenvalues --   -0.38200  -0.35286  -0.34020  -0.31977  -0.30122
 Alpha  occ. eigenvalues --   -0.29369  -0.28342  -0.27888  -0.26334  -0.25273
 Alpha  occ. eigenvalues --   -0.24014  -0.22706  -0.22339  -0.20697  -0.19033
 Alpha  occ. eigenvalues --   -0.13078  -0.12614  -0.11026  -0.09541  -0.09131
 Alpha  occ. eigenvalues --   -0.01139
 Alpha virt. eigenvalues --    0.08714   0.09094   0.09829   0.10647   0.11678
 Alpha virt. eigenvalues --    0.12006   0.12391   0.14244   0.14815   0.16142
 Alpha virt. eigenvalues --    0.16711   0.18087   0.18478   0.18730   0.18956

  Beta  occ. eigenvalues --  -18.93330 -18.92446 -14.18905 -10.08272 -10.07938
  Beta  occ. eigenvalues --  -10.07169 -10.04972 -10.04715 -10.04192 -10.04184
  Beta  occ. eigenvalues --  -10.04078 -10.03754 -10.01856  -0.85248  -0.84415
  Beta  occ. eigenvalues --   -0.77828  -0.72479  -0.65487  -0.61877  -0.59875
  Beta  occ. eigenvalues --   -0.52961  -0.48728  -0.47691  -0.42793  -0.40453
  Beta  occ. eigenvalues --   -0.37958  -0.35173  -0.33657  -0.31908  -0.29918
  Beta  occ. eigenvalues --   -0.29189  -0.27722  -0.26991  -0.25741  -0.24970
  Beta  occ. eigenvalues --   -0.22903  -0.22139  -0.21010  -0.20502  -0.17534
  Beta  occ. eigenvalues --   -0.11996  -0.11103  -0.10378  -0.09013  -0.08009
  Beta virt. eigenvalues --    0.05414   0.08707   0.09117   0.10414   0.10640
  Beta virt. eigenvalues --    0.11998   0.12338   0.12817   0.14239   0.14848
  Beta virt. eigenvalues --    0.16199   0.16741   0.18183   0.18642   0.18884

 Mulliken charges and spin densities:
               1          2
     1  N   -0.359372   0.024420
     2  C    0.088706   0.077146
     3  C    0.610423   0.058511
     4  C   -0.826009   0.026935
     5  O   -0.412184   0.197226
     6  C    0.300361   0.089638
     7  C    0.149355  -0.013707
     8  C   -0.314810   0.073691
     9  C   -0.306740  -0.000003
    10  C    0.075496   0.066544
    11  C    0.336054   0.003202
    12  C   -1.051547   0.151260
    13  O   -0.435788   0.261680
    14  H    0.212361   0.002597
    15  H    0.260567  -0.002340
    16  H    0.129074  -0.006553
    17  H    0.151015   0.000068
    18  H    0.120307  -0.005516
    19  H    0.122137  -0.000804
    20  H    0.150593  -0.003997
 Sum of Mulliken charges =  -1.00000   1.00000

 Dipole moment (field-independent basis, Debye):
    X=              1.6505    Y=             -1.8525    Z=              0.4137  Tot=              2.5154
 Quadrupole moment (field-independent basis, Debye-Ang):
   XX=            -83.7425   YY=           -110.6522   ZZ=            -83.3565
   XY=             -0.8879   XZ=             -4.4326   YZ=             -7.0238

  Exact polarizability: 216.120  10.139 179.585 -13.908  21.426  85.042
 Approx polarizability: 324.373  24.398 329.948 -17.491  44.852 132.365

                      1                      2                      3
                      A                      A                      A
 Frequencies --     87.7932               136.8324               171.9224
 Red. masses --      6.2074                 4.4389                 7.0043
 Frc consts  --      0.0282                 0.0490                 0.1220
 IR Inten    --     10.4770                 0.3675                 1.5944

                      4                      5                      6
                      A                      A                      A
 Frequencies --    232.2133               258.3363               317.5175
 Red. masses --      4.6494                 4.9582                 3.2229
 Frc consts  --      0.1477                 0.1950                 0.1914
 IR Inten    --      2.2249                 4.4442                 3.0204

                      7                      8                      9
                      A                      A                      A
 Frequencies --    367.6276               370.8270               398.7348
 Red. masses --      1.6175                 7.4735                 3.3383
 Frc consts  --      0.1288                 0.6055                 0.3127
 IR Inten    --    100.1181                 1.0429                 7.0214

                     10                     11                     12
                      A                      A                      A
 Frequencies --    420.9633               447.5342               473.8720
 Red. masses --      4.7729                 3.7391                 8.8855
 Frc consts  --      0.4983                 0.4412                 1.1756
 IR Inten    --      6.2945                 3.8123                 3.0590

                     13                     14                     15
                      A                      A                      A
 Frequencies --    505.5433               532.5867               649.4630
 Red. masses --      3.3390                 8.1807                 4.2274
 Frc consts  --      0.5028                 1.3672                 1.0506
 IR Inten    --      6.5030                 0.9905                68.0740

                     16                     17                     18
                      A                      A                      A
 Frequencies --    654.1246               659.3122               687.5087
 Red. masses --      2.9606                 3.3807                 2.3464
 Frc consts  --      0.7464                 0.8658                 0.6535
 IR Inten    --     75.7221                 5.8944               120.9967

                     19                     20                     21
                      A                      A                      A
 Frequencies --    717.4478               734.0539               768.1647
 Red. masses --      3.5015                 2.6257                 2.0384
 Frc consts  --      1.0619                 0.8336                 0.7087
 IR Inten    --     20.5451                75.0952                45.5887

                     22                     23                     24
                      A                      A                      A
 Frequencies --    774.7690               820.6229               832.8354
 Red. masses --      3.1545                 3.9338                 1.8107
 Frc consts  --      1.1156                 1.5608                 0.7400
 IR Inten    --     24.0276                16.9032                24.9421

                     25                     26                     27
                      A                      A                      A
 Frequencies --    862.8661               971.5671               974.5777
 Red. masses --      1.4256                 1.3166                 1.2830
 Frc consts  --      0.6254                 0.7322                 0.7180
 IR Inten    --      0.0935                 1.9675                 1.2883

                     28                     29                     30
                      A                      A                      A
 Frequencies --    995.6495              1039.5822              1088.7747
 Red. masses --      5.5654                 1.9978                 2.9490
 Frc consts  --      3.2506                 1.2721                 2.0597
 IR Inten    --     28.6629                11.6802                 4.7680

                     31                     32                     33
                      A                      A                      A
 Frequencies --   1122.4077              1141.4677              1156.4698
 Red. masses --      1.4793                 1.5194                 1.3480
 Frc consts  --      1.0980                 1.1664                 1.0622
 IR Inten    --      6.6226                13.7642                 1.2974

                     34                     35                     36
                      A                      A                      A
 Frequencies --   1217.5616              1244.4795              1249.4179
 Red. masses --      2.2834                 3.6560                 2.0481
 Frc consts  --      1.9944                 3.3360                 1.8837
 IR Inten    --     21.4272                14.9065                93.1090

                     37                     38                     39
                      A                      A                      A
 Frequencies --   1308.3813              1350.7269              1430.2125
 Red. masses --      2.0356                 9.7750                 2.8205
 Frc consts  --      2.0531                10.5076                 3.3992
 IR Inten    --      2.0630                19.3718                68.2567

                     40                     41                     42
                      A                      A                      A
 Frequencies --   1457.9318              1470.2468              1513.5489
 Red. masses --      3.3512                 2.7184                 7.4254
 Frc consts  --      4.1969                 3.4621                10.0222
 IR Inten    --    172.0926                48.0137               252.9865

                     43                     44                     45
                      A                      A                      A
 Frequencies --   1542.8189              1554.6572              1598.9946
 Red. masses --      5.6358                 5.0721                 1.5681
 Frc consts  --      7.9037                 7.2228                 2.3622
 IR Inten    --    238.4419               147.9052                48.3802

                     46                     47                     48
                      A                      A                      A
 Frequencies --   1619.8280              1632.3457              3128.9653
 Red. masses --      3.3872                 5.6886                 1.0844
 Frc consts  --      5.2363                 8.9305                 6.2552
 IR Inten    --     10.3360               114.6017                18.7831

                     49                     50                     51
                      A                      A                      A
 Frequencies --   3133.2572              3148.8704              3176.9078
 Red. masses --      1.0886                 1.0909                 1.0913
 Frc consts  --      6.2965                 6.3732                 6.4891
 IR Inten    --     38.4306                50.4448                15.3369

                     52                     53                     54
                      A                      A                      A
 Frequencies --   3179.8699              3504.6037              3633.6233
 Red. masses --      1.0927                 1.0492                 1.0948
 Frc consts  --      6.5100                 7.5923                 8.5167
 IR Inten    --     24.6295                15.6704                 9.2106

 - Thermochemistry -
 -------------------
 Temperature   298.150 Kelvin.  Pressure   1.00000 Atm.
 Atom     1 has atomic number  7 and mass  14.00307

 Molecular mass:   173.04768 amu.
 Principal axes and moments of inertia in atomic units:
                           1         2         3
     Eigenvalues --  1433.978032289.808873721.56529
           X            0.97543  -0.19178   0.10844
           Y            0.21142   0.95325  -0.21590
           Z           -0.06197   0.23352   0.97037
 This molecule is an asymmetric top.
 Rotational symmetry number  1.
 Warning -- assumption of classical behavior for rotation
           may cause significant error
 Rotational temperatures (Kelvin)      0.06040     0.03783     0.02327
 Rotational constants (GHZ):           1.25856     0.78816     0.48494
 Zero-point vibrational energy     385623.5 (Joules/Mol)
                                   92.16623 (Kcal/Mol)
 Warning -- explicit consideration of  14 degrees of freedom as
           vibrations may cause significant error
 Vibrational temperatures:    126.31   196.87   247.36   334.10   371.69
          (Kelvin)            456.84   528.93   533.54   573.69   605.67
                              643.90   681.80   727.36   766.27   934.43
                              941.14   948.60   989.17  1032.25  1056.14
                             1105.22  1114.72  1180.69  1198.26  1241.47
                             1397.87  1402.20  1432.52  1495.73  1566.50
                             1614.89  1642.32  1663.90  1751.80  1790.53
                             1797.63  1882.47  1943.39  2057.76  2097.64
                             2115.36  2177.66  2219.77  2236.80  2300.60
                             2330.57  2348.58  4501.88  4508.06  4530.52
                             4570.86  4575.12  5042.34  5227.97

 Zero-point correction=                           0.146876 (Hartree/Particle)
 Thermal correction to Energy=                    0.156780
 Thermal correction to Enthalpy=                  0.157724
 Thermal correction to Gibbs Free Energy=         0.111140
 Sum of electronic and zero-point Energies=           -590.567130
 Sum of electronic and thermal Energies=              -590.557226
 Sum of electronic and thermal Enthalpies=            -590.556282
 Sum of electronic and thermal Free Energies=         -590.602866

                     E (Thermal)             CV                S
                      KCal/Mol        Cal/Mol-Kelvin    Cal/Mol-Kelvin
 Total                   98.381             40.283             98.044
 Electronic               0.000              0.000              1.377
 Translational            0.889              2.981             41.353
 Rotational               0.889              2.981             30.881
 Vibrational             96.604             34.322             24.434
 Vibration     1          0.601              1.958              3.709
 Vibration     2          0.614              1.917              2.848
 Vibration     3          0.626              1.877              2.414
 Vibration     4          0.653              1.792              1.862
 Vibration     5          0.667              1.749              1.673
 Vibration     6          0.704              1.640              1.323
 Vibration     7          0.740              1.539              1.090
 Vibration     8          0.743              1.532              1.076
 Vibration     9          0.765              1.473              0.967
 Vibration    10          0.783              1.425              0.889
 Vibration    11          0.807              1.366              0.803
 Vibration    12          0.831              1.308              0.727
 Vibration    13          0.861              1.238              0.644
 Vibration    14          0.888              1.178              0.581

                           ! Non-Optimized Parameters !
 Normal termination of Gaussian 16 at Mon Jan  8 01:48:32 2024.
