 Q-Chem 5.4, Q-Chem, Inc., Pleasanton, CA (2021)
 Q-Chem 5.4.0 for Intel X86 EM64T Linux

User input:
--------------------------------------------------------------
$molecule
0 1
O                  1.4223280000      2.2446740000     -0.0220020000
C                  0.7909100000      1.2022170000     -0.0977720000
C                 -0.6828800000      1.2382940000     -0.1616670000
C                 -1.4680860000      0.1421810000     -0.2217890000
C                 -0.7908070000     -1.2022080000     -0.2249090000
O                 -1.4221590000     -2.2446120000     -0.3017790000
C                  0.6829600000     -1.2382910000     -0.1604120000
C                  1.4681420000     -0.1421730000     -0.1001560000
C                  2.9413550000     -0.2319210000     -0.0175220000
C                  3.5355100000     -1.2290110000      0.7730950000
C                  4.9187610000     -1.3602280000      0.8346220000
C                  5.7349590000     -0.4987590000      0.1030170000
C                  5.1575720000      0.4979230000     -0.6820330000
C                  3.7744440000      0.6393500000     -0.7375130000
C                 -2.9413490000      0.2319260000     -0.3036680000
C                 -3.5359600000      1.2294530000     -1.0934000000
C                 -4.9192470000      1.3606610000     -1.1541120000
C                 -5.7350290000      0.4987540000     -0.4225720000
C                 -5.1572020000     -0.4983690000      0.3615830000
C                 -3.7740410000     -0.6397920000      0.4162390000
H                 -1.1042960000      2.2367730000     -0.1267910000
H                  1.1044100000     -2.2367680000     -0.1951060000
H                  2.9081850000     -1.8881330000      1.3622730000
H                  5.3588300000     -2.1291540000      1.4593750000
H                  6.8133850000     -0.5993450000      0.1498920000
H                  5.7864450000      1.1722610000     -1.2521180000
H                  3.3393740000      1.4219880000     -1.3429510000
H                 -2.9089740000      1.8889080000     -1.6825490000
H                 -5.3596680000      2.1299280000     -1.7781970000
H                 -6.8134840000      0.5993430000     -0.4688080000
H                 -5.7857430000     -1.1730730000      0.9316010000
H                 -3.3386460000     -1.4227960000      1.0209730000
$end
$rem
MAX_SCF_CYCLES=200
BASIS  =  6-311++G(d,p)
GUI  =  2
JOB_TYPE  =  SP
METHOD  =  B3LYP
SOLVENT_METHOD = PCM
$end
$pcm
theory = CPCM
$end
$solvent
dielectric 37.219
opticaldielectric 1.43
$end

--------------------------------------------------------------

             Standard Nuclear Orientation (Angstroms)
    I     Atom           X                Y                Z
 ----------------------------------------------------------------
    1      O       1.4223280000     2.2446740000    -0.0220020000
    2      C       0.7909100000     1.2022170000    -0.0977720000
    3      C      -0.6828800000     1.2382940000    -0.1616670000
    4      C      -1.4680860000     0.1421810000    -0.2217890000
    5      C      -0.7908070000    -1.2022080000    -0.2249090000
    6      O      -1.4221590000    -2.2446120000    -0.3017790000
    7      C       0.6829600000    -1.2382910000    -0.1604120000
    8      C       1.4681420000    -0.1421730000    -0.1001560000
    9      C       2.9413550000    -0.2319210000    -0.0175220000
   10      C       3.5355100000    -1.2290110000     0.7730950000
   11      C       4.9187610000    -1.3602280000     0.8346220000
   12      C       5.7349590000    -0.4987590000     0.1030170000
   13      C       5.1575720000     0.4979230000    -0.6820330000
   14      C       3.7744440000     0.6393500000    -0.7375130000
   15      C      -2.9413490000     0.2319260000    -0.3036680000
   16      C      -3.5359600000     1.2294530000    -1.0934000000
   17      C      -4.9192470000     1.3606610000    -1.1541120000
   18      C      -5.7350290000     0.4987540000    -0.4225720000
   19      C      -5.1572020000    -0.4983690000     0.3615830000
   20      C      -3.7740410000    -0.6397920000     0.4162390000
   21      H      -1.1042960000     2.2367730000    -0.1267910000
   22      H       1.1044100000    -2.2367680000    -0.1951060000
   23      H       2.9081850000    -1.8881330000     1.3622730000
   24      H       5.3588300000    -2.1291540000     1.4593750000
   25      H       6.8133850000    -0.5993450000     0.1498920000
   26      H       5.7864450000     1.1722610000    -1.2521180000
   27      H       3.3393740000     1.4219880000    -1.3429510000
   28      H      -2.9089740000     1.8889080000    -1.6825490000
   29      H      -5.3596680000     2.1299280000    -1.7781970000
   30      H      -6.8134840000     0.5993430000    -0.4688080000
   31      H      -5.7857430000    -1.1730730000     0.9316010000
   32      H      -3.3386460000    -1.4227960000     1.0209730000
 ----------------------------------------------------------------

    8    -843.8014515795      6.45e-06  Convergence criterion met
 Total energy in the final basis set =     -843.8014515795

                    Orbital Energies (a.u.)
 --------------------------------------------------------------

 Alpha MOs
 -- Occupied --
-19.1422 -19.1421 -10.2891 -10.2891 -10.2243 -10.2243 -10.2054 -10.2054
-10.2020 -10.2020 -10.1869 -10.1869 -10.1856 -10.1856 -10.1844 -10.1844
-10.1829 -10.1829 -10.1823 -10.1823  -1.0748  -1.0730  -0.8851  -0.8770
 -0.8551  -0.8164  -0.7672  -0.7593  -0.7589  -0.7450  -0.7058  -0.6575
 -0.6334  -0.6189  -0.6097  -0.6038  -0.5812  -0.5346  -0.5302  -0.5267
 -0.4967  -0.4870  -0.4714  -0.4664  -0.4663  -0.4593  -0.4506  -0.4446
 -0.4351  -0.4327  -0.4300  -0.4279  -0.4214  -0.4073  -0.3846  -0.3829
 -0.3661  -0.3641  -0.3565  -0.3551  -0.3185  -0.3154  -0.2936  -0.2811
 -0.2670  -0.2667  -0.2622  -0.2523

          Ground-State Mulliken Net Atomic Charges

     Atom                 Charge (a.u.)
  ----------------------------------------
      1 O                    -0.283074
      2 C                    -0.802774
      3 C                    -0.533278
      4 C                     1.193167
      5 C                    -0.802961
      6 O                    -0.283106
      7 C                    -0.533223
      8 C                     1.194486
      9 C                     1.349159
     10 C                    -0.806643
     11 C                    -0.229334
     12 C                    -0.526522
     13 C                    -0.126990
     14 C                    -0.538483
     15 C                     1.349862
     16 C                    -0.805060
     17 C                    -0.229815
     18 C                    -0.526717
     19 C                    -0.127095
     20 C                    -0.539323
     21 H                     0.244467
     22 H                     0.244529
     23 H                     0.211295
     24 H                     0.220169
     25 H                     0.203182
     26 H                     0.223975
     27 H                     0.200719
     28 H                     0.211340
     29 H                     0.220168
     30 H                     0.203170
     31 H                     0.224002
     32 H                     0.200687
  ----------------------------------------
  Sum of atomic charges =    -0.000022

                    Cartesian Multipole Moments
 -----------------------------------------------------------------
    Charge (ESU x 10^10)
                -0.0001
    Dipole Moment (Debye)
         X      -0.0008      Y      -0.0003      Z       0.0038
       Tot       0.0039
    Quadrupole Moments (Debye-Ang)
        XX     -89.5957     XY     -14.6035     YY    -123.7185
        XZ      -0.3020     YZ     -10.7816     ZZ    -114.0976

 Total job time:  75.07s(wall), 441.77s(cpu)
        *  Thank you very much for using Q-Chem.  Have a nice day.  *
