 Gaussian 16, Revision A.03,
 Gaussian 16:  ES64L-G16RevA.03 25-Dec-2016

 ----------------------------------------------------------------------
 #P UB3LYP/6-311++G(d,p) nosym opt freq SCRF=(PCM,Solvent=n,n-DiMethylF
 ormamide)
 ----------------------------------------------------------------------

 --------
 Oxidized
 --------
 Symbolic Z-matrix:
 Charge =  0 Multiplicity = 1

 SCF Done:  E(UB3LYP) =  -669.281514205     A.U. after   16 cycles
 SCF Done:  E(UB3LYP) =  -669.281600722     A.U. after   14 cycles
 SCF Done:  E(UB3LYP) =  -669.281859453     A.U. after   14 cycles
 SCF Done:  E(UB3LYP) =  -669.281953338     A.U. after   14 cycles
 SCF Done:  E(UB3LYP) =  -669.282064917     A.U. after   12 cycles
 SCF Done:  E(UB3LYP) =  -669.282106219     A.U. after   13 cycles
 SCF Done:  E(UB3LYP) =  -669.282163167     A.U. after   12 cycles
 SCF Done:  E(UB3LYP) =  -669.282195501     A.U. after   12 cycles
 SCF Done:  E(UB3LYP) =  -669.282201821     A.U. after   12 cycles
 SCF Done:  E(UB3LYP) =  -669.282240415     A.U. after   12 cycles
 SCF Done:  E(UB3LYP) =  -669.282304037     A.U. after   14 cycles
 SCF Done:  E(UB3LYP) =  -669.282311675     A.U. after   12 cycles
 SCF Done:  E(UB3LYP) =  -669.282314825     A.U. after   11 cycles
 SCF Done:  E(UB3LYP) =  -669.282316344     A.U. after   11 cycles
 SCF Done:  E(UB3LYP) =  -669.282316976     A.U. after   10 cycles
 SCF Done:  E(UB3LYP) =  -669.282317162     A.U. after   10 cycles
 SCF Done:  E(UB3LYP) =  -669.282317195     A.U. after    9 cycles
 Optimization completed.
    -- Stationary point found.
 Normal termination of Gaussian 16 at Sun Feb 11 01:01:06 2024.

 ----------------------------------------------------------------------
 #P Geom=AllCheck Guess=TCheck SCRF=Check GenChk UB3LYP/6-311++G(d,p) F
 req
 ----------------------------------------------------------------------

 Structure from the checkpoint file:  "274.chk"
 --------
 Oxidized
 --------
 Charge =  0 Multiplicity = 1

                          Input orientation:
 ---------------------------------------------------------------------
 Center     Atomic      Atomic             Coordinates (Angstroms)
 Number     Number       Type             X           Y           Z
 ---------------------------------------------------------------------
      1          6           0       -1.679369    3.113829    0.187994
      2          6           0       -2.871474    2.416293    0.017416
      3          6           0       -2.849244    1.032192   -0.166664
      4          6           0       -0.459057    2.431416    0.157950
      5          6           0       -0.436054    1.040755   -0.031176
      6          6           0       -1.635973    0.346979   -0.186204
      7          6           0        0.801602    3.185245    0.378883
      8          6           0        2.108497    2.471426    0.090272
      9          6           0        2.080489    1.095562   -0.016851
     10          6           0        0.872448    0.315625   -0.066224
     11          8           0        0.789106    4.316530    0.836007
     12          8           0        0.897240   -0.918271   -0.183653
     13          7           0        3.255721    3.188677    0.083145
     14          6           0        3.349227    4.618674   -0.241969
     15          6           0        4.537607    2.488800    0.120391
     16          1           0       -1.681629    4.185724    0.340870
     17          1           0       -3.815668    2.947784    0.031225
     18          1           0       -3.778093    0.488304   -0.294029
     19          1           0       -1.605063   -0.726685   -0.322147
     20          1           0        2.994481    0.529522   -0.132374
     21          1           0        2.415194    4.996841   -0.640209
     22          1           0        4.128940    4.743836   -0.997087
     23          1           0        3.619219    5.202781    0.641621
     24          1           0        4.529352    1.720222    0.894706
     25          1           0        5.318648    3.209650    0.356418
     26          1           0        4.772750    2.020080   -0.842685
 ---------------------------------------------------------------------

 SCF Done:  E(UB3LYP) =  -669.282317195     A.U. after    1 cycles

 Alpha  occ. eigenvalues --  -19.14085 -19.10976 -14.37057 -10.29282 -10.26492
 Alpha  occ. eigenvalues --  -10.25209 -10.20993 -10.20737 -10.20645 -10.20409
 Alpha  occ. eigenvalues --  -10.19791 -10.19702 -10.19508 -10.19378 -10.17905
 Alpha  occ. eigenvalues --   -1.07653  -1.03808  -0.97759  -0.88741  -0.82632
 Alpha  occ. eigenvalues --   -0.77617  -0.77327  -0.73854  -0.71361  -0.67574
 Alpha  occ. eigenvalues --   -0.64209  -0.61383  -0.58611  -0.54604  -0.53757
 Alpha  occ. eigenvalues --   -0.51651  -0.49349  -0.48775  -0.47428  -0.46548
 Alpha  occ. eigenvalues --   -0.45011  -0.44601  -0.44582  -0.43338  -0.42761
 Alpha  occ. eigenvalues --   -0.41804  -0.41277  -0.40633  -0.39111  -0.38116
 Alpha  occ. eigenvalues --   -0.37649  -0.36671  -0.33143  -0.28786  -0.28147
 Alpha  occ. eigenvalues --   -0.27604  -0.26777  -0.22921
 Alpha virt. eigenvalues --   -0.11584  -0.05259  -0.02339  -0.00860   0.00057
 Alpha virt. eigenvalues --    0.00920   0.01852   0.02095   0.02163   0.02892
 Alpha virt. eigenvalues --    0.03732   0.03987   0.04324   0.04487   0.04892

  Beta  occ. eigenvalues --  -19.14085 -19.10976 -14.37057 -10.29282 -10.26492
  Beta  occ. eigenvalues --  -10.25209 -10.20993 -10.20737 -10.20645 -10.20409
  Beta  occ. eigenvalues --  -10.19791 -10.19702 -10.19508 -10.19378 -10.17905
  Beta  occ. eigenvalues --   -1.07653  -1.03808  -0.97759  -0.88741  -0.82632
  Beta  occ. eigenvalues --   -0.77617  -0.77327  -0.73854  -0.71361  -0.67574
  Beta  occ. eigenvalues --   -0.64209  -0.61383  -0.58611  -0.54604  -0.53757
  Beta  occ. eigenvalues --   -0.51651  -0.49349  -0.48775  -0.47428  -0.46548
  Beta  occ. eigenvalues --   -0.45011  -0.44601  -0.44582  -0.43338  -0.42761
  Beta  occ. eigenvalues --   -0.41804  -0.41277  -0.40633  -0.39111  -0.38116
  Beta  occ. eigenvalues --   -0.37649  -0.36671  -0.33143  -0.28786  -0.28147
  Beta  occ. eigenvalues --   -0.27604  -0.26777  -0.22921
  Beta virt. eigenvalues --   -0.11584  -0.05259  -0.02339  -0.00860   0.00057
  Beta virt. eigenvalues --    0.00920   0.01852   0.02095   0.02163   0.02892
  Beta virt. eigenvalues --    0.03732   0.03987   0.04324   0.04487   0.04892

 Mulliken charges and spin densities:
               1          2
     1  C    0.182042  -0.000000
     2  C   -0.414109   0.000000
     3  C   -0.372233  -0.000000
     4  C    0.543168  -0.000000
     5  C    0.469316   0.000000
     6  C    0.213537   0.000000
     7  C   -0.902015   0.000000
     8  C   -0.225078  -0.000000
     9  C    0.122305   0.000000
    10  C   -0.387073  -0.000000
    11  O   -0.247995  -0.000000
    12  O   -0.374497   0.000000
    13  N    0.100674   0.000000
    14  C   -0.413581   0.000000
    15  C   -0.405055  -0.000000
    16  H    0.190891   0.000000
    17  H    0.207834   0.000000
    18  H    0.206416   0.000000
    19  H    0.183701  -0.000000
    20  H    0.218249   0.000000
    21  H    0.180420   0.000000
    22  H    0.159230   0.000000
    23  H    0.209283  -0.000000
    24  H    0.168122  -0.000000
    25  H    0.183854  -0.000000
    26  H    0.202594  -0.000000
 Sum of Mulliken charges =  -0.00000  -0.00000

 Dipole moment (field-independent basis, Debye):
    X=              1.9162    Y=              4.5889    Z=             -1.1595  Tot=              5.1063
 Quadrupole moment (field-independent basis, Debye-Ang):
   XX=            -53.0767   YY=            -84.5186   ZZ=            -91.1826
   XY=             15.2080   XZ=             -0.7731   YZ=             -6.9511

  Exact polarizability: 292.910  44.093 289.478   4.395  19.754 120.334
 Approx polarizability: 308.147  52.018 377.747   7.609  30.596 140.921

                      1                      2                      3
                      A                      A                      A
 Frequencies --     42.1757                60.2022               110.8001
 Red. masses --      4.8528                 2.1274                 2.1783
 Frc consts  --      0.0051                 0.0045                 0.0158
 IR Inten    --     12.3452                 7.9129                 0.1173

                      4                      5                      6
                      A                      A                      A
 Frequencies --    119.1489               135.5140               178.4027
 Red. masses --      2.4511                 4.3883                 2.0365
 Frc consts  --      0.0205                 0.0475                 0.0382
 IR Inten    --      0.8225                 2.4593                 2.0444

                      7                      8                      9
                      A                      A                      A
 Frequencies --    196.4687               226.1335               247.3057
 Red. masses --      2.6492                 2.4357                 2.9210
 Frc consts  --      0.0602                 0.0734                 0.1053
 IR Inten    --      0.3627                10.8245                18.0455

                     10                     11                     12
                      A                      A                      A
 Frequencies --    292.9079               325.4388               375.8439
 Red. masses --      4.5778                 3.8115                 7.2646
 Frc consts  --      0.2314                 0.2378                 0.6046
 IR Inten    --      1.6498                 6.3275                33.6842

                     13                     14                     15
                      A                      A                      A
 Frequencies --    400.5810               408.7939               449.3067
 Red. masses --      4.5489                 3.7124                 4.8041
 Frc consts  --      0.4301                 0.3655                 0.5714
 IR Inten    --      8.5651                 3.4748                 3.1130

                     16                     17                     18
                      A                      A                      A
 Frequencies --    464.2773               484.0308               519.0349
 Red. masses --      3.8081                 6.9244                 3.7863
 Frc consts  --      0.4836                 0.9558                 0.6010
 IR Inten    --     13.2396                 2.6706                 3.7737

                     19                     20                     21
                      A                      A                      A
 Frequencies --    540.8466               642.4954               675.9791
 Red. masses --      4.4835                 5.9365                 3.7158
 Frc consts  --      0.7727                 1.4438                 1.0004
 IR Inten    --     11.3727                14.6604                 5.0007

                     22                     23                     24
                      A                      A                      A
 Frequencies --    697.0057               721.3741               736.8248
 Red. masses --      5.4634                 6.4513                 2.7718
 Frc consts  --      1.5638                 1.9780                 0.8866
 IR Inten    --      2.0665                 0.6091                63.8908

                     25                     26                     27
                      A                      A                      A
 Frequencies --    784.8040               817.4599               829.6915
 Red. masses --      1.7879                 3.5258                 4.5657
 Frc consts  --      0.6488                 1.3882                 1.8518
 IR Inten    --     74.1701                24.2423                14.3460

                     28                     29                     30
                      A                      A                      A
 Frequencies --    844.8905               862.6378               913.1099
 Red. masses --      1.7830                 4.9117                 1.4195
 Frc consts  --      0.7499                 2.1535                 0.6973
 IR Inten    --     51.6636                 3.3762                 0.9144

                     31                     32                     33
                      A                      A                      A
 Frequencies --    995.5401              1001.2911              1019.7238
 Red. masses --      1.4590                 3.4271                 1.3268
 Frc consts  --      0.8520                 2.0244                 0.8129
 IR Inten    --     13.5119               196.8069                 0.4323

                     34                     35                     36
                      A                      A                      A
 Frequencies --   1053.6020              1073.4622              1101.3921
 Red. masses --      2.0316                 1.6403                 2.8356
 Frc consts  --      1.3287                 1.1137                 2.0266
 IR Inten    --      0.3074                32.7572                24.9163

                     37                     38                     39
                      A                      A                      A
 Frequencies --   1115.5613              1143.9596              1147.8087
 Red. masses --      1.2402                 1.9393                 1.3910
 Frc consts  --      0.9093                 1.4953                 1.0798
 IR Inten    --      8.7249                36.1492                10.6398

                     40                     41                     42
                      A                      A                      A
 Frequencies --   1167.0691              1179.5283              1227.9328
 Red. masses --      1.6769                 1.2180                 2.2043
 Frc consts  --      1.3457                 0.9984                 1.9583
 IR Inten    --    217.4725                12.5505                 8.5792

                     43                     44                     45
                      A                      A                      A
 Frequencies --   1244.8677              1289.1694              1312.1276
 Red. masses --      2.2262                 2.4938                 2.4368
 Frc consts  --      2.0326                 2.4419                 2.4719
 IR Inten    --     60.7860               328.3250               575.3292

                     46                     47                     48
                      A                      A                      A
 Frequencies --   1355.6512              1373.3519              1421.8204
 Red. masses --      5.1358                 3.3691                 2.7185
 Frc consts  --      5.5610                 3.7439                 3.2379
 IR Inten    --     39.8882                61.7874               183.8394

                     49                     50                     51
                      A                      A                      A
 Frequencies --   1450.3873              1467.3377              1477.3619
 Red. masses --      1.1385                 1.3436                 1.1729
 Frc consts  --      1.4110                 1.7044                 1.5083
 IR Inten    --      1.6980               150.9875                23.3767

                     52                     53                     54
                      A                      A                      A
 Frequencies --   1480.3950              1487.3274              1499.7819
 Red. masses --      2.0484                 1.0502                 1.0537
 Frc consts  --      2.6449                 1.3688                 1.3965
 IR Inten    --     26.7234                14.6203                 6.6329

                     55                     56                     57
                      A                      A                      A
 Frequencies --   1502.6744              1511.1971              1582.1255
 Red. masses --      2.2978                 1.3761                 4.2820
 Frc consts  --      3.0569                 1.8515                 6.3150
 IR Inten    --     22.4533                18.7720              1550.7855

                     58                     59                     60
                      A                      A                      A
 Frequencies --   1610.3998              1620.0996              1642.9411
 Red. masses --      6.8053                 6.3861                 8.1185
 Frc consts  --     10.3984                 9.8757                12.9112
 IR Inten    --     84.0790               322.4439               213.8684

                     61                     62                     63
                      A                      A                      A
 Frequencies --   1711.6699              3009.5689              3035.1497
 Red. masses --     11.8055                 1.0466                 1.0397
 Frc consts  --     20.3785                 5.5852                 5.6433
 IR Inten    --    357.0899                52.7387               101.3192

                     64                     65                     66
                      A                      A                      A
 Frequencies --   3085.8933              3090.6083              3136.9679
 Red. masses --      1.1013                 1.0934                 1.1027
 Frc consts  --      6.1790                 6.1533                 6.3932
 IR Inten    --     52.6154                11.3472                15.2742

                     67                     68                     69
                      A                      A                      A
 Frequencies --   3176.5560              3187.2120              3189.1182
 Red. masses --      1.0872                 1.0968                 1.0910
 Frc consts  --      6.4637                 6.5647                 6.5378
 IR Inten    --      4.1455                 9.3250                10.8567

                     70                     71                     72
                      A                      A                      A
 Frequencies --   3200.9378              3204.2164              3208.3255
 Red. masses --      1.0926                 1.0955                 1.0892
 Frc consts  --      6.5956                 6.6271                 6.6058
 IR Inten    --      5.0615                19.5736                 4.8421

 - Thermochemistry -
 -------------------
 Temperature   298.150 Kelvin.  Pressure   1.00000 Atm.
 Atom     1 has atomic number  6 and mass  12.00000

 Molecular mass:   201.07898 amu.
 Principal axes and moments of inertia in atomic units:
                           1         2         3
     Eigenvalues --  1611.698823903.584805416.37085
           X            0.93875  -0.34429   0.01445
           Y            0.34384   0.93312  -0.10513
           Z            0.02271   0.10366   0.99435
 This molecule is an asymmetric top.
 Rotational symmetry number  1.
 Warning -- assumption of classical behavior for rotation
           may cause significant error
 Rotational temperatures (Kelvin)      0.05374     0.02219     0.01599
 Rotational constants (GHZ):           1.11978     0.46233     0.33320
 Zero-point vibrational energy     537695.1 (Joules/Mol)
                                  128.51221 (Kcal/Mol)
 Warning -- explicit consideration of  19 degrees of freedom as
           vibrations may cause significant error
 Vibrational temperatures:     60.68    86.62   159.42   171.43   194.97
          (Kelvin)            256.68   282.67   325.36   355.82   421.43
                              468.23   540.76   576.35   588.16   646.45
                              667.99   696.41   746.78   778.16   924.41
                              972.58  1002.84  1037.90  1060.13  1129.16
                             1176.14  1193.74  1215.61  1241.14  1313.76
                             1432.36  1440.63  1467.16  1515.90  1544.47
                             1584.66  1605.04  1645.90  1651.44  1679.15
                             1697.08  1766.72  1791.09  1854.83  1887.86
                             1950.48  1975.95  2045.68  2086.78  2111.17
                             2125.59  2129.96  2139.93  2157.85  2162.01
                             2174.28  2276.33  2317.01  2330.96  2363.83
                             2462.71  4330.10  4366.90  4439.91  4446.70
                             4513.40  4570.36  4585.69  4588.43  4605.44
                             4610.15  4616.06

 Zero-point correction=                           0.204797 (Hartree/Particle)
 Thermal correction to Energy=                    0.217878
 Thermal correction to Enthalpy=                  0.218823
 Thermal correction to Gibbs Free Energy=         0.164886
 Sum of electronic and zero-point Energies=           -669.077520
 Sum of electronic and thermal Energies=              -669.064439
 Sum of electronic and thermal Enthalpies=            -669.063495
 Sum of electronic and thermal Free Energies=         -669.117431

                     E (Thermal)             CV                S
                      KCal/Mol        Cal/Mol-Kelvin    Cal/Mol-Kelvin
 Total                  136.721             49.892            113.519
 Electronic               0.000              0.000              0.000
 Translational            0.889              2.981             41.800
 Rotational               0.889              2.981             31.900
 Vibrational            134.943             43.931             39.819
 Vibration     1          0.595              1.980              5.154
 Vibration     2          0.597              1.973              4.451
 Vibration     3          0.607              1.941              3.255
 Vibration     4          0.609              1.933              3.114
 Vibration     5          0.613              1.918              2.866
 Vibration     6          0.629              1.869              2.345
 Vibration     7          0.636              1.845              2.166
 Vibration     8          0.650              1.801              1.909
 Vibration     9          0.661              1.767              1.750
 Vibration    10          0.688              1.687              1.457
 Vibration    11          0.710              1.625              1.283
 Vibration    12          0.747              1.522              1.056
 Vibration    13          0.766              1.469              0.961
 Vibration    14          0.773              1.451              0.931
 Vibration    15          0.808              1.362              0.798
 Vibration    16          0.822              1.329              0.754
 Vibration    17          0.840              1.285              0.699
 Vibration    18          0.874              1.208              0.612
 Vibration    19          0.896              1.160              0.563

 Optimization completed.
    -- Stationary point found.
 Normal termination of Gaussian 16 at Sun Feb 11 01:23:21 2024.
