 Gaussian 16, Revision A.03,
 Gaussian 16:  ES64L-G16RevA.03 25-Dec-2016

 --------------------------------------
 #P UB3LYP/6-311++G(d,p) nosym opt freq
 --------------------------------------

 -------
 Reduced
 -------
 Symbolic Z-matrix:
 Charge = -2 Multiplicity = 1

 SCF Done:  E(UB3LYP) =  -669.233406161     A.U. after   37 cycles
 SCF Done:  E(UB3LYP) =  -669.233696850     A.U. after   28 cycles
 SCF Done:  E(UB3LYP) =  -669.233714350     A.U. after   33 cycles
 SCF Done:  E(UB3LYP) =  -669.233819751     A.U. after   27 cycles
 SCF Done:  E(UB3LYP) =  -669.233827300     A.U. after   26 cycles
 SCF Done:  E(UB3LYP) =  -669.233829133     A.U. after   25 cycles
 SCF Done:  E(UB3LYP) =  -669.233829457     A.U. after   24 cycles
 Optimization completed.
    -- Stationary point found.
 Normal termination of Gaussian 16 at Mon Jan  8 02:19:21 2024.

 ----------------------------------------------------------------------
 #P Geom=AllCheck Guess=TCheck SCRF=Check GenChk UB3LYP/6-311++G(d,p) F
 req
 ----------------------------------------------------------------------

 Structure from the checkpoint file:  "274-an.chk"
 -------
 Reduced
 -------
 Charge = -2 Multiplicity = 1

                          Input orientation:
 ---------------------------------------------------------------------
 Center     Atomic      Atomic             Coordinates (Angstroms)
 Number     Number       Type             X           Y           Z
 ---------------------------------------------------------------------
      1          6           0       -1.694406    3.081134    0.285508
      2          6           0       -2.869807    2.366080    0.150309
      3          6           0       -2.821775    0.976149   -0.133630
      4          6           0       -0.420938    2.473383    0.147616
      5          6           0       -0.375899    1.057646   -0.130494
      6          6           0       -1.591535    0.353829   -0.264457
      7          6           0        0.771295    3.290107    0.311417
      8          6           0        2.012803    2.569645    0.165215
      9          6           0        2.038906    1.186129   -0.112363
     10          6           0        0.896258    0.356298   -0.270283
     11          8           0        0.692397    4.547698    0.591084
     12          8           0        0.964342   -0.903702   -0.526687
     13          7           0        3.233608    3.288054    0.384857
     14          6           0        3.400818    4.496897   -0.416174
     15          6           0        4.460704    2.527624    0.453597
     16          1           0       -1.700935    4.144474    0.504517
     17          1           0       -3.830522    2.867450    0.261128
     18          1           0       -3.743166    0.406295   -0.243562
     19          1           0       -1.512941   -0.708504   -0.477393
     20          1           0        2.989609    0.680583   -0.243310
     21          1           0        2.472637    5.066184   -0.373578
     22          1           0        3.654900    4.259003   -1.472764
     23          1           0        4.222566    5.097550   -0.004621
     24          1           0        4.365569    1.709285    1.170170
     25          1           0        5.272620    3.185243    0.780558
     26          1           0        4.771789    2.087256   -0.521031
 ---------------------------------------------------------------------

 SCF Done:  E(UB3LYP) =  -669.233829457     A.U. after    2 cycles

 Alpha  occ. eigenvalues --  -18.77928 -18.77620 -14.07746  -9.96520  -9.94745
 Alpha  occ. eigenvalues --   -9.93749  -9.93600  -9.93116  -9.92887  -9.92746
 Alpha  occ. eigenvalues --   -9.91916  -9.91810  -9.90469  -9.90280  -9.88391
 Alpha  occ. eigenvalues --   -0.70441  -0.68964  -0.67825  -0.59542  -0.52981
 Alpha  occ. eigenvalues --   -0.49330  -0.47819  -0.47681  -0.42129  -0.38952
 Alpha  occ. eigenvalues --   -0.35508  -0.33402  -0.29706  -0.25812  -0.25474
 Alpha  occ. eigenvalues --   -0.22592  -0.22077  -0.20775  -0.19638  -0.17234
 Alpha  occ. eigenvalues --   -0.16749  -0.16378  -0.15428  -0.14096  -0.13519
 Alpha  occ. eigenvalues --   -0.13043  -0.11677  -0.11294  -0.09063  -0.08585
 Alpha  occ. eigenvalues --   -0.07594  -0.06996  -0.01756   0.00236   0.01548
 Alpha  occ. eigenvalues --    0.04155   0.04816   0.04962   0.13441
 Alpha virt. eigenvalues --    0.15267   0.16139   0.17766   0.17907   0.18660
 Alpha virt. eigenvalues --    0.20377   0.21133   0.21407   0.21646   0.22244
 Alpha virt. eigenvalues --    0.23674   0.24024   0.24309   0.25238   0.25653

  Beta  occ. eigenvalues --  -18.77928 -18.77620 -14.07746  -9.96520  -9.94745
  Beta  occ. eigenvalues --   -9.93749  -9.93600  -9.93116  -9.92887  -9.92746
  Beta  occ. eigenvalues --   -9.91916  -9.91810  -9.90469  -9.90280  -9.88391
  Beta  occ. eigenvalues --   -0.70441  -0.68964  -0.67825  -0.59542  -0.52981
  Beta  occ. eigenvalues --   -0.49330  -0.47819  -0.47681  -0.42129  -0.38952
  Beta  occ. eigenvalues --   -0.35508  -0.33402  -0.29706  -0.25812  -0.25474
  Beta  occ. eigenvalues --   -0.22592  -0.22077  -0.20775  -0.19638  -0.17234
  Beta  occ. eigenvalues --   -0.16749  -0.16378  -0.15428  -0.14096  -0.13519
  Beta  occ. eigenvalues --   -0.13043  -0.11677  -0.11294  -0.09063  -0.08585
  Beta  occ. eigenvalues --   -0.07594  -0.06996  -0.01756   0.00236   0.01548
  Beta  occ. eigenvalues --    0.04155   0.04816   0.04962   0.13441
  Beta virt. eigenvalues --    0.15267   0.16139   0.17766   0.17907   0.18660
  Beta virt. eigenvalues --    0.20377   0.21133   0.21407   0.21646   0.22244
  Beta virt. eigenvalues --    0.23674   0.24024   0.24309   0.25238   0.25653

 Mulliken charges and spin densities:
               1          2
     1  C   -0.000391   0.000000
     2  C   -0.447545  -0.000000
     3  C   -0.303774  -0.000000
     4  C   -0.035948  -0.000000
     5  C    0.851410   0.000000
     6  C    0.057609   0.000000
     7  C   -1.776914  -0.000000
     8  C   -0.629951   0.000000
     9  C    1.545865   0.000000
    10  C   -0.424620   0.000000
    11  O   -0.511049   0.000000
    12  O   -0.526058   0.000000
    13  N   -0.027312  -0.000000
    14  C    0.190913   0.000000
    15  C    0.398185  -0.000000
    16  H    0.128308   0.000000
    17  H    0.070706  -0.000000
    18  H    0.075569   0.000000
    19  H    0.117530  -0.000000
    20  H    0.153188  -0.000000
    21  H    0.285434   0.000000
    22  H   -0.141842   0.000000
    23  H   -0.220987  -0.000000
    24  H    0.072111   0.000000
    25  H   -0.778104  -0.000000
    26  H   -0.122332   0.000000
 Sum of Mulliken charges =  -2.00000  -0.00000

 Dipole moment (field-independent basis, Debye):
    X=            -11.6389    Y=            -20.3593    Z=             -0.4330  Tot=             23.4553
 Quadrupole moment (field-independent basis, Debye-Ang):
   XX=           -180.9153   YY=           -201.1666   ZZ=           -111.2011
   XY=            -40.7914   XZ=             -1.2880   YZ=            -11.4959

  Exact polarizability:1564.959 292.737 671.530 173.931  11.585 412.132
 Approx polarizability:3827.5661127.404 979.034 242.729 119.629 391.807

                      1                      2                      3
                      A                      A                      A
 Frequencies --     58.4483                86.9642               137.4052
 Red. masses --      4.5768                 3.0431                 4.3275
 Frc consts  --      0.0092                 0.0136                 0.0481
 IR Inten    --      3.6796                 2.5971                 0.9970

                      4                      5                      6
                      A                      A                      A
 Frequencies --    160.4458               196.4080               205.5556
 Red. masses --      4.8908                 3.6341                 3.8619
 Frc consts  --      0.0742                 0.0826                 0.0961
 IR Inten    --      3.9169                 8.2809                 4.4823

                      7                      8                      9
                      A                      A                      A
 Frequencies --    258.5623               279.4498               302.6988
 Red. masses --      1.3089                 3.5300                 1.6096
 Frc consts  --      0.0516                 0.1624                 0.0869
 IR Inten    --     11.0967                 1.2869                22.0368

                     10                     11                     12
                      A                      A                      A
 Frequencies --    314.8910               342.7230               368.9914
 Red. masses --      2.9326                 2.5481                 9.4183
 Frc consts  --      0.1713                 0.1763                 0.7555
 IR Inten    --     20.5705                70.1252                 3.6530

                     13                     14                     15
                      A                      A                      A
 Frequencies --    388.4692               411.0381               441.9035
 Red. masses --      3.5971                 5.0422                 3.5397
 Frc consts  --      0.3198                 0.5019                 0.4073
 IR Inten    --     10.4921                30.8880                 4.4844

                     16                     17                     18
                      A                      A                      A
 Frequencies --    460.0095               474.6343               528.4546
 Red. masses --      5.8410                 4.7594                 4.3889
 Frc consts  --      0.7282                 0.6317                 0.7221
 IR Inten    --    618.6943                60.7473                43.5114

                     19                     20                     21
                      A                      A                      A
 Frequencies --    543.8295               630.6657               641.5591
 Red. masses --      4.1932                 5.1007                 2.9045
 Frc consts  --      0.7307                 1.1953                 0.7044
 IR Inten    --     31.8147                15.9941                15.9744

                     22                     23                     24
                      A                      A                      A
 Frequencies --    682.5735               698.5710               722.8209
 Red. masses --      5.2818                 2.0517                 5.7540
 Frc consts  --      1.4499                 0.5899                 1.7713
 IR Inten    --      7.7928                22.3375                18.3786

                     25                     26                     27
                      A                      A                      A
 Frequencies --    743.9697               764.9546               808.7816
 Red. masses --      2.2257                 2.2093                 1.8343
 Frc consts  --      0.7258                 0.7617                 0.7070
 IR Inten    --     32.3756                 9.4013                29.9153

                     28                     29                     30
                      A                      A                      A
 Frequencies --    832.8550               841.0210               869.6947
 Red. masses --      2.5493                 4.0809                 5.5025
 Frc consts  --      1.0418                 1.7007                 2.4521
 IR Inten    --     27.5724                10.2920                32.0622

                     31                     32                     33
                      A                      A                      A
 Frequencies --    948.3838               953.0821               990.1225
 Red. masses --      1.2362                 1.3466                 3.4534
 Frc consts  --      0.6551                 0.7207                 1.9947
 IR Inten    --      0.7134                 3.4444                 8.8184

                     34                     35                     36
                      A                      A                      A
 Frequencies --   1015.2412              1063.8001              1087.8706
 Red. masses --      2.1006                 1.5056                 2.4176
 Frc consts  --      1.2756                 1.0039                 1.6858
 IR Inten    --    515.4633               306.6668                27.6715

                     37                     38                     39
                      A                      A                      A
 Frequencies --   1106.0516              1116.4624              1129.5888
 Red. masses --      1.4495                 1.7708                 1.7012
 Frc consts  --      1.0448                 1.3005                 1.2789
 IR Inten    --     42.5973               532.5925                52.5944

                     40                     41                     42
                      A                      A                      A
 Frequencies --   1151.6733              1163.7665              1211.1819
 Red. masses --      1.7123                 1.5100                 2.5455
 Frc consts  --      1.3381                 1.2049                 2.2001
 IR Inten    --     70.0482               169.9723               648.9257

                     43                     44                     45
                      A                      A                      A
 Frequencies --   1218.1740              1228.0697              1288.4787
 Red. masses --      2.7632                 2.1934                 1.9645
 Frc consts  --      2.4160                 1.9490                 1.9216
 IR Inten    --     29.2959               132.9183                15.8575

                     46                     47                     48
                      A                      A                      A
 Frequencies --   1312.2746              1328.1080              1380.2805
 Red. masses --      2.8945                 6.9387                 2.9790
 Frc consts  --      2.9368                 7.2110                 3.3439
 IR Inten    --     66.1549              1032.1651               567.5519

                     49                     50                     51
                      A                      A                      A
 Frequencies --   1394.4705              1405.6621              1424.3583
 Red. masses --      2.5046                 4.5279                 1.5524
 Frc consts  --      2.8695                 5.2711                 1.8557
 IR Inten    --    106.5421              1486.4192               828.7461

                     52                     53                     54
                      A                      A                      A
 Frequencies --   1445.5883              1454.5036              1469.9897
 Red. masses --      1.6389                 2.2428                 1.0666
 Frc consts  --      2.0179                 2.7956                 1.3580
 IR Inten    --    314.8987                21.3677               138.5481

                     55                     56                     57
                      A                      A                      A
 Frequencies --   1477.3496              1487.7998              1501.5726
 Red. masses --      1.1652                 2.4638                 1.1415
 Frc consts  --      1.4984                 3.2133                 1.5165
 IR Inten    --    166.8055               759.4552                74.2853

                     58                     59                     60
                      A                      A                      A
 Frequencies --   1511.4669              1517.0179              1570.6597
 Red. masses --      1.1036                 3.7926                 5.7465
 Frc consts  --      1.4854                 5.1424                 8.3525
 IR Inten    --     50.2725               175.5627              1975.0676

                     61                     62                     63
                      A                      A                      A
 Frequencies --   1585.3589              2808.0415              2830.0353
 Red. masses --      5.5566                 1.0660                 1.0636
 Frc consts  --      8.2284                 4.9524                 5.0190
 IR Inten    --    540.7511               182.8484               222.7455

                     64                     65                     66
                      A                      A                      A
 Frequencies --   2987.8103              3020.2267              3083.8232
 Red. masses --      1.0724                 1.0657                 1.0981
 Frc consts  --      5.6403                 5.7273                 6.1528
 IR Inten    --    180.9205               470.0106                46.7475

                     67                     68                     69
                      A                      A                      A
 Frequencies --   3086.3491              3101.6932              3110.8937
 Red. masses --      1.0824                 1.0959                 1.0905
 Frc consts  --      6.0750                 6.2119                 6.2181
 IR Inten    --     37.5939                74.2455               291.9392

                     70                     71                     72
                      A                      A                      A
 Frequencies --   3151.5009              3157.3442              3158.4164
 Red. masses --      1.0905                 1.0859                 1.0906
 Frc consts  --      6.3815                 6.3783                 6.4101
 IR Inten    --     85.0245               109.9071               116.7550

 - Thermochemistry -
 -------------------
 Temperature   298.150 Kelvin.  Pressure   1.00000 Atm.
 Atom     1 has atomic number  6 and mass  12.00000

 Molecular mass:   201.07898 amu.
 Principal axes and moments of inertia in atomic units:
                           1         2         3
     Eigenvalues --  1654.765043869.273695403.29766
           X            0.93258  -0.36069   0.01378
           Y            0.35881   0.92220  -0.14424
           Z            0.03932   0.13946   0.98945
 This molecule is an asymmetric top.
 Rotational symmetry number  1.
 Warning -- assumption of classical behavior for rotation
           may cause significant error
 Rotational temperatures (Kelvin)      0.05234     0.02239     0.01603
 Rotational constants (GHZ):           1.09063     0.46643     0.33401
 Zero-point vibrational energy     524161.1 (Joules/Mol)
                                  125.27751 (Kcal/Mol)
 Warning -- explicit consideration of  19 degrees of freedom as
           vibrations may cause significant error
 Vibrational temperatures:     84.09   125.12   197.70   230.85   282.59
          (Kelvin)            295.75   372.01   402.07   435.52   453.06
                              493.10   530.90   558.92   591.39   635.80
                              661.85   682.89   760.33   782.45   907.39
                              923.06   982.07  1005.09  1039.98  1070.41
                             1100.60  1163.66  1198.29  1210.04  1251.30
                             1364.51  1371.27  1424.57  1460.71  1530.57
                             1565.20  1591.36  1606.34  1625.23  1657.00
                             1674.40  1742.62  1752.68  1766.92  1853.83
                             1888.07  1910.85  1985.92  2006.33  2022.43
                             2049.33  2079.88  2092.71  2114.99  2125.58
                             2140.61  2160.43  2174.66  2182.65  2259.83
                             2280.98  4040.15  4071.79  4298.79  4345.43
                             4436.93  4440.57  4462.64  4475.88  4534.31
                             4542.71  4544.26

 Zero-point correction=                           0.199642 (Hartree/Particle)
 Thermal correction to Energy=                    0.212261
 Thermal correction to Enthalpy=                  0.213205
 Thermal correction to Gibbs Free Energy=         0.161263
 Sum of electronic and zero-point Energies=           -669.034187
 Sum of electronic and thermal Energies=              -669.021569
 Sum of electronic and thermal Enthalpies=            -669.020625
 Sum of electronic and thermal Free Energies=         -669.072567

                     E (Thermal)             CV                S
                      KCal/Mol        Cal/Mol-Kelvin    Cal/Mol-Kelvin
 Total                  133.196             50.467            109.322
 Electronic               0.000              0.000              0.000
 Translational            0.889              2.981             41.800
 Rotational               0.889              2.981             31.915
 Vibrational            131.418             44.505             35.607
 Vibration     1          0.596              1.974              4.509
 Vibration     2          0.601              1.958              3.727
 Vibration     3          0.614              1.916              2.840
 Vibration     4          0.622              1.891              2.545
 Vibration     5          0.636              1.845              2.166
 Vibration     6          0.640              1.832              2.083
 Vibration     7          0.667              1.748              1.671
 Vibration     8          0.680              1.712              1.537
 Vibration     9          0.694              1.669              1.402
 Vibration    10          0.702              1.645              1.337
 Vibration    11          0.722              1.590              1.199
 Vibration    12          0.741              1.536              1.084
 Vibration    13          0.757              1.495              1.006
 Vibration    14          0.775              1.446              0.923
 Vibration    15          0.802              1.379              0.821
 Vibration    16          0.818              1.339              0.766
 Vibration    17          0.831              1.306              0.725
 Vibration    18          0.883              1.187              0.591
 Vibration    19          0.899              1.153              0.557

                           ! Non-Optimized Parameters !
 Normal termination of Gaussian 16 at Mon Jan  8 03:01:32 2024.
