 Q-Chem 5.4, Q-Chem, Inc., Pleasanton, CA (2021)
 Q-Chem 5.4.0 for Intel X86 EM64T Linux

User input:
--------------------------------------------------------------
$molecule
-2 1
C                 -1.6944060000      3.0811340000      0.2855080000
C                 -2.8698070000      2.3660800000      0.1503090000
C                 -2.8217750000      0.9761490000     -0.1336300000
C                 -0.4209380000      2.4733830000      0.1476160000
C                 -0.3758990000      1.0576460000     -0.1304940000
C                 -1.5915350000      0.3538290000     -0.2644570000
C                  0.7712950000      3.2901070000      0.3114170000
C                  2.0128030000      2.5696450000      0.1652150000
C                  2.0389060000      1.1861290000     -0.1123630000
C                  0.8962580000      0.3562980000     -0.2702830000
O                  0.6923970000      4.5476980000      0.5910840000
O                  0.9643420000     -0.9037020000     -0.5266870000
N                  3.2336080000      3.2880540000      0.3848570000
C                  3.4008180000      4.4968970000     -0.4161740000
C                  4.4607040000      2.5276240000      0.4535970000
H                 -1.7009350000      4.1444740000      0.5045170000
H                 -3.8305220000      2.8674500000      0.2611280000
H                 -3.7431660000      0.4062950000     -0.2435620000
H                 -1.5129410000     -0.7085040000     -0.4773930000
H                  2.9896090000      0.6805830000     -0.2433100000
H                  2.4726370000      5.0661840000     -0.3735780000
H                  3.6549000000      4.2590030000     -1.4727640000
H                  4.2225660000      5.0975500000     -0.0046210000
H                  4.3655690000      1.7092850000      1.1701700000
H                  5.2726200000      3.1852430000      0.7805580000
H                  4.7717890000      2.0872560000     -0.5210310000
$end

$rem
BASIS  =  6-311++G(d,p)
GUI  =  2
JOB_TYPE  =  SP
METHOD  =  B3LYP
SCF_CONVERGENCE  = 8
SOLVENT_METHOD = sm12
$end

$smx
solvent dimethylformamide
charges CM5
$end

--------------------------------------------------------------

             Standard Nuclear Orientation (Angstroms)
    I     Atom           X                Y                Z
 ----------------------------------------------------------------
    1      C      -1.6944060000     3.0811340000     0.2855080000
    2      C      -2.8698070000     2.3660800000     0.1503090000
    3      C      -2.8217750000     0.9761490000    -0.1336300000
    4      C      -0.4209380000     2.4733830000     0.1476160000
    5      C      -0.3758990000     1.0576460000    -0.1304940000
    6      C      -1.5915350000     0.3538290000    -0.2644570000
    7      C       0.7712950000     3.2901070000     0.3114170000
    8      C       2.0128030000     2.5696450000     0.1652150000
    9      C       2.0389060000     1.1861290000    -0.1123630000
   10      C       0.8962580000     0.3562980000    -0.2702830000
   11      O       0.6923970000     4.5476980000     0.5910840000
   12      O       0.9643420000    -0.9037020000    -0.5266870000
   13      N       3.2336080000     3.2880540000     0.3848570000
   14      C       3.4008180000     4.4968970000    -0.4161740000
   15      C       4.4607040000     2.5276240000     0.4535970000
   16      H      -1.7009350000     4.1444740000     0.5045170000
   17      H      -3.8305220000     2.8674500000     0.2611280000
   18      H      -3.7431660000     0.4062950000    -0.2435620000
   19      H      -1.5129410000    -0.7085040000    -0.4773930000
   20      H       2.9896090000     0.6805830000    -0.2433100000
   21      H       2.4726370000     5.0661840000    -0.3735780000
   22      H       3.6549000000     4.2590030000    -1.4727640000
   23      H       4.2225660000     5.0975500000    -0.0046210000
   24      H       4.3655690000     1.7092850000     1.1701700000
   25      H       5.2726200000     3.1852430000     0.7805580000
   26      H       4.7717890000     2.0872560000    -0.5210310000
 ----------------------------------------------------------------

   18    -669.2216893625      5.14e-09  Convergence criterion met
 Total energy in the final basis set =     -669.5183653575

                    Orbital Energies (a.u.)
 --------------------------------------------------------------

 Alpha MOs
 -- Occupied --
-19.0267 -19.0239 -14.3193 -10.1999 -10.1891 -10.1871 -10.1829 -10.1799
-10.1764 -10.1743 -10.1715 -10.1693 -10.1549 -10.1535 -10.1385  -0.9496
 -0.9414  -0.9227  -0.8453  -0.7798  -0.7439  -0.7267  -0.7146  -0.6695
 -0.6356  -0.6061  -0.5800  -0.5478  -0.5028  -0.5010  -0.4721  -0.4601
 -0.4514  -0.4437  -0.4245  -0.4139  -0.4037  -0.3955  -0.3867  -0.3847
 -0.3719  -0.3659  -0.3615  -0.3409  -0.3354  -0.3277  -0.3210  -0.2655
 -0.2496  -0.2359  -0.2080  -0.2012  -0.2000  -0.1198

          Ground-State Mulliken Net Atomic Charges

     Atom                 Charge (a.u.)
  ----------------------------------------
      1 C                    -0.212010
      2 C                     1.708794
      3 C                     1.458899
      4 C                    -1.279495
      5 C                    -1.653706
      6 C                    -0.103212
      7 C                    -2.242544
      8 C                    -0.748504
      9 C                     0.128751
     10 C                    -1.652067
     11 O                    -0.332337
     12 O                    -0.369494
     13 N                     0.238078
     14 C                     0.080780
     15 C                     0.690466
     16 H                     0.104913
     17 H                     0.412517
     18 H                     0.411674
     19 H                     0.094191
     20 H                    -0.018653
     21 H                     0.068154
     22 H                     0.095981
     23 H                     0.325726
     24 H                     0.195974
     25 H                     0.479165
     26 H                     0.117961
  ----------------------------------------
  Sum of atomic charges =    -2.000000

                    Cartesian Multipole Moments
 -----------------------------------------------------------------
    Charge (ESU x 10^10)
                -9.6064
    Dipole Moment (Debye)
         X      -4.1746      Y     -17.3169      Z      -0.2487
       Tot      17.8147
    Quadrupole Moments (Debye-Ang)
        XX    -122.7992     XY      -7.3784     YY    -183.7286
        XZ       0.8937     YZ     -11.3332     ZZ    -106.7457

 Total job time:  686.81s(wall), 4620.24s(cpu)
        *  Thank you very much for using Q-Chem.  Have a nice day.  *
