 Q-Chem 5.4, Q-Chem, Inc., Pleasanton, CA (2021)
 Q-Chem 5.4.0 for Intel X86 EM64T Linux

User input:
--------------------------------------------------------------
$molecule
-1 2
C                 -2.9083910000      0.4142110000      0.5256970000
C                 -1.9368300000     -0.4094610000     -0.3408670000
C                 -2.2803150000     -0.3324690000     -1.8406350000
C                 -0.4661280000     -0.1424700000     -0.0349560000
C                  0.2241770000      1.0284800000     -0.2211720000
Br                -0.6207300000      2.6259590000     -0.9494650000
C                  1.6323760000      1.2403430000      0.0858080000
O                  2.2197900000      2.3313860000     -0.1022690000
C                  2.3392700000      0.0812000000      0.6389470000
C                  1.6573080000     -1.0890180000      0.8264770000
Br                 2.5818410000     -2.6304300000      1.5571990000
C                  0.2559560000     -1.3053300000      0.5230560000
O                 -0.3167170000     -2.4036390000      0.7174190000
C                  3.7957950000      0.2646600000      0.9681830000
H                 -2.8678820000      1.4806850000      0.2988740000
H                 -2.6796700000      0.2826990000      1.5872110000
H                 -3.9357860000      0.0687080000      0.3593600000
H                 -2.0700470000     -1.4522490000     -0.0471390000
H                 -2.1941140000      0.6805280000     -2.2367780000
H                 -1.6168390000     -0.9819640000     -2.4189110000
H                 -3.3091650000     -0.6757950000     -2.0024640000
H                  4.4196190000     -0.4357900000      0.4035130000
H                  4.0886980000      1.2854000000      0.7255720000
H                  3.9877860000      0.0743550000      2.0290970000
$end
$rem
MAX_SCF_CYCLES=200
BASIS  =  6-311++G(d,p)
GUI  =  2
JOB_TYPE  =  SP
METHOD  =  B3LYP
SOLVENT_METHOD = PCM
$end
$pcm
theory = CPCM
$end
$solvent
dielectric 37.219
opticaldielectric 1.43
$end

--------------------------------------------------------------

             Standard Nuclear Orientation (Angstroms)
    I     Atom           X                Y                Z
 ----------------------------------------------------------------
    1      C      -2.9083910000     0.4142110000     0.5256970000
    2      C      -1.9368300000    -0.4094610000    -0.3408670000
    3      C      -2.2803150000    -0.3324690000    -1.8406350000
    4      C      -0.4661280000    -0.1424700000    -0.0349560000
    5      C       0.2241770000     1.0284800000    -0.2211720000
    6      Br     -0.6207300000     2.6259590000    -0.9494650000
    7      C       1.6323760000     1.2403430000     0.0858080000
    8      O       2.2197900000     2.3313860000    -0.1022690000
    9      C       2.3392700000     0.0812000000     0.6389470000
   10      C       1.6573080000    -1.0890180000     0.8264770000
   11      Br      2.5818410000    -2.6304300000     1.5571990000
   12      C       0.2559560000    -1.3053300000     0.5230560000
   13      O      -0.3167170000    -2.4036390000     0.7174190000
   14      C       3.7957950000     0.2646600000     0.9681830000
   15      H      -2.8678820000     1.4806850000     0.2988740000
   16      H      -2.6796700000     0.2826990000     1.5872110000
   17      H      -3.9357860000     0.0687080000     0.3593600000
   18      H      -2.0700470000    -1.4522490000    -0.0471390000
   19      H      -2.1941140000     0.6805280000    -2.2367780000
   20      H      -1.6168390000    -0.9819640000    -2.4189110000
   21      H      -3.3091650000    -0.6757950000    -2.0024640000
   22      H       4.4196190000    -0.4357900000     0.4035130000
   23      H       4.0886980000     1.2854000000     0.7255720000
   24      H       3.9877860000     0.0743550000     2.0290970000
 ----------------------------------------------------------------

    8   -5686.1078358293      8.48e-06  Convergence criterion met
 Total energy in the final basis set =    -5686.1078358293

                    Orbital Energies (a.u.)
 --------------------------------------------------------------

 Alpha MOs
 -- Occupied --
********-482.8214 -62.4770 -62.4743 -56.2973 -56.2946 -56.2938 -56.2935
-56.2911 -56.2907 -19.0889 -19.0886 -10.2398 -10.2388 -10.2218 -10.2191
-10.1902 -10.1898 -10.1715 -10.1594 -10.1506 -10.1505  -8.6856  -8.6829
 -6.5164  -6.5138  -6.5048  -6.5037  -6.5020  -6.5010  -2.6275  -2.6249
 -2.6243  -2.6234  -2.6216  -2.6208  -2.6142  -2.6142  -2.6115  -2.6114
 -1.0191  -1.0165  -0.8570  -0.8260  -0.7844  -0.7715  -0.7439  -0.6860
 -0.6781  -0.6737  -0.6027  -0.5663  -0.5474  -0.5083  -0.4641  -0.4417
 -0.4396  -0.4340  -0.4257  -0.4130  -0.4013  -0.3974  -0.3926  -0.3890
 -0.3859  -0.3801  -0.3619  -0.3452  -0.3398  -0.3232  -0.3185  -0.3141
 -0.2867  -0.2796  -0.2735  -0.2590  -0.2474  -0.2417  -0.1705

 Beta MOs
 -- Occupied --
********-482.8214 -62.4770 -62.4743 -56.2973 -56.2946 -56.2938 -56.2935
-56.2910 -56.2907 -19.0825 -19.0821 -10.2382 -10.2372 -10.2208 -10.2182
-10.1889 -10.1886 -10.1715 -10.1595 -10.1505 -10.1505  -8.6855  -8.6829
 -6.5165  -6.5139  -6.5047  -6.5037  -6.5020  -6.5010  -2.6276  -2.6249
 -2.6242  -2.6235  -2.6216  -2.6209  -2.6142  -2.6141  -2.6114  -2.6114
 -1.0080  -1.0050  -0.8521  -0.8246  -0.7833  -0.7698  -0.7413  -0.6838
 -0.6779  -0.6654  -0.6005  -0.5618  -0.5449  -0.5060  -0.4608  -0.4376
 -0.4318  -0.4304  -0.4215  -0.4089  -0.3989  -0.3960  -0.3877  -0.3842
 -0.3769  -0.3644  -0.3603  -0.3439  -0.3384  -0.3226  -0.3125  -0.3034
 -0.2863  -0.2791  -0.2532  -0.2524  -0.2420  -0.2358

          Ground-State Mulliken Net Atomic Charges

     Atom                 Charge (a.u.)    Spin (a.u.)
  --------------------------------------------------------
      1 C                    -0.716409       0.002100
      2 C                     0.294147      -0.000833
      3 C                    -0.717624       0.002147
      4 C                     1.092081       0.123685
      5 C                     0.283423       0.059450
      6 Br                   -0.130203       0.004173
      7 C                    -1.386010       0.096432
      8 O                    -0.399534       0.241180
      9 C                     0.819569       0.102530
     10 C                     0.151398       0.029468
     11 Br                   -0.235906       0.003409
     12 C                    -1.023570       0.092940
     13 O                    -0.386435       0.239252
     14 C                    -0.307187       0.000137
     15 H                     0.147612      -0.000506
     16 H                     0.154771       0.000258
     17 H                     0.156364       0.000484
     18 H                     0.212441      -0.003156
     19 H                     0.147592      -0.000519
     20 H                     0.154763       0.000250
     21 H                     0.156226       0.000506
     22 H                     0.174020       0.004437
     23 H                     0.184728      -0.002221
     24 H                     0.173742       0.004397
  --------------------------------------------------------
  Sum of atomic charges =    -1.000000

                    Cartesian Multipole Moments
 -----------------------------------------------------------------
    Charge (ESU x 10^10)
                -4.8032
    Dipole Moment (Debye)
         X      -4.5420      Y      -0.0841      Z      -1.3871
       Tot       4.7499
    Quadrupole Moments (Debye-Ang)
        XX    -121.6299     XY      -8.0922     YY    -150.2497
        XZ      -0.0250     YZ       9.7000     ZZ    -115.7812

 Total job time:  47.09s(wall), 297.98s(cpu)
        *  Thank you very much for using Q-Chem.  Have a nice day.  *
