 Q-Chem 5.4, Q-Chem, Inc., Pleasanton, CA (2021)
 Q-Chem 5.4.0 for Intel X86 EM64T Linux

User input:
--------------------------------------------------------------
$molecule
-1 2
C                  0.0947190000     -0.6311830000      2.1770150000
C                 -0.4043370000     -1.1279270000      0.9079570000
C                 -0.2272290000     -0.4390520000     -0.2551190000
C                  0.4550690000      0.8416690000     -0.3264760000
C                  0.9393480000      1.3671320000      0.9472030000
C                  0.7869120000      0.6326630000      2.1109320000
O                 -0.0653170000     -1.2632360000      3.2601070000
O                  0.6334980000      1.4162770000     -1.4364310000
H                 -0.9226470000     -2.0829020000      0.9252280000
H                 -0.5883560000     -0.8292780000     -1.2026470000
C                  1.6746260000      2.6671690000      1.0779230000
C                  1.1781420000      3.9860350000      0.4081000000
C                 -0.3255380000      3.9709530000      0.0801550000
C                  1.4605210000      5.1421130000      1.3905380000
C                  2.0029360000      4.2078370000     -0.8802410000
O                  2.6658550000      2.7277730000      1.7931670000
H                 -0.5570520000      3.2308590000     -0.6842270000
H                 -0.6254980000      4.9573860000     -0.2930050000
H                 -0.9227240000      3.7564340000      0.9719550000
H                  0.8833510000      5.0270880000      2.3138180000
H                  1.1752540000      6.0935720000      0.9285660000
H                  2.5165140000      5.1803710000      1.6594940000
H                  1.8284420000      3.3938190000     -1.5846700000
H                  3.0702470000      4.2593450000     -0.6448340000
H                  1.7088190000      5.1559810000     -1.3466280000
H                  1.1900650000      1.0177200000      3.0414590000
$end

$rem
BASIS  =  6-311++G(d,p)
GUI  =  2
JOB_TYPE  =  SP
METHOD  =  B3LYP
SCF_CONVERGENCE  = 8
SOLVENT_METHOD = sm12
$end

$smx
solvent dimethylformamide
charges CM5
$end

--------------------------------------------------------------

             Standard Nuclear Orientation (Angstroms)
    I     Atom           X                Y                Z
 ----------------------------------------------------------------
    1      C       0.0947190000    -0.6311830000     2.1770150000
    2      C      -0.4043370000    -1.1279270000     0.9079570000
    3      C      -0.2272290000    -0.4390520000    -0.2551190000
    4      C       0.4550690000     0.8416690000    -0.3264760000
    5      C       0.9393480000     1.3671320000     0.9472030000
    6      C       0.7869120000     0.6326630000     2.1109320000
    7      O      -0.0653170000    -1.2632360000     3.2601070000
    8      O       0.6334980000     1.4162770000    -1.4364310000
    9      H      -0.9226470000    -2.0829020000     0.9252280000
   10      H      -0.5883560000    -0.8292780000    -1.2026470000
   11      C       1.6746260000     2.6671690000     1.0779230000
   12      C       1.1781420000     3.9860350000     0.4081000000
   13      C      -0.3255380000     3.9709530000     0.0801550000
   14      C       1.4605210000     5.1421130000     1.3905380000
   15      C       2.0029360000     4.2078370000    -0.8802410000
   16      O       2.6658550000     2.7277730000     1.7931670000
   17      H      -0.5570520000     3.2308590000    -0.6842270000
   18      H      -0.6254980000     4.9573860000    -0.2930050000
   19      H      -0.9227240000     3.7564340000     0.9719550000
   20      H       0.8833510000     5.0270880000     2.3138180000
   21      H       1.1752540000     6.0935720000     0.9285660000
   22      H       2.5165140000     5.1803710000     1.6594940000
   23      H       1.8284420000     3.3938190000    -1.5846700000
   24      H       3.0702470000     4.2593450000    -0.6448340000
   25      H       1.7088190000     5.1559810000    -1.3466280000
   26      H       1.1900650000     1.0177200000     3.0414590000
 ----------------------------------------------------------------

   18    -652.3050704065      4.19e-09  Convergence criterion met
 Total energy in the final basis set =     -652.3839408411

                    Orbital Energies (a.u.)
 --------------------------------------------------------------

 Alpha MOs
 -- Occupied --
-19.1140 -19.0839 -19.0834 -10.2630 -10.2340 -10.2263 -10.1949 -10.1830
-10.1783 -10.1777 -10.1766 -10.1622 -10.1610 -10.1609  -1.0469  -1.0077
 -1.0024  -0.8349  -0.8198  -0.7651  -0.6984  -0.6905  -0.6881  -0.6445
 -0.5976  -0.5865  -0.5114  -0.4909  -0.4796  -0.4725  -0.4556  -0.4466
 -0.4378  -0.4287  -0.4227  -0.4105  -0.4036  -0.3923  -0.3855  -0.3793
 -0.3737  -0.3726  -0.3669  -0.3642  -0.3350  -0.3301  -0.2890  -0.2744
 -0.2580  -0.2469  -0.2396  -0.1733

 Beta MOs
 -- Occupied --
-19.1137 -19.0772 -19.0753 -10.2630 -10.2331 -10.2255 -10.1949 -10.1820
-10.1770 -10.1762 -10.1756 -10.1622 -10.1610 -10.1609  -1.0463  -0.9961
 -0.9883  -0.8290  -0.8192  -0.7624  -0.6925  -0.6901  -0.6843  -0.6415
 -0.5946  -0.5839  -0.5093  -0.4891  -0.4768  -0.4701  -0.4542  -0.4459
 -0.4360  -0.4281  -0.4147  -0.4034  -0.3963  -0.3869  -0.3818  -0.3730
 -0.3704  -0.3683  -0.3659  -0.3474  -0.3346  -0.3292  -0.2675  -0.2577
 -0.2505  -0.2402  -0.2339

          Ground-State Mulliken Net Atomic Charges

     Atom                 Charge (a.u.)    Spin (a.u.)
  --------------------------------------------------------
      1 C                    -1.125729       0.076687
      2 C                     0.288009       0.079122
      3 C                    -0.064588       0.042705
      4 C                    -1.088737       0.074717
      5 C                     1.071443       0.052520
      6 C                    -0.590404       0.136078
      7 O                    -0.385408       0.289293
      8 O                    -0.283770       0.244230
      9 H                     0.249218      -0.004626
     10 H                     0.258165      -0.007461
     11 C                    -0.985628       0.011184
     12 C                     1.137227       0.000733
     13 C                    -0.533213       0.001346
     14 C                     0.012669      -0.000663
     15 C                    -0.363461       0.009607
     16 O                    -0.185261       0.009136
     17 H                     0.031596      -0.000308
     18 H                     0.257191      -0.000124
     19 H                     0.085139      -0.000492
     20 H                     0.138335      -0.000153
     21 H                     0.244808       0.000412
     22 H                     0.194777      -0.000079
     23 H                     0.083482      -0.002822
     24 H                     0.154764       0.000310
     25 H                     0.259381       0.000412
     26 H                     0.139995      -0.011764
  --------------------------------------------------------
  Sum of atomic charges =    -1.000000

                    Cartesian Multipole Moments
 -----------------------------------------------------------------
    Charge (ESU x 10^10)
                -4.8032
    Dipole Moment (Debye)
         X      -4.3236      Y      -2.4160      Z      -6.5502
       Tot       8.2119
    Quadrupole Moments (Debye-Ang)
        XX    -100.3443     XY     -10.4536     YY    -103.1233
        XZ      -4.4712     YZ       8.5561     ZZ    -122.3783

 Total job time:  551.71s(wall), 4304.53s(cpu)
        *  Thank you very much for using Q-Chem.  Have a nice day.  *
