 Gaussian 16, Revision A.03,
 Gaussian 16:  ES64L-G16RevA.03 25-Dec-2016

 --------------------------------------
 #P UB3LYP/6-311++G(d,p) nosym opt freq
 --------------------------------------

 -------
 Reduced
 -------
 Symbolic Z-matrix:
 Charge = -2 Multiplicity = 1

 SCF Done:  E(UB3LYP) =  -950.033983741     A.U. after   58 cycles
 SCF Done:  E(UB3LYP) =  -950.085772168     A.U. after   35 cycles
 SCF Done:  E(UB3LYP) =  -950.116681369     A.U. after   31 cycles
 SCF Done:  E(UB3LYP) =  -950.147621032     A.U. after   29 cycles
 SCF Done:  E(UB3LYP) =  -950.172867689     A.U. after   22 cycles
 SCF Done:  E(UB3LYP) =  -950.177500606     A.U. after   19 cycles
 SCF Done:  E(UB3LYP) =  -950.182711415     A.U. after   20 cycles
 SCF Done:  E(UB3LYP) =  -950.184545544     A.U. after   19 cycles
 SCF Done:  E(UB3LYP) =  -950.186469570     A.U. after   20 cycles
 SCF Done:  E(UB3LYP) =  -950.186846061     A.U. after   21 cycles
 SCF Done:  E(UB3LYP) =  -950.193457924     A.U. after   17 cycles
 SCF Done:  E(UB3LYP) =  -950.193463621     A.U. after   16 cycles
 SCF Done:  E(UB3LYP) =  -950.193468266     A.U. after   16 cycles
 SCF Done:  E(UB3LYP) =  -950.193470735     A.U. after   15 cycles
 SCF Done:  E(UB3LYP) =  -950.193473738     A.U. after   17 cycles
 SCF Done:  E(UB3LYP) =  -950.193476144     A.U. after   15 cycles
 SCF Done:  E(UB3LYP) =  -950.193476672     A.U. after   15 cycles
 SCF Done:  E(UB3LYP) =  -950.193476810     A.U. after   15 cycles
 SCF Done:  E(UB3LYP) =  -950.193476861     A.U. after   14 cycles
 Optimization completed.
    -- Stationary point found.
 Normal termination of Gaussian 16 at Fri Dec 22 04:11:15 2023.

 ----------------------------------------------------------------------
 #P Geom=AllCheck Guess=TCheck SCRF=Check GenChk UB3LYP/6-311++G(d,p) F
 req
 ----------------------------------------------------------------------

 Structure from the checkpoint file:  "198-an.chk"
 -------
 Reduced
 -------
 Charge = -2 Multiplicity = 1

                          Input orientation:
 ---------------------------------------------------------------------
 Center     Atomic      Atomic             Coordinates (Angstroms)
 Number     Number       Type             X           Y           Z
 ---------------------------------------------------------------------
      1          7           0        3.091299   -1.262926    1.327916
      2          6           0        2.644456   -0.539141    0.200804
      3          6           0        3.571745   -0.083931   -0.714548
      4          6           0        3.162452    0.707367   -1.821758
      5          6           0        1.851456    1.069195   -1.990591
      6          8           0        1.513376    1.859681   -3.089576
      7          6           0        0.828165    0.636864   -1.070814
      8          6           0       -0.528832    0.993952   -1.202685
      9          8           0       -0.924833    1.828507   -2.200921
     10          6           0       -1.510111    0.492634   -0.299166
     11          6           0       -2.907198    0.919618   -0.471414
     12          8           0       -3.251114    1.746695   -1.428071
     13          6           0       -3.845139    0.398032    0.426286
     14          6           0       -3.473404   -0.506442    1.439644
     15          6           0       -2.168174   -0.910695    1.638342
     16          7           0       -1.893326   -1.821691    2.719477
     17          6           0       -1.135541   -0.417470    0.758221
     18          6           0        0.254656   -0.799492    0.925159
     19          8           0        0.598443   -1.652413    1.861922
     20          6           0        1.236464   -0.233598    0.038163
     21          1           0        3.840354   -1.902745    1.096893
     22          1           0        2.272015   -1.705800    1.777905
     23          1           0        4.626712   -0.298729   -0.559224
     24          1           0        3.904096    1.041600   -2.549011
     25          1           0        2.352264    2.111164   -3.489048
     26          1           0       -1.939802    1.929589   -2.049491
     27          1           0       -4.882561    0.699174    0.302030
     28          1           0       -4.238294   -0.917653    2.098834
     29          1           0       -0.877384   -1.978638    2.723338
     30          1           0       -2.172239   -1.402708    3.601383
 ---------------------------------------------------------------------

 SCF Done:  E(UB3LYP) =  -950.193476861     A.U. after    2 cycles

 Alpha  occ. eigenvalues --  -18.91636 -18.84299 -18.80337 -18.80278 -14.06000
 Alpha  occ. eigenvalues --  -14.04434  -9.98950  -9.96628  -9.96163  -9.95933
 Alpha  occ. eigenvalues --   -9.95541  -9.93789  -9.93312  -9.92553  -9.92168
 Alpha  occ. eigenvalues --   -9.92035  -9.91527  -9.91252  -9.90905  -9.89483
 Alpha  occ. eigenvalues --   -0.82324  -0.76761  -0.72393  -0.70866  -0.66208
 Alpha  occ. eigenvalues --   -0.63965  -0.59229  -0.56359  -0.52748  -0.48708
 Alpha  occ. eigenvalues --   -0.47996  -0.45123  -0.41602  -0.38833  -0.37730
 Alpha  occ. eigenvalues --   -0.33603  -0.31451  -0.30836  -0.28124  -0.25842
 Alpha  occ. eigenvalues --   -0.25649  -0.24052  -0.23688  -0.21630  -0.20888
 Alpha  occ. eigenvalues --   -0.19661  -0.19285  -0.17678  -0.17340  -0.15645
 Alpha  occ. eigenvalues --   -0.15373  -0.14475  -0.13885  -0.13311  -0.12778
 Alpha  occ. eigenvalues --   -0.11833  -0.11643  -0.10304  -0.10042  -0.09120
 Alpha  occ. eigenvalues --   -0.07608  -0.06398  -0.04938  -0.01940  -0.00537
 Alpha  occ. eigenvalues --    0.01211   0.01684   0.02822   0.03708   0.06711
 Alpha  occ. eigenvalues --    0.11849
 Alpha virt. eigenvalues --    0.15172   0.16421   0.17244   0.18568   0.18877
 Alpha virt. eigenvalues --    0.20433   0.20504   0.21482   0.22040   0.22839
 Alpha virt. eigenvalues --    0.23365   0.24760   0.25251   0.25615   0.26355

  Beta  occ. eigenvalues --  -18.91636 -18.84299 -18.80337 -18.80278 -14.06000
  Beta  occ. eigenvalues --  -14.04434  -9.98950  -9.96628  -9.96163  -9.95933
  Beta  occ. eigenvalues --   -9.95541  -9.93789  -9.93312  -9.92553  -9.92168
  Beta  occ. eigenvalues --   -9.92035  -9.91527  -9.91252  -9.90905  -9.89483
  Beta  occ. eigenvalues --   -0.82324  -0.76761  -0.72393  -0.70866  -0.66208
  Beta  occ. eigenvalues --   -0.63965  -0.59229  -0.56359  -0.52748  -0.48708
  Beta  occ. eigenvalues --   -0.47996  -0.45123  -0.41602  -0.38833  -0.37730
  Beta  occ. eigenvalues --   -0.33603  -0.31451  -0.30836  -0.28124  -0.25842
  Beta  occ. eigenvalues --   -0.25649  -0.24052  -0.23688  -0.21630  -0.20888
  Beta  occ. eigenvalues --   -0.19661  -0.19285  -0.17678  -0.17340  -0.15645
  Beta  occ. eigenvalues --   -0.15373  -0.14475  -0.13885  -0.13311  -0.12778
  Beta  occ. eigenvalues --   -0.11833  -0.11643  -0.10304  -0.10042  -0.09120
  Beta  occ. eigenvalues --   -0.07608  -0.06398  -0.04938  -0.01940  -0.00537
  Beta  occ. eigenvalues --    0.01211   0.01684   0.02822   0.03708   0.06711
  Beta  occ. eigenvalues --    0.11849
  Beta virt. eigenvalues --    0.15172   0.16421   0.17244   0.18568   0.18877
  Beta virt. eigenvalues --    0.20433   0.20504   0.21482   0.22040   0.22839
  Beta virt. eigenvalues --    0.23365   0.24760   0.25251   0.25615   0.26355

 Mulliken charges and spin densities:
               1          2
     1  N   -0.418003  -0.000000
     2  C   -0.096180   0.000000
     3  C   -0.345886  -0.000000
     4  C   -0.170821  -0.000000
     5  C   -0.374251   0.000000
     6  O   -0.255780  -0.000000
     7  C    0.523147  -0.000000
     8  C   -0.223273   0.000000
     9  O   -0.515889  -0.000000
    10  C    0.409092   0.000000
    11  C   -0.782641   0.000000
    12  O   -0.583187  -0.000000
    13  C   -0.119146  -0.000000
    14  C   -0.166961  -0.000000
    15  C   -0.238735   0.000000
    16  N   -0.452301  -0.000000
    17  C    0.514191  -0.000000
    18  C   -0.591816  -0.000000
    19  O   -0.495364   0.000000
    20  C    0.483500   0.000000
    21  H    0.177226  -0.000000
    22  H    0.299864   0.000000
    23  H    0.060623  -0.000000
    24  H    0.031573   0.000000
    25  H    0.215372   0.000000
    26  H    0.493220   0.000000
    27  H    0.081064  -0.000000
    28  H    0.068375  -0.000000
    29  H    0.293346   0.000000
    30  H    0.179642  -0.000000
 Sum of Mulliken charges =  -2.00000  -0.00000

 Dipole moment (field-independent basis, Debye):
    X=              7.0764    Y=             -1.4965    Z=              1.0119  Tot=              7.3033
 Quadrupole moment (field-independent basis, Debye-Ang):
   XX=           -189.5189   YY=           -151.1362   ZZ=           -155.1772
   XY=              9.4376   XZ=             -7.9515   YZ=             23.6970

  Exact polarizability: 422.244 -18.936 186.058 -55.627 -73.911 236.278
 Approx polarizability: 696.339 -38.521 315.993 -81.059-147.489 412.554

                      1                      2                      3
                      A                      A                      A
 Frequencies --     32.0535                49.4677                77.2627
 Red. masses --      5.9947                 6.9805                 6.1192
 Frc consts  --      0.0036                 0.0101                 0.0215
 IR Inten    --      5.4987                 1.7320                 4.2251

                      4                      5                      6
                      A                      A                      A
 Frequencies --    100.4312               108.4060               182.6034
 Red. masses --      5.4300                 6.1914                 6.7313
 Frc consts  --      0.0323                 0.0429                 0.1322
 IR Inten    --      1.6778                 4.1254                 0.8919

                      7                      8                      9
                      A                      A                      A
 Frequencies --    219.2138               258.3629               284.2993
 Red. masses --      7.0569                 2.2947                 1.6989
 Frc consts  --      0.1998                 0.0902                 0.0809
 IR Inten    --      9.6707                32.8537                23.1932

                     10                     11                     12
                      A                      A                      A
 Frequencies --    297.3453               319.5319               321.4672
 Red. masses --      5.6683                 6.4127                 1.8012
 Frc consts  --      0.2953                 0.3858                 0.1097
 IR Inten    --      2.6773                 6.7786                88.5051

                     13                     14                     15
                      A                      A                      A
 Frequencies --    343.5973               353.8853               385.2083
 Red. masses --      3.1242                 2.2509                 4.5062
 Frc consts  --      0.2173                 0.1661                 0.3940
 IR Inten    --     42.1638                35.3678                18.1323

                     16                     17                     18
                      A                      A                      A
 Frequencies --    388.1351               410.6371               415.2173
 Red. masses --      6.0764                 1.6846                 6.4141
 Frc consts  --      0.5393                 0.1674                 0.6515
 IR Inten    --      2.7300                71.3621                51.3736

                     19                     20                     21
                      A                      A                      A
 Frequencies --    433.5026               452.9636               471.6312
 Red. masses --      4.6855                 6.9636                 6.8029
 Frc consts  --      0.5188                 0.8418                 0.8916
 IR Inten    --     27.6896                 1.0539                 0.0743

                     22                     23                     24
                      A                      A                      A
 Frequencies --    479.6516               486.5438               489.3994
 Red. masses --      8.1971                 4.6159                 5.1120
 Frc consts  --      1.1111                 0.6438                 0.7214
 IR Inten    --     10.4879                 9.8832                 5.5408

                     25                     26                     27
                      A                      A                      A
 Frequencies --    514.0274               543.9152               546.4448
 Red. masses --      5.8834                 3.1833                 6.4765
 Frc consts  --      0.9159                 0.5549                 1.1394
 IR Inten    --      8.8590                37.1301                 1.2724

                     28                     29                     30
                      A                      A                      A
 Frequencies --    598.8105               606.9797               630.9960
 Red. masses --      3.8277                 4.3237                 2.3163
 Frc consts  --      0.8087                 0.9385                 0.5434
 IR Inten    --      3.2775                19.0623                13.9695

                     31                     32                     33
                      A                      A                      A
 Frequencies --    701.4226               715.3223               723.3729
 Red. masses --      2.1370                 1.6366                 4.3679
 Frc consts  --      0.6195                 0.4934                 1.3466
 IR Inten    --     47.2368                26.3875                21.2791

                     34                     35                     36
                      A                      A                      A
 Frequencies --    727.8294               739.2943               745.0338
 Red. masses --      4.0250                 4.3638                 4.4381
 Frc consts  --      1.2562                 1.4052                 1.4514
 IR Inten    --      8.3168                33.6633                69.6123

                     37                     38                     39
                      A                      A                      A
 Frequencies --    783.5724               795.2842               796.2396
 Red. masses --      3.3863                 5.3478                 7.5857
 Frc consts  --      1.2250                 1.9928                 2.8336
 IR Inten    --     13.6919                12.9879                48.1289

                     40                     41                     42
                      A                      A                      A
 Frequencies --    833.9652               834.8587               905.1840
 Red. masses --      1.4492                 4.9854                 1.7936
 Frc consts  --      0.5938                 2.0473                 0.8658
 IR Inten    --     14.0493                22.5676               269.3792

                     43                     44                     45
                      A                      A                      A
 Frequencies --    930.6379               948.3363               988.1046
 Red. masses --      3.7435                 4.8406                 1.9613
 Frc consts  --      1.9102                 2.5649                 1.1282
 IR Inten    --    196.5471                 3.7827                49.7107

                     46                     47                     48
                      A                      A                      A
 Frequencies --   1000.1664              1049.7555              1075.8596
 Red. masses --      2.2427                 1.0511                 1.6214
 Frc consts  --      1.3218                 0.6825                 1.1057
 IR Inten    --    121.1946                61.1180               121.1469

                     49                     50                     51
                      A                      A                      A
 Frequencies --   1124.8573              1162.5222              1175.5573
 Red. masses --      1.9678                 2.1439                 2.1421
 Frc consts  --      1.4670                 1.7071                 1.7441
 IR Inten    --     75.7074                12.3999               211.2951

                     52                     53                     54
                      A                      A                      A
 Frequencies --   1204.4107              1204.9842              1216.5181
 Red. masses --      2.8856                 1.5517                 1.8600
 Frc consts  --      2.4662                 1.3275                 1.6218
 IR Inten    --    130.5222               226.5436                42.8142

                     55                     56                     57
                      A                      A                      A
 Frequencies --   1232.8834              1245.3184              1259.1850
 Red. masses --      3.5153                 2.1128                 3.2371
 Frc consts  --      3.1482                 1.9305                 3.0240
 IR Inten    --      0.5165                16.3356                13.0473

                     58                     59                     60
                      A                      A                      A
 Frequencies --   1272.8025              1302.4390              1322.8382
 Red. masses --      4.9333                 4.8310                 7.9463
 Frc consts  --      4.7088                 4.8284                 8.1927
 IR Inten    --     91.7297                41.2813                56.7085

                     61                     62                     63
                      A                      A                      A
 Frequencies --   1340.3120              1384.7654              1399.0874
 Red. masses --      4.5709                 2.6962                 2.4053
 Frc consts  --      4.8379                 3.0462                 2.7740
 IR Inten    --      0.6102               147.3144               328.1728

                     64                     65                     66
                      A                      A                      A
 Frequencies --   1441.1203              1464.1243              1464.7960
 Red. masses --      4.2385                 3.1327                 3.2859
 Frc consts  --      5.1864                 3.9566                 4.1540
 IR Inten    --    245.9510               100.8969               343.9792

                     67                     68                     69
                      A                      A                      A
 Frequencies --   1500.3185              1545.0283              1579.7181
 Red. masses --      4.2045                 4.6730                 4.9068
 Frc consts  --      5.5761                 6.5723                 7.2146
 IR Inten    --     43.3786               185.2520                46.8958

                     70                     71                     72
                      A                      A                      A
 Frequencies --   1590.0451              1599.8581              1612.2487
 Red. masses --      1.6289                 2.2481                 5.5947
 Frc consts  --      2.4264                 3.3902                 8.5682
 IR Inten    --    178.2214               150.9805                83.0887

                     73                     74                     75
                      A                      A                      A
 Frequencies --   1649.7926              1694.8621              2519.3063
 Red. masses --      1.2771                 1.3984                 1.0902
 Frc consts  --      2.0481                 2.3667                 4.0766
 IR Inten    --      8.2065                85.7727               822.0875

                     76                     77                     78
                      A                      A                      A
 Frequencies --   3075.1803              3086.3435              3119.4707
 Red. masses --      1.0853                 1.0853                 1.0904
 Frc consts  --      6.0469                 6.0911                 6.2514
 IR Inten    --    101.8801                78.8452                60.7538

                     79                     80                     81
                      A                      A                      A
 Frequencies --   3129.8618              3156.3393              3274.8937
 Red. masses --      1.0905                 1.0700                 1.0643
 Frc consts  --      6.2940                 6.2804                 6.7250
 IR Inten    --    122.3718               284.2079               195.0094

                     82                     83                     84
                      A                      A                      A
 Frequencies --   3495.0011              3562.2185              3811.0100
 Red. masses --      1.0800                 1.0785                 1.0651
 Frc consts  --      7.7725                 8.0635                 9.1146
 IR Inten    --     31.2604                 2.9714                 1.7801

 - Thermochemistry -
 -------------------
 Temperature   298.150 Kelvin.  Pressure   1.00000 Atm.
 Atom     1 has atomic number  7 and mass  14.00307

 Molecular mass:   270.06406 amu.
 Principal axes and moments of inertia in atomic units:
                           1         2         3
     Eigenvalues --  3528.133335530.604639041.34461
           X            0.94788   0.28545   0.14157
           Y            0.06318  -0.60386   0.79458
           Z           -0.31231   0.74422   0.59042
 This molecule is an asymmetric top.
 Rotational symmetry number  1.
 Warning -- assumption of classical behavior for rotation
           may cause significant error
 Rotational temperatures (Kelvin)      0.02455     0.01566     0.00958
 Rotational constants (GHZ):           0.51153     0.32632     0.19961
 Zero-point vibrational energy     564136.4 (Joules/Mol)
                                  134.83185 (Kcal/Mol)
 Warning -- explicit consideration of  29 degrees of freedom as
           vibrations may cause significant error
 Vibrational temperatures:     46.12    71.17   111.16   144.50   155.97
          (Kelvin)            262.73   315.40   371.73   409.04   427.81
                              459.74   462.52   494.36   509.16   554.23
                              558.44   590.82   597.41   623.71   651.71
                              678.57   690.11   700.03   704.14   739.57
                              782.57   786.21   861.55   873.31   907.86
                             1009.19  1029.19  1040.77  1047.18  1063.68
                             1071.94  1127.39  1144.24  1145.61  1199.89
                             1201.18  1302.36  1338.98  1364.44  1421.66
                             1439.02  1510.36  1547.92  1618.42  1672.61
                             1691.36  1732.88  1733.70  1750.30  1773.84
                             1791.74  1811.69  1831.28  1873.92  1903.27
                             1928.41  1992.37  2012.97  2073.45  2106.55
                             2107.51  2158.62  2222.95  2272.86  2287.72
                             2301.84  2319.67  2373.68  2438.53  3624.72
                             4424.50  4440.56  4488.22  4503.17  4541.27
                             4711.84  5028.53  5125.24  5483.19

 Zero-point correction=                           0.214868 (Hartree/Particle)
 Thermal correction to Energy=                    0.230938
 Thermal correction to Enthalpy=                  0.231882
 Thermal correction to Gibbs Free Energy=         0.171714
 Sum of electronic and zero-point Energies=           -949.978609
 Sum of electronic and thermal Energies=              -949.962539
 Sum of electronic and thermal Enthalpies=            -949.961595
 Sum of electronic and thermal Free Energies=         -950.021762

                     E (Thermal)             CV                S
                      KCal/Mol        Cal/Mol-Kelvin    Cal/Mol-Kelvin
 Total                  144.916             65.331            126.633
 Electronic               0.000              0.000              0.000
 Translational            0.889              2.981             42.679
 Rotational               0.889              2.981             33.533
 Vibrational            143.138             59.369             50.420
 Vibration     1          0.594              1.983              5.698
 Vibration     2          0.595              1.978              4.839
 Vibration     3          0.599              1.964              3.959
 Vibration     4          0.604              1.949              3.446
 Vibration     5          0.606              1.942              3.297
 Vibration     6          0.630              1.863              2.302
 Vibration     7          0.647              1.812              1.966
 Vibration     8          0.667              1.749              1.673
 Vibration     9          0.683              1.703              1.508
 Vibration    10          0.691              1.679              1.432
 Vibration    11          0.705              1.636              1.312
 Vibration    12          0.707              1.632              1.303
 Vibration    13          0.722              1.588              1.195
 Vibration    14          0.730              1.567              1.149
 Vibration    15          0.754              1.502              1.019
 Vibration    16          0.756              1.496              1.007
 Vibration    17          0.775              1.447              0.924
 Vibration    18          0.779              1.437              0.908
 Vibration    19          0.794              1.397              0.847
 Vibration    20          0.812              1.354              0.787
 Vibration    21          0.829              1.313              0.733
 Vibration    22          0.836              1.295              0.711
 Vibration    23          0.843              1.280              0.693
 Vibration    24          0.845              1.274              0.685
 Vibration    25          0.869              1.219              0.624
 Vibration    26          0.899              1.153              0.557
 Vibration    27          0.902              1.147              0.552
 Vibration    28          0.957              1.034              0.452
 Vibration    29          0.966              1.017              0.438

 Optimization completed.
    -- Stationary point found.
 Normal termination of Gaussian 16 at Fri Dec 22 05:21:24 2023.
