 Q-Chem 5.4, Q-Chem, Inc., Pleasanton, CA (2021)
 Q-Chem 5.4.0 for Intel X86 EM64T Linux

User input:
--------------------------------------------------------------
$molecule
-1 2
C                 -1.7977400000      2.8011950000     -0.7501200000
C                 -2.9023300000      1.9975220000     -0.5349130000
C                 -2.7311550000      0.6462740000     -0.1668430000
C                 -0.4834390000      2.3072990000     -0.6117870000
C                 -0.3177680000      0.9355880000     -0.2381750000
C                 -1.4557870000      0.1292370000     -0.0223040000
C                  0.6541440000      3.2075490000     -0.8530660000
C                  2.0296840000      2.6314610000     -0.6920540000
C                  2.1071840000      1.2341910000     -0.3118440000
C                  1.0163600000      0.4382550000     -0.0987890000
O                  0.4791740000      4.4022590000     -1.1782240000
O                  3.0616820000      3.3126790000     -0.8739090000
H                 -1.9036970000      3.8423310000     -1.0335630000
H                 -3.9024660000      2.4055780000     -0.6489460000
H                 -3.5962600000      0.0124220000      0.0029280000
H                 -1.3122990000     -0.9073550000      0.2601080000
H                  3.1125280000      0.8297870000     -0.1987160000
O                  1.1416850000     -0.8966230000      0.2647310000
H                  2.0824490000     -1.0912790000      0.3209260000
$end
$rem
MAX_SCF_CYCLES=200
BASIS  =  6-311++G(d,p)
GUI  =  2
JOB_TYPE  =  SP
METHOD  =  B3LYP
SOLVENT_METHOD = COSMO
$end
$solvent
dielectric 37.219
opticaldielectric 1.43
$end

--------------------------------------------------------------

             Standard Nuclear Orientation (Angstroms)
    I     Atom           X                Y                Z
 ----------------------------------------------------------------
    1      C      -1.3846127208    -1.6903192664     0.0000707672
    2      C      -2.7124126224    -1.3039634381    -0.0000123630
    3      C      -3.0488394366     0.0662425891    -0.0000815460
    4      C      -0.3374918607    -0.7448065501     0.0001349397
    5      C      -0.6865809281     0.6432715072     0.0000712674
    6      C      -2.0466165961     1.0203556297    -0.0000501443
    7      C       1.0566217583    -1.2130030020     0.0001320817
    8      C       2.1307782950    -0.1660549281     0.0000642228
    9      C       1.6898869728     1.2154457737     0.0000763044
   10      C       0.3778057330     1.5991727185     0.0000807526
   11      O       1.3319593523    -2.4327830416    -0.0001402956
   12      O       3.3457084059    -0.4594724947    -0.0001195570
   13      H      -1.1011611447    -2.7368307065     0.0000525308
   14      H      -3.4973969380    -2.0546863331    -0.0000565943
   15      H      -4.0903870143     0.3731234255    -0.0001660716
   16      H      -2.2933239841     2.0758194039    -0.0001168469
   17      H       2.4810747480     1.9644978424     0.0000511054
   18      O       0.0045299540     2.9372375904    -0.0000311916
   19      H       0.8123810697     3.4601737348    -0.0003534651
 ----------------------------------------------------------------

   11    -610.5694202333      7.58e-06  Convergence criterion met
 Total energy in the final basis set =     -610.5694202333
    5    -610.6682646475      8.11e-06  Convergence criterion met
 Total energy in the final basis set =     -610.6682646475

                    Orbital Energies (a.u.)
 --------------------------------------------------------------

 Alpha MOs
 -- Occupied --
-19.1570 -19.0831 -19.0785 -10.2387 -10.2230 -10.2210 -10.1833 -10.1763
-10.1749 -10.1729 -10.1722 -10.1703 -10.1586  -1.0631  -1.0193  -0.9928
 -0.8641  -0.8031  -0.7568  -0.7315  -0.6845  -0.6256  -0.5982  -0.5874
 -0.5267  -0.5168  -0.5005  -0.4527  -0.4480  -0.4326  -0.4277  -0.4256
 -0.4168  -0.3998  -0.3929  -0.3886  -0.3694  -0.3527  -0.3459  -0.3409
 -0.2846  -0.2664  -0.2616  -0.2306  -0.2266  -0.1556

 Beta MOs
 -- Occupied --
-19.1560 -19.0765 -19.0735 -10.2364 -10.2214 -10.2189 -10.1825 -10.1758
-10.1750 -10.1723 -10.1718 -10.1700 -10.1594  -1.0607  -1.0091  -0.9821
 -0.8618  -0.7996  -0.7540  -0.7301  -0.6761  -0.6232  -0.5943  -0.5853
 -0.5249  -0.5149  -0.4975  -0.4504  -0.4461  -0.4271  -0.4222  -0.4197
 -0.4125  -0.3904  -0.3869  -0.3814  -0.3605  -0.3512  -0.3400  -0.3218
 -0.2738  -0.2606  -0.2519  -0.2252  -0.2189

          Ground-State Mulliken Net Atomic Charges

     Atom                 Charge (a.u.)    Spin (a.u.)
  --------------------------------------------------------
      1 C                     0.225755       0.065120
      2 C                    -0.396672       0.015532
      3 C                    -0.442444       0.061360
      4 C                     0.032578       0.014924
      5 C                    -0.255792       0.042638
      6 C                     0.218066       0.016849
      7 C                    -0.285743       0.143893
      8 C                    -0.106947       0.162941
      9 C                     0.223631      -0.074283
     10 C                    -0.108151       0.113474
     11 O                    -0.518333       0.243279
     12 O                    -0.560193       0.176442
     13 H                     0.171558      -0.003970
     14 H                     0.204546      -0.001969
     15 H                     0.203197      -0.004361
     16 H                     0.191969       0.000864
     17 H                     0.183375       0.001460
     18 O                    -0.294403       0.026628
     19 H                     0.314003      -0.000823
  --------------------------------------------------------
  Sum of atomic charges =    -1.000000

                    Cartesian Multipole Moments
 -----------------------------------------------------------------
    Charge (ESU x 10^10)
                -4.8032
    Dipole Moment (Debye)
         X     -10.2553      Y       7.9135      Z      -0.0000
       Tot      12.9536
    Quadrupole Moments (Debye-Ang)
        XX    -107.8363     XY      20.7306     YY     -87.0065
        XZ       0.0015     YZ      -0.0037     ZZ     -80.6064

 Total job time:  40.07s(wall), 291.07s(cpu)
        *  Thank you very much for using Q-Chem.  Have a nice day.  *
