 Q-Chem 5.4, Q-Chem, Inc., Pleasanton, CA (2021)
 Q-Chem 5.4.0 for Intel X86 EM64T Linux

User input:
--------------------------------------------------------------
$molecule
0 1
C                  1.1247380000      2.8557130000      1.4729510000
C                 -0.2367200000      2.5520660000      0.9394140000
C                 -0.5065130000      1.3452790000      0.3979210000
C                  0.5872250000      0.3343750000      0.2635840000
C                  1.9863460000      0.6747840000      0.6745750000
C                  2.2414190000      1.8862310000      1.2279500000
O                  1.3040510000      3.8786750000      2.1130260000
O                  0.3514270000     -0.7688520000     -0.2069890000
C                 -1.2447950000      3.6523390000      1.1079180000
C                 -1.8635240000      0.9335230000     -0.1083970000
C                  3.0133940000     -0.3942080000      0.4496520000
S                  3.8586900000      2.2631600000      1.8644090000
C                  4.1808630000      3.9939630000      1.3022600000
C                  5.6002090000      4.3587940000      1.7267650000
C                  6.0185910000      5.7252910000      1.1975090000
O                  5.4046740000      6.3652570000      0.3925220000
O                  7.1958030000      6.1992360000      1.6904650000
H                 -0.8492080000      4.5940580000      0.7196850000
H                 -1.4502440000      3.8247100000      2.1688260000
H                 -2.1810930000      3.4271030000      0.6010080000
H                 -2.6459570000      1.1582550000      0.6194120000
H                 -1.8753330000     -0.1336260000     -0.3222430000
H                 -2.1118700000      1.4635160000     -1.0339760000
H                  2.7426440000     -1.0040500000     -0.4116070000
H                  3.0626790000     -1.0680050000      1.3127220000
H                  4.0036500000      0.0416120000      0.3158320000
H                  3.4521900000      4.6595110000      1.7543200000
H                  4.0863290000      4.0362730000      0.2182550000
H                  6.3219200000      3.6231010000      1.3501450000
H                  5.6868570000      4.3528600000      2.8193920000
H                  7.5672090000      5.5902420000      2.3405150000
$end
$rem
MAX_SCF_CYCLES=200
BASIS  =  6-311++G(d,p)
GUI  =  2
JOB_TYPE  =  SP
METHOD  =  B3LYP
SOLVENT_METHOD = PCM
$end
$pcm
theory = CPCM
$end
$solvent
dielectric 37.219
opticaldielectric 1.43
$end

--------------------------------------------------------------

             Standard Nuclear Orientation (Angstroms)
    I     Atom           X                Y                Z
 ----------------------------------------------------------------
    1      C       1.1247380000     2.8557130000     1.4729510000
    2      C      -0.2367200000     2.5520660000     0.9394140000
    3      C      -0.5065130000     1.3452790000     0.3979210000
    4      C       0.5872250000     0.3343750000     0.2635840000
    5      C       1.9863460000     0.6747840000     0.6745750000
    6      C       2.2414190000     1.8862310000     1.2279500000
    7      O       1.3040510000     3.8786750000     2.1130260000
    8      O       0.3514270000    -0.7688520000    -0.2069890000
    9      C      -1.2447950000     3.6523390000     1.1079180000
   10      C      -1.8635240000     0.9335230000    -0.1083970000
   11      C       3.0133940000    -0.3942080000     0.4496520000
   12      S       3.8586900000     2.2631600000     1.8644090000
   13      C       4.1808630000     3.9939630000     1.3022600000
   14      C       5.6002090000     4.3587940000     1.7267650000
   15      C       6.0185910000     5.7252910000     1.1975090000
   16      O       5.4046740000     6.3652570000     0.3925220000
   17      O       7.1958030000     6.1992360000     1.6904650000
   18      H      -0.8492080000     4.5940580000     0.7196850000
   19      H      -1.4502440000     3.8247100000     2.1688260000
   20      H      -2.1810930000     3.4271030000     0.6010080000
   21      H      -2.6459570000     1.1582550000     0.6194120000
   22      H      -1.8753330000    -0.1336260000    -0.3222430000
   23      H      -2.1118700000     1.4635160000    -1.0339760000
   24      H       2.7426440000    -1.0040500000    -0.4116070000
   25      H       3.0626790000    -1.0680050000     1.3127220000
   26      H       4.0036500000     0.0416120000     0.3158320000
   27      H       3.4521900000     4.6595110000     1.7543200000
   28      H       4.0863290000     4.0362730000     0.2182550000
   29      H       6.3219200000     3.6231010000     1.3501450000
   30      H       5.6868570000     4.3528600000     2.8193920000
   31      H       7.5672090000     5.5902420000     2.3405150000
 ----------------------------------------------------------------

    9   -1165.0626783257      5.05e-06  Convergence criterion met
 Total energy in the final basis set =    -1165.0626783257

                    Orbital Energies (a.u.)
 --------------------------------------------------------------

 Alpha MOs
 -- Occupied --
-88.8644 -19.1801 -19.1378 -19.1371 -19.1316 -10.3246 -10.2864 -10.2821
-10.2326 -10.2175 -10.2103 -10.2095 -10.2084 -10.2014 -10.1713 -10.1712
-10.1693  -7.9504  -5.9144  -5.9105  -5.9044  -1.1212  -1.0728  -1.0695
 -1.0448  -0.8722  -0.8388  -0.8139  -0.7560  -0.7477  -0.7261  -0.6840
 -0.6603  -0.6422  -0.6183  -0.5798  -0.5761  -0.5419  -0.5334  -0.4995
 -0.4847  -0.4811  -0.4693  -0.4670  -0.4464  -0.4381  -0.4345  -0.4330
 -0.4254  -0.4208  -0.4161  -0.4088  -0.4012  -0.3979  -0.3922  -0.3885
 -0.3789  -0.3779  -0.3716  -0.3450  -0.3437  -0.3044  -0.3016  -0.2924
 -0.2779  -0.2735  -0.2411

          Ground-State Mulliken Net Atomic Charges

     Atom                 Charge (a.u.)
  ----------------------------------------
      1 C                    -0.735147
      2 C                     0.946444
      3 C                     0.029186
      4 C                    -1.476841
      5 C                     0.491587
      6 C                     1.646303
      7 O                    -0.260077
      8 O                    -0.272332
      9 C                    -0.541128
     10 C                    -0.553210
     11 C                    -0.236625
     12 S                    -0.601179
     13 C                    -0.689034
     14 C                    -0.077274
     15 C                    -0.082285
     16 O                    -0.335698
     17 O                    -0.220805
     18 H                     0.183840
     19 H                     0.210519
     20 H                     0.184256
     21 H                     0.179047
     22 H                     0.196835
     23 H                     0.200970
     24 H                     0.185185
     25 H                     0.224603
     26 H                     0.145228
     27 H                     0.239441
     28 H                     0.254564
     29 H                     0.226570
     30 H                     0.214634
     31 H                     0.322424
  ----------------------------------------
  Sum of atomic charges =     0.000000

                    Cartesian Multipole Moments
 -----------------------------------------------------------------
    Charge (ESU x 10^10)
                 0.0000
    Dipole Moment (Debye)
         X       0.5551      Y      -2.4132      Z       1.9863
       Tot       3.1744
    Quadrupole Moments (Debye-Ang)
        XX     -79.2691     XY     -18.7567     YY    -156.2713
        XZ      18.6635     YZ       6.0670     ZZ    -104.8623

 Total job time:  54.34s(wall), 373.15s(cpu)
        *  Thank you very much for using Q-Chem.  Have a nice day.  *
