 Gaussian 16, Revision A.03,

 -------------------------
 #P HF/6-311++G(d,p) nosym
 -------------------------

 -------
 Reduced
 -------
 Symbolic Z-matrix:
 Charge = -2 Multiplicity = 1

 SCF Done:  E(RHF) =  -3295.42061107     A.U. after   59 cycles
 Normal termination of Gaussian 16 at Fri Dec 22 04:41:02 2023.
 Gaussian 16:  ES64L-G16RevA.03 25-Dec-2016

 ------------------------------------------------------------------
 #P UB3LYP/6-311++G(d,p) nosym guess=read geom=check nosym opt freq
 ------------------------------------------------------------------

 -------------------------------------------
 Then here read in HF orbitals and run B3LYP
 -------------------------------------------
 Structure from the checkpoint file:  "120-an.chk"
 Charge = -2 Multiplicity = 1

 SCF Done:  E(UB3LYP) =  -3301.78637331     A.U. after   41 cycles
 SCF Done:  E(UB3LYP) =  -3301.80650404     A.U. after   36 cycles
 SCF Done:  E(UB3LYP) =  -3301.81014125     A.U. after   28 cycles
 SCF Done:  E(UB3LYP) =  -3301.81017645     A.U. after   22 cycles
 SCF Done:  E(UB3LYP) =  -3301.81039171     A.U. after   21 cycles
 SCF Done:  E(UB3LYP) =  -3301.81043456     A.U. after   22 cycles
 SCF Done:  E(UB3LYP) =  -3301.81043713     A.U. after   19 cycles
 SCF Done:  E(UB3LYP) =  -3301.81043786     A.U. after   19 cycles
 SCF Done:  E(UB3LYP) =  -3301.81043880     A.U. after   20 cycles
 SCF Done:  E(UB3LYP) =  -3301.81044068     A.U. after   22 cycles
 SCF Done:  E(UB3LYP) =  -3301.81044183     A.U. after   21 cycles
 SCF Done:  E(UB3LYP) =  -3301.81044274     A.U. after   21 cycles
 SCF Done:  E(UB3LYP) =  -3301.81044295     A.U. after   20 cycles
 Optimization completed.
    -- Stationary point found.
 Normal termination of Gaussian 16 at Fri Dec 22 06:50:00 2023.

 ----------------------------------------------------------------------
 #P Geom=AllCheck Guess=TCheck SCRF=Check GenChk UB3LYP/6-311++G(d,p) F
 req
 ----------------------------------------------------------------------

 Structure from the checkpoint file:  "120-an.chk"
 -------------------------------------------
 Then here read in HF orbitals and run B3LYP
 -------------------------------------------
 Charge = -2 Multiplicity = 1

                         Standard orientation:
 ---------------------------------------------------------------------
 Center     Atomic      Atomic             Coordinates (Angstroms)
 Number     Number       Type             X           Y           Z
 ---------------------------------------------------------------------
      1          6           0       -3.738346   -1.692161   -0.000126
      2          6           0       -5.028894   -1.205505   -0.000094
      3          6           0       -5.248951    0.202332    0.000014
      4          6           0       -2.602820   -0.840133   -0.000078
      5          6           0       -2.826966    0.595881   -0.000008
      6          6           0       -4.168740    1.059877    0.000047
      7          6           0       -1.280896   -1.431299   -0.000052
      8          6           0       -0.210233   -0.463923    0.000024
      9          6           0       -0.431794    0.973755    0.000023
     10          6           0       -1.748490    1.562031    0.000005
     11          6           0        1.131693   -0.927512    0.000120
     12          6           0        2.177628   -0.046558    0.000263
     13          6           0        2.014693    1.373789    0.000131
     14          6           0        0.705502    1.819408    0.000040
     15          8           0       -1.080176   -2.703066    0.000046
     16          8           0       -1.949120    2.835352    0.000114
     17         35           0        4.014614   -0.792373   -0.000007
     18          6           0        3.171871    2.338442   -0.000276
     19          1           0       -3.535978   -2.759104   -0.000199
     20          1           0       -5.875185   -1.890934   -0.000169
     21          1           0       -6.264169    0.596595    0.000085
     22          1           0       -4.301750    2.137691    0.000125
     23          1           0        1.274155   -2.001913    0.000119
     24          1           0        0.500567    2.887111    0.000028
     25          1           0        3.818875    2.216029   -0.879905
     26          1           0        3.821209    2.214007    0.877314
     27          1           0        2.793604    3.364743    0.001367
 ---------------------------------------------------------------------

 SCF Done:  E(UB3LYP) =  -3301.81044295     A.U. after    1 cycles

 The electronic state is 1-A.
 Alpha  occ. eigenvalues -- -482.61289 -62.26577 -56.08563 -56.08248 -56.08241
 Alpha  occ. eigenvalues --  -18.77770 -18.77659  -9.98697  -9.96737  -9.95031
 Alpha  occ. eigenvalues --   -9.93901  -9.93765  -9.93279  -9.92964  -9.92920
 Alpha  occ. eigenvalues --   -9.92678  -9.92068  -9.92048  -9.90842  -9.90527
 Alpha  occ. eigenvalues --   -9.90506  -9.90476  -8.47530  -6.30511  -6.29459
 Alpha  occ. eigenvalues --   -6.29446  -2.41631  -2.41328  -2.41322  -2.40485
 Alpha  occ. eigenvalues --   -2.40484  -0.69583  -0.69122  -0.62682  -0.59590
 Alpha  occ. eigenvalues --   -0.56722  -0.54655  -0.51042  -0.49535  -0.48530
 Alpha  occ. eigenvalues --   -0.45955  -0.40280  -0.38158  -0.35509  -0.33978
 Alpha  occ. eigenvalues --   -0.29800  -0.27652  -0.26628  -0.23508  -0.21547
 Alpha  occ. eigenvalues --   -0.21108  -0.20533  -0.19689  -0.18398  -0.17636
 Alpha  occ. eigenvalues --   -0.17147  -0.14752  -0.14622  -0.14204  -0.13485
 Alpha  occ. eigenvalues --   -0.12422  -0.11561  -0.09802  -0.09507  -0.09124
 Alpha  occ. eigenvalues --   -0.08288  -0.07912  -0.06709  -0.06323  -0.00939
 Alpha  occ. eigenvalues --    0.00458   0.01349   0.01596   0.04126   0.04754
 Alpha  occ. eigenvalues --    0.13101
 Alpha virt. eigenvalues --    0.15187   0.16058   0.16885   0.17813   0.18906
 Alpha virt. eigenvalues --    0.19529   0.19995   0.20019   0.20683   0.21280
 Alpha virt. eigenvalues --    0.21766   0.22508   0.22872   0.23254   0.24135

  Beta  occ. eigenvalues -- -482.61289 -62.26577 -56.08563 -56.08248 -56.08241
  Beta  occ. eigenvalues --  -18.77770 -18.77659  -9.98697  -9.96737  -9.95031
  Beta  occ. eigenvalues --   -9.93901  -9.93765  -9.93279  -9.92964  -9.92920
  Beta  occ. eigenvalues --   -9.92678  -9.92068  -9.92048  -9.90842  -9.90527
  Beta  occ. eigenvalues --   -9.90506  -9.90476  -8.47530  -6.30511  -6.29459
  Beta  occ. eigenvalues --   -6.29446  -2.41631  -2.41328  -2.41322  -2.40485
  Beta  occ. eigenvalues --   -2.40484  -0.69583  -0.69122  -0.62682  -0.59590
  Beta  occ. eigenvalues --   -0.56722  -0.54655  -0.51042  -0.49535  -0.48530
  Beta  occ. eigenvalues --   -0.45955  -0.40280  -0.38158  -0.35509  -0.33978
  Beta  occ. eigenvalues --   -0.29800  -0.27652  -0.26628  -0.23508  -0.21547
  Beta  occ. eigenvalues --   -0.21108  -0.20533  -0.19689  -0.18398  -0.17636
  Beta  occ. eigenvalues --   -0.17147  -0.14752  -0.14622  -0.14204  -0.13485
  Beta  occ. eigenvalues --   -0.12422  -0.11561  -0.09802  -0.09507  -0.09124
  Beta  occ. eigenvalues --   -0.08288  -0.07912  -0.06709  -0.06323  -0.00939
  Beta  occ. eigenvalues --    0.00458   0.01349   0.01596   0.04126   0.04754
  Beta  occ. eigenvalues --    0.13101
  Beta virt. eigenvalues --    0.15187   0.16058   0.16885   0.17813   0.18906
  Beta virt. eigenvalues --    0.19529   0.19995   0.20019   0.20683   0.21280
  Beta virt. eigenvalues --    0.21766   0.22508   0.22872   0.23254   0.24135

 Mulliken charges and spin densities:
               1          2
     1  C    0.033070   0.000000
     2  C   -0.488431  -0.000000
     3  C   -0.464501   0.000000
     4  C    0.320216   0.000000
     5  C    0.491719  -0.000000
     6  C   -0.081168   0.000000
     7  C   -1.096872  -0.000000
     8  C    0.397202   0.000000
     9  C    0.236447  -0.000000
    10  C   -0.742090   0.000000
    11  C   -0.079059   0.000000
    12  C   -0.387846  -0.000000
    13  C    0.656743   0.000000
    14  C   -0.186815  -0.000000
    15  O   -0.506155   0.000000
    16  O   -0.514463   0.000000
    17  Br  -0.420249   0.000000
    18  C   -0.243154  -0.000000
    19  H    0.130646   0.000000
    20  H    0.073600  -0.000000
    21  H    0.075557   0.000000
    22  H    0.124372  -0.000000
    23  H    0.197055  -0.000000
    24  H    0.093856   0.000000
    25  H    0.122399  -0.000000
    26  H    0.122391  -0.000000
    27  H    0.135528   0.000000
 Sum of Mulliken charges =  -2.00000   0.00000

 Dipole moment (field-independent basis, Debye):
    X=              9.7275    Y=              0.2529    Z=             -0.0004  Tot=              9.7308
 Quadrupole moment (field-independent basis, Debye-Ang):
   XX=           -210.3318   YY=           -177.0354   ZZ=           -130.7102
   XY=              6.0539   XZ=              0.0010   YZ=              0.0004

  Exact polarizability: 506.574  26.616 270.260  -0.090  -0.033 140.215
 Approx polarizability: 814.352  43.304 501.045  -0.053  -0.005 211.724

                      1                      2                      3
                      A                      A                      A
 Frequencies --     23.5518                47.7605               120.8128
 Red. masses --      6.7946                 5.1682                 3.2203
 Frc consts  --      0.0022                 0.0069                 0.0277
 IR Inten    --      0.5208                 4.9386                 0.0685

                      4                      5                      6
                      A                      A                      A
 Frequencies --    122.6482               131.9712               149.1107
 Red. masses --     11.0669                 5.4548                 1.8895
 Frc consts  --      0.0981                 0.0560                 0.0248
 IR Inten    --      2.2534                 3.5575                 0.2346

                      7                      8                      9
                      A                      A                      A
 Frequencies --    187.1535               204.8604               212.8763
 Red. masses --      5.3014                16.5121                 2.1997
 Frc consts  --      0.1094                 0.4083                 0.0587
 IR Inten    --      2.9466                 2.4056                 0.5175

                     10                     11                     12
                      A                      A                      A
 Frequencies --    223.6708               277.0927               286.4423
 Red. masses --      3.7133                 6.0896                 5.3211
 Frc consts  --      0.1095                 0.2755                 0.2572
 IR Inten    --      5.8127                 1.7919                 5.7896

                     13                     14                     15
                      A                      A                      A
 Frequencies --    337.2986               364.3402               377.3230
 Red. masses --      6.6486                 9.5963                 6.0917
 Frc consts  --      0.4457                 0.7505                 0.5110
 IR Inten    --      1.5434                 2.6092                 0.4808

                     16                     17                     18
                      A                      A                      A
 Frequencies --    415.3706               431.6513               460.3645
 Red. masses --      4.3375                 4.9161                 5.9457
 Frc consts  --      0.4409                 0.5397                 0.7424
 IR Inten    --      2.3943                 9.8049                 2.5615

                     19                     20                     21
                      A                      A                      A
 Frequencies --    462.1985               493.4832               495.0177
 Red. masses --      3.5218                 4.2666                11.4874
 Frc consts  --      0.4433                 0.6122                 1.6585
 IR Inten    --      2.3747                 0.2693                 1.9899

                     22                     23                     24
                      A                      A                      A
 Frequencies --    588.4477               588.7492               639.6056
 Red. masses --      4.5245                 6.3004                 6.8762
 Frc consts  --      0.9231                 1.2867                 1.6574
 IR Inten    --      0.1375                38.2236                63.2368

                     25                     26                     27
                      A                      A                      A
 Frequencies --    666.4172               684.6167               691.6584
 Red. masses --      6.3223                 1.7559                 6.4960
 Frc consts  --      1.6543                 0.4849                 1.8310
 IR Inten    --     13.9742                75.0543                10.8898

                     28                     29                     30
                      A                      A                      A
 Frequencies --    696.8846               742.6392               750.7310
 Red. masses --      4.7405                 6.1322                 2.5551
 Frc consts  --      1.3564                 1.9926                 0.8484
 IR Inten    --      0.1874                 8.4255                 9.7975

                     31                     32                     33
                      A                      A                      A
 Frequencies --    768.1186               827.1534               854.5221
 Red. masses --      1.5506                 3.6524                 6.1380
 Frc consts  --      0.5390                 1.4723                 2.6407
 IR Inten    --      0.0183                 0.0004                17.6510

                     34                     35                     36
                      A                      A                      A
 Frequencies --    904.5169               922.9068               930.2720
 Red. masses --      1.4277                 1.3727                 7.3458
 Frc consts  --      0.6882                 0.6889                 3.7455
 IR Inten    --      0.0027                12.2331                27.0921

                     37                     38                     39
                      A                      A                      A
 Frequencies --    951.1283               954.8901               960.2906
 Red. masses --      2.7871                 1.2388                 1.3692
 Frc consts  --      1.4855                 0.6655                 0.7439
 IR Inten    --     40.9732                 0.0402                 4.5107

                     40                     41                     42
                      A                      A                      A
 Frequencies --   1009.9693              1020.2690              1043.6909
 Red. masses --      2.0968                 1.6031                 1.3821
 Frc consts  --      1.2601                 0.9832                 0.8870
 IR Inten    --     93.5241                13.1659                 3.1291

                     43                     44                     45
                      A                      A                      A
 Frequencies --   1089.4518              1118.5140              1133.4683
 Red. masses --      2.5770                 1.5250                 2.2314
 Frc consts  --      1.8021                 1.1241                 1.6890
 IR Inten    --    123.1626               210.2758                14.3580

                     46                     47                     48
                      A                      A                      A
 Frequencies --   1152.7423              1201.0419              1205.2625
 Red. masses --      2.6275                 2.4412                 1.7260
 Frc consts  --      2.0571                 2.0747                 1.4772
 IR Inten    --     79.4260               204.7621                10.7485

                     49                     50                     51
                      A                      A                      A
 Frequencies --   1213.6308              1227.9848              1300.1266
 Red. masses --      2.2907                 2.7780                 3.1934
 Frc consts  --      1.9878                 2.4682                 3.1803
 IR Inten    --    210.9048               106.8066               195.4946

                     52                     53                     54
                      A                      A                      A
 Frequencies --   1328.7527              1350.5759              1364.0471
 Red. masses --      6.3397                 5.8953                 2.2933
 Frc consts  --      6.5949                 6.3357                 2.5140
 IR Inten    --      2.8016               508.2609               652.5565

                     55                     56                     57
                      A                      A                      A
 Frequencies --   1400.3307              1419.4953              1454.6656
 Red. masses --      1.4164                 3.5630                 3.2645
 Frc consts  --      1.6364                 4.2299                 4.0700
 IR Inten    --    117.3909                39.3608               136.7812

                     58                     59                     60
                      A                      A                      A
 Frequencies --   1462.2142              1463.7272              1468.2794
 Red. masses --      3.9620                 7.8228                 1.0484
 Frc consts  --      4.9910                 9.8749                 1.3316
 IR Inten    --    247.4379                84.1403                 2.1379

                     61                     62                     63
                      A                      A                      A
 Frequencies --   1480.5081              1493.0486              1512.0974
 Red. masses --      4.2163                 1.3986                 3.3279
 Frc consts  --      5.4451                 1.8370                 4.4831
 IR Inten    --     82.7442                43.8558                95.5590

                     64                     65                     66
                      A                      A                      A
 Frequencies --   1563.1475              1579.6904              1585.7794
 Red. masses --      5.8080                 8.8935                 5.3194
 Frc consts  --      8.3614                13.0757                 7.8813
 IR Inten    --     51.2650                 0.6143                 1.5705

                     67                     68                     69
                      A                      A                      A
 Frequencies --   2952.6827              2966.8447              3066.3520
 Red. masses --      1.1013                 1.0394                 1.0944
 Frc consts  --      5.6569                 5.3903                 6.0629
 IR Inten    --    107.6430               370.0757                42.8701

                     70                     71                     72
                      A                      A                      A
 Frequencies --   3087.2682              3111.3987              3140.1168
 Red. masses --      1.0824                 1.0903                 1.0878
 Frc consts  --      6.0783                 6.2188                 6.3199
 IR Inten    --     44.6587               134.3587                23.9866

                     73                     74                     75
                      A                      A                      A
 Frequencies --   3154.3172              3156.9187              3180.5785
 Red. masses --      1.0902                 1.0914                 1.0895
 Frc consts  --      6.3909                 6.4084                 6.4936
 IR Inten    --     27.4759                64.0991                11.6100

 - Thermochemistry -
 -------------------
 Temperature   298.150 Kelvin.  Pressure   1.00000 Atm.
 Atom     1 has atomic number  6 and mass  12.00000

 Molecular mass:   299.97859 amu.
 Principal axes and moments of inertia in atomic units:
                           1         2         3
     Eigenvalues --  2246.49198********************
           X            0.99968   0.02513  -0.00000
           Y           -0.02513   0.99968  -0.00000
           Z            0.00000   0.00000   1.00000
 This molecule is an asymmetric top.
 Rotational symmetry number  1.
 Warning -- assumption of classical behavior for rotation
           may cause significant error
 Rotational temperatures (Kelvin)      0.03856     0.00812     0.00671
 Rotational constants (GHZ):           0.80336     0.16918     0.13987
 Zero-point vibrational energy     498887.9 (Joules/Mol)
                                  119.23706 (Kcal/Mol)
 Warning -- explicit consideration of  23 degrees of freedom as
           vibrations may cause significant error
 Vibrational temperatures:     33.89    68.72   173.82   176.46   189.88
          (Kelvin)            214.54   269.27   294.75   306.28   321.81
                              398.67   412.13   485.30   524.20   542.88
                              597.63   621.05   662.36   665.00   710.01
                              712.22   846.65   847.08   920.25   958.83
                              985.01   995.14  1002.66  1068.49  1080.13
                             1105.15  1190.09  1229.47  1301.40  1327.86
                             1338.45  1368.46  1373.87  1381.64  1453.12
                             1467.94  1501.64  1567.48  1609.29  1630.81
                             1658.54  1728.03  1734.10  1746.14  1766.80
                             1870.59  1911.78  1943.18  1962.56  2014.76
                             2042.34  2092.94  2103.80  2105.98  2112.53
                             2130.12  2148.16  2175.57  2249.02  2272.82
                             2281.58  4248.25  4268.63  4411.80  4441.89
                             4476.61  4517.93  4538.36  4542.10  4576.14

 Zero-point correction=                           0.190016 (Hartree/Particle)
 Thermal correction to Energy=                    0.204969
 Thermal correction to Enthalpy=                  0.205913
 Thermal correction to Gibbs Free Energy=         0.146650
 Sum of electronic and zero-point Energies=          -3301.620427
 Sum of electronic and thermal Energies=             -3301.605474
 Sum of electronic and thermal Enthalpies=           -3301.604530
 Sum of electronic and thermal Free Energies=        -3301.663793

                     E (Thermal)             CV                S
                      KCal/Mol        Cal/Mol-Kelvin    Cal/Mol-Kelvin
 Total                  128.620             57.974            124.730
 Electronic               0.000              0.000              0.000
 Translational            0.889              2.981             42.993
 Rotational               0.889              2.981             34.091
 Vibrational            126.843             52.012             47.646
 Vibration     1          0.593              1.985              6.310
 Vibration     2          0.595              1.978              4.908
 Vibration     3          0.609              1.932              3.087
 Vibration     4          0.610              1.930              3.058
 Vibration     5          0.612              1.921              2.917
 Vibration     6          0.618              1.904              2.684
 Vibration     7          0.632              1.857              2.256
 Vibration     8          0.640              1.833              2.089
 Vibration     9          0.644              1.821              2.019
 Vibration    10          0.649              1.805              1.929
 Vibration    11          0.678              1.716              1.552
 Vibration    12          0.684              1.699              1.495
 Vibration    13          0.718              1.601              1.225
 Vibration    14          0.738              1.546              1.104
 Vibration    15          0.748              1.518              1.050
 Vibration    16          0.779              1.437              0.908
 Vibration    17          0.793              1.401              0.853
 Vibration    18          0.818              1.338              0.765
 Vibration    19          0.820              1.334              0.760
 Vibration    20          0.849              1.264              0.675
 Vibration    21          0.851              1.261              0.671
 Vibration    22          0.946              1.056              0.470
 Vibration    23          0.946              1.056              0.469

                           ! Non-Optimized Parameters !
 Normal termination of Gaussian 16 at Fri Dec 22 07:50:07 2023.
