 Gaussian 16, Revision A.03,
 Gaussian 16:  ES64L-G16RevA.03 25-Dec-2016

 ----------------------------------------------------------------------
 #P UB3LYP/6-311++G(d,p) nosym opt freq SCRF=(PCM,Solvent=n,n-DiMethylF
 ormamide)
 ----------------------------------------------------------------------

 --------
 Oxidized
 --------
 Symbolic Z-matrix:
 Charge =  0 Multiplicity = 1

 SCF Done:  E(UB3LYP) =  -1300.80858078     A.U. after   16 cycles
 SCF Done:  E(UB3LYP) =  -1300.80863272     A.U. after   11 cycles
 SCF Done:  E(UB3LYP) =  -1300.80863931     A.U. after   11 cycles
 Optimization completed.
    -- Stationary point found.
 Normal termination of Gaussian 16 at Sat Feb 10 10:04:50 2024.

 ----------------------------------------------------------------------
 #P Geom=AllCheck Guess=TCheck SCRF=Check GenChk UB3LYP/6-311++G(d,p) F
 req
 ----------------------------------------------------------------------

 Structure from the checkpoint file:  "011.chk"
 --------
 Oxidized
 --------
 Charge =  0 Multiplicity = 1

                          Input orientation:
 ---------------------------------------------------------------------
 Center     Atomic      Atomic             Coordinates (Angstroms)
 Number     Number       Type             X           Y           Z
 ---------------------------------------------------------------------
      1         17           0        3.003858   -0.876908   -0.192764
      2          6           0        1.369479   -0.308780   -0.084932
      3          6           0        1.075627    0.995736   -0.028923
      4          6           0       -0.328419    1.451721    0.061716
      5          8           0       -0.597896    2.642979    0.113628
      6          6           0       -1.398434    0.431039    0.089276
      7          6           0       -1.102226   -0.872969    0.033252
      8         17           0       -2.331469   -2.095071    0.060740
      9          6           0        0.310470   -1.372174   -0.056703
     10          8           0        0.577213   -2.550920   -0.102687
     11          1           0        1.838648    1.763333   -0.047157
     12          1           0       -2.416851    0.792014    0.154555
 ---------------------------------------------------------------------

 SCF Done:  E(UB3LYP) =  -1300.80863931     A.U. after    1 cycles

 Alpha  occ. eigenvalues -- -101.58482-101.58479 -19.16789 -19.15604 -10.32025
 Alpha  occ. eigenvalues --  -10.30531 -10.28574 -10.28573 -10.22972 -10.22970
 Alpha  occ. eigenvalues --   -9.49925  -9.49922  -7.26407  -7.26405  -7.25426
 Alpha  occ. eigenvalues --   -7.25423  -7.25329  -7.25326  -1.10399  -1.08515
 Alpha  occ. eigenvalues --   -0.92615  -0.91209  -0.84547  -0.78447  -0.72757
 Alpha  occ. eigenvalues --   -0.64556  -0.62642  -0.55884  -0.53098  -0.50256
 Alpha  occ. eigenvalues --   -0.48332  -0.48149  -0.47271  -0.45719  -0.44050
 Alpha  occ. eigenvalues --   -0.43629  -0.40026  -0.37917  -0.34960  -0.34287
 Alpha  occ. eigenvalues --   -0.31683  -0.31226  -0.30080  -0.29405
 Alpha virt. eigenvalues --   -0.15448  -0.05099  -0.02023  -0.01893  -0.00130
 Alpha virt. eigenvalues --    0.00904   0.01411   0.02332   0.04338   0.04347
 Alpha virt. eigenvalues --    0.05403   0.05960   0.07458   0.07468   0.08578

  Beta  occ. eigenvalues -- -101.58482-101.58479 -19.16789 -19.15604 -10.32025
  Beta  occ. eigenvalues --  -10.30531 -10.28574 -10.28573 -10.22972 -10.22970
  Beta  occ. eigenvalues --   -9.49925  -9.49922  -7.26407  -7.26405  -7.25426
  Beta  occ. eigenvalues --   -7.25423  -7.25329  -7.25326  -1.10399  -1.08515
  Beta  occ. eigenvalues --   -0.92615  -0.91209  -0.84547  -0.78447  -0.72757
  Beta  occ. eigenvalues --   -0.64556  -0.62642  -0.55884  -0.53098  -0.50256
  Beta  occ. eigenvalues --   -0.48332  -0.48149  -0.47271  -0.45719  -0.44050
  Beta  occ. eigenvalues --   -0.43629  -0.40026  -0.37917  -0.34960  -0.34287
  Beta  occ. eigenvalues --   -0.31683  -0.31226  -0.30080  -0.29405
  Beta virt. eigenvalues --   -0.15448  -0.05099  -0.02023  -0.01893  -0.00130
  Beta virt. eigenvalues --    0.00904   0.01411   0.02332   0.04338   0.04347
  Beta virt. eigenvalues --    0.05403   0.05960   0.07458   0.07468   0.08578

 Mulliken charges and spin densities:
               1          2
     1  Cl   0.331620  -0.000000
     2  C    1.046757   0.000000
     3  C   -0.255329  -0.000000
     4  C   -0.630190  -0.000000
     5  O   -0.274768   0.000000
     6  C   -0.255675   0.000000
     7  C    1.047002  -0.000000
     8  Cl   0.331695  -0.000000
     9  C   -1.690596  -0.000000
    10  O   -0.163400   0.000000
    11  H    0.256477   0.000000
    12  H    0.256407   0.000000
 Sum of Mulliken charges =  -0.00000   0.00000

 Dipole moment (field-independent basis, Debye):
    X=             -0.2501    Y=              1.1005    Z=              0.0365  Tot=              1.1292
 Quadrupole moment (field-independent basis, Debye-Ang):
   XX=            -66.4525   YY=            -88.3173   ZZ=            -69.0240
   XY=              5.2284   XZ=              0.0188   YZ=             -0.8479

  Exact polarizability: 145.788 -14.433 207.006  -4.794   5.064  66.055
 Approx polarizability: 154.738 -31.525 287.662  -5.162   8.074  77.809

                      1                      2                      3
                      A                      A                      A
 Frequencies --     58.5562               131.3729               169.5299
 Red. masses --     17.1387                10.2761                 4.9366
 Frc consts  --      0.0346                 0.1045                 0.0836
 IR Inten    --      5.6250                13.4250                 0.0017

                      4                      5                      6
                      A                      A                      A
 Frequencies --    194.9363               264.1770               310.8428
 Red. masses --     23.6334                16.0338                 5.5916
 Frc consts  --      0.5291                 0.6593                 0.3183
 IR Inten    --      0.0821                 0.5601                 0.0272

                      7                      8                      9
                      A                      A                      A
 Frequencies --    337.3574               366.9276               443.4032
 Red. masses --     17.9015                17.8689                 8.2786
 Frc consts  --      1.2004                 1.4174                 0.9590
 IR Inten    --      0.3620                 5.2738                53.7890

                     10                     11                     12
                      A                      A                      A
 Frequencies --    453.7019               484.9974               632.1059
 Red. masses --      5.2810                14.3396                 5.6460
 Frc consts  --      0.6405                 1.9873                 1.3291
 IR Inten    --      0.0858                 1.6697                 1.6550

                     13                     14                     15
                      A                      A                      A
 Frequencies --    674.8763               774.0599               787.3727
 Red. masses --      4.0288                12.4284                 6.6571
 Frc consts  --      1.0811                 4.3875                 2.4316
 IR Inten    --      0.9438               232.4348                 0.0372

                     16                     17                     18
                      A                      A                      A
 Frequencies --    802.5164               884.6625               887.5899
 Red. masses --     10.0109                 1.3473                 4.3034
 Frc consts  --      3.7987                 0.6212                 1.9975
 IR Inten    --      5.1616                 0.0045                 0.5398

                     19                     20                     21
                      A                      A                      A
 Frequencies --    921.8923              1025.2313              1144.9681
 Red. masses --      1.5379                 5.3657                 2.5017
 Frc consts  --      0.7701                 3.3229                 1.9323
 IR Inten    --     77.3368               329.8226                 0.0508

                     22                     23                     24
                      A                      A                      A
 Frequencies --   1276.0508              1295.8539              1319.9633
 Red. masses --      7.2280                 1.4907                 2.0958
 Frc consts  --      6.9343                 1.4748                 2.1514
 IR Inten    --    302.2354                51.3915                 6.7373

                     25                     26                     27
                      A                      A                      A
 Frequencies --   1624.8477              1666.6825              1691.6084
 Red. masses --      9.0069                 8.8938                10.9394
 Frc consts  --     14.0104                14.5560                18.4435
 IR Inten    --    218.8806                46.2065               820.4193

                     28                     29                     30
                      A                      A                      A
 Frequencies --   1741.7760              3209.7745              3210.5134
 Red. masses --     13.2175                 1.0938                 1.0947
 Frc consts  --     23.6257                 6.6395                 6.6478
 IR Inten    --    400.6541                 0.9796                 0.7598

 - Thermochemistry -
 -------------------
 Temperature   298.150 Kelvin.  Pressure   1.00000 Atm.
 Atom     1 has atomic number 17 and mass  34.96885

 Molecular mass:   175.94318 amu.
 Principal axes and moments of inertia in atomic units:
                           1         2         3
     Eigenvalues --  1465.223692184.673863649.88957
           X            0.97385  -0.22059   0.05436
           Y            0.22242   0.97448  -0.03025
           Z           -0.04630   0.04155   0.99806
 This molecule is an asymmetric top.
 Rotational symmetry number  1.
 Warning -- assumption of classical behavior for rotation
           may cause significant error
 Rotational temperatures (Kelvin)      0.05911     0.03965     0.02373
 Rotational constants (GHZ):           1.23172     0.82609     0.49446
 Zero-point vibrational energy     172191.4 (Joules/Mol)
                                   41.15472 (Kcal/Mol)
 Warning -- explicit consideration of  11 degrees of freedom as
           vibrations may cause significant error
 Vibrational temperatures:     84.25   189.02   243.92   280.47   380.09
          (Kelvin)            447.23   485.38   527.93   637.96   652.78
                              697.80   909.46   971.00  1113.70  1132.85
                             1154.64  1272.83  1277.04  1326.40  1475.08
                             1647.35  1835.95  1864.44  1899.13  2337.79
                             2397.98  2433.85  2506.03  4618.15  4619.21

 Zero-point correction=                           0.065584 (Hartree/Particle)
 Thermal correction to Energy=                    0.074220
 Thermal correction to Enthalpy=                  0.075164
 Thermal correction to Gibbs Free Energy=         0.030526
 Sum of electronic and zero-point Energies=          -1300.743055
 Sum of electronic and thermal Energies=             -1300.734419
 Sum of electronic and thermal Enthalpies=           -1300.733475
 Sum of electronic and thermal Free Energies=        -1300.778113

                     E (Thermal)             CV                S
                      KCal/Mol        Cal/Mol-Kelvin    Cal/Mol-Kelvin
 Total                   46.574             30.695             93.949
 Electronic               0.000              0.000              0.000
 Translational            0.889              2.981             41.402
 Rotational               0.889              2.981             30.836
 Vibrational             44.796             24.734             21.711
 Vibration     1          0.596              1.974              4.505
 Vibration     2          0.612              1.922              2.926
 Vibration     3          0.625              1.880              2.441
 Vibration     4          0.636              1.847              2.180
 Vibration     5          0.671              1.739              1.634
 Vibration     6          0.700              1.653              1.358
 Vibration     7          0.718              1.601              1.225
 Vibration     8          0.740              1.540              1.093
 Vibration     9          0.803              1.375              0.816
 Vibration    10          0.812              1.353              0.785
 Vibration    11          0.841              1.283              0.697

                           ! Non-Optimized Parameters !
 Normal termination of Gaussian 16 at Sat Feb 10 10:08:20 2024.
