 Q-Chem 5.4, Q-Chem, Inc., Pleasanton, CA (2021)
 Q-Chem 5.4.0 for Intel X86 EM64T Linux

User input:
--------------------------------------------------------------
$molecule
-1 2
C                 -2.0235500000      3.0394340000     -0.2451900000
C                 -2.9662510000      2.4982000000      0.6090560000
C                 -2.6691320000      1.3288680000      1.3380850000
C                 -0.7571280000      2.4352840000     -0.4012720000
C                 -0.4548690000      1.2537430000      0.3349120000
C                 -1.4307870000      0.7236620000      1.1967830000
C                  0.2291170000      3.0023260000     -1.2962960000
C                  1.4956950000      2.3131910000     -1.3884050000
C                  1.8186810000      1.1653760000     -0.6959120000
C                  0.8554400000      0.5800540000      0.2116760000
O                  0.0640150000      4.0520820000     -2.0008160000
O                  1.1124030000     -0.4612620000      0.8708460000
H                 -2.2286620000      3.9377800000     -0.8165320000
H                 -3.9366460000      2.9737520000      0.7193040000
H                 -3.4101900000      0.9043390000      2.0088750000
H                 -1.1748810000     -0.1756870000      1.7455380000
O                  2.3749430000      2.9056570000     -2.2480880000
H                  1.8523870000      3.6710470000     -2.5755970000
C                  3.1656890000      0.5050570000     -0.8451710000
C                  4.1618690000      0.9280380000      0.2536580000
C                  5.5095560000      0.1831400000      0.2296130000
C                  6.3347810000      0.5141940000      1.4819440000
C                  6.3236710000      0.4750260000     -1.0397140000
H                  3.5729360000      0.7409020000     -1.8316140000
H                  3.0231430000     -0.5788610000     -0.7791150000
H                  3.6822160000      0.7536930000      1.2219300000
H                  4.3454940000      2.0080430000      0.1783330000
H                  5.2902300000     -0.8936990000      0.2498620000
H                  7.2813490000     -0.0382030000      1.4978630000
H                  5.7836190000      0.2669120000      2.3942150000
H                  6.5734460000      1.5837240000      1.5181560000
H                  7.2762920000     -0.0668880000     -1.0321870000
H                  6.5479600000      1.5453730000     -1.1166560000
H                  5.7830450000      0.1866430000     -1.9440720000
$end
$rem
MAX_SCF_CYCLES=200
BASIS  =  6-311++G(d,p)
GUI  =  2
JOB_TYPE  =  SP
METHOD  =  B3LYP
SOLVENT_METHOD = COSMO
$end
$solvent
dielectric 37.219
opticaldielectric 1.43
$end

--------------------------------------------------------------

             Standard Nuclear Orientation (Angstroms)
    I     Atom           X                Y                Z
 ----------------------------------------------------------------
    1      C       3.7917467563    -0.5494131956     0.4322424021
    2      C       4.6014819721     0.5709596845     0.4534352414
    3      C       4.0580167066     1.8398885838     0.1678389126
    4      C       2.4175568215    -0.4431921467     0.1264604420
    5      C       1.8664253986     0.8383611389    -0.1620561960
    6      C       2.7111952886     1.9616548028    -0.1337965507
    7      C       1.5705790711    -1.6168218551     0.1039707044
    8      C       0.1779676109    -1.4072603702    -0.2190281365
    9      C      -0.3864423545    -0.1831219439    -0.5093250355
   10      C       0.4341983416     1.0086032377    -0.4871668556
   11      O       1.9585902391    -2.8071835799     0.3449708246
   12      O      -0.0421509835     2.1470126486    -0.7361435973
   13      H       4.1865180152    -1.5358352686     0.6482407733
   14      H       5.6571706010     0.4743275906     0.6904047322
   15      H       4.6947507264     2.7194552977     0.1846686224
   16      H       2.2663240252     2.9249377761    -0.3565610605
   17      O      -0.5583590557    -2.5565953515    -0.2189385041
   18      H       0.1195471214    -3.2306417111     0.0096517197
   19      C      -1.8518191223    -0.0460742007    -0.8358504208
   20      C      -2.7022778795     0.3406528527     0.3912904751
   21      C      -4.1852848918     0.6257351991     0.0894135136
   22      C      -4.8874990352     1.2104747741     1.3238773289
   23      C      -4.9353841097    -0.6164504603    -0.4140719916
   24      H      -2.2133252108    -0.9854705913    -1.2617501094
   25      H      -1.9609107475     0.7409588127    -1.5896667387
   26      H      -2.2565429063     1.2361860889     0.8355363551
   27      H      -2.6342395066    -0.4564209661     1.1435184348
   28      H      -4.2189427139     1.3852632575    -0.7043625427
   29      H      -5.9351765566     1.4541876486     1.1132528180
   30      H      -4.3900485424     2.1232832066     1.6651837720
   31      H      -4.8732257621     0.4945734706     2.1542075701
   32      H      -5.9867076945    -0.3867129859    -0.6218064896
   33      H      -4.9091646426    -1.4140719763     0.3375800449
   34      H      -4.4934312509    -1.0138659928    -1.3306106891
 ----------------------------------------------------------------

   10    -807.2204924746      6.87e-06  Convergence criterion met
 Total energy in the final basis set =     -807.2204924746
    4    -807.3007637039      7.88e-06  Convergence criterion met
 Total energy in the final basis set =     -807.3007637039

                    Orbital Energies (a.u.)
 --------------------------------------------------------------

 Alpha MOs
 -- Occupied --
-19.1443 -19.0892 -19.0775 -10.2255 -10.2235 -10.2227 -10.1755 -10.1732
-10.1726 -10.1716 -10.1710 -10.1696 -10.1645 -10.1636 -10.1565 -10.1532
-10.1486 -10.1480  -1.0645  -1.0029  -0.9991  -0.8592  -0.8153  -0.7963
 -0.7569  -0.7511  -0.7125  -0.6758  -0.6724  -0.6347  -0.6152  -0.5867
 -0.5699  -0.5503  -0.5374  -0.5052  -0.4851  -0.4652  -0.4550  -0.4517
 -0.4403  -0.4295  -0.4262  -0.4200  -0.4182  -0.4112  -0.3935  -0.3910
 -0.3822  -0.3773  -0.3764  -0.3706  -0.3523  -0.3490  -0.3452  -0.3389
 -0.3361  -0.3189  -0.3135  -0.3111  -0.2691  -0.2632  -0.2588  -0.2425
 -0.2284  -0.1534

 Beta MOs
 -- Occupied --
-19.1439 -19.0830 -19.0723 -10.2242 -10.2218 -10.2205 -10.1753 -10.1725
-10.1721 -10.1708 -10.1705 -10.1698 -10.1645 -10.1628 -10.1566 -10.1532
-10.1486 -10.1480  -1.0622  -0.9937  -0.9886  -0.8568  -0.8134  -0.7942
 -0.7548  -0.7491  -0.7108  -0.6758  -0.6642  -0.6332  -0.6132  -0.5846
 -0.5674  -0.5502  -0.5356  -0.5029  -0.4823  -0.4637  -0.4540  -0.4511
 -0.4356  -0.4263  -0.4215  -0.4159  -0.4150  -0.4088  -0.3916  -0.3814
 -0.3788  -0.3767  -0.3744  -0.3613  -0.3504  -0.3442  -0.3385  -0.3353
 -0.3290  -0.3176  -0.3131  -0.3108  -0.2578  -0.2518  -0.2495  -0.2376
 -0.2199

          Ground-State Mulliken Net Atomic Charges

     Atom                 Charge (a.u.)    Spin (a.u.)
  --------------------------------------------------------
      1 C                     0.116014       0.076396
      2 C                    -0.414363      -0.000212
      3 C                    -0.472978       0.072954
      4 C                     0.245355      -0.007776
      5 C                    -0.004347       0.061455
      6 C                     0.123589       0.003636
      7 C                    -0.838894       0.177899
      8 C                    -0.691562       0.056874
      9 C                     2.090218       0.044343
     10 C                    -0.834868       0.081948
     11 O                    -0.551741       0.223824
     12 O                    -0.479957       0.192884
     13 H                     0.181779      -0.003868
     14 H                     0.203950      -0.000736
     15 H                     0.200102      -0.005114
     16 H                     0.178105      -0.000200
     17 O                    -0.290688       0.016254
     18 H                     0.306117      -0.003446
     19 C                    -0.233863       0.007140
     20 C                    -0.699421       0.001633
     21 C                     0.418122       0.002703
     22 C                    -0.650975      -0.000861
     23 C                    -0.663405      -0.000135
     24 H                     0.206349      -0.000845
     25 H                     0.195530       0.002492
     26 H                     0.170473      -0.001911
     27 H                     0.161146       0.002014
     28 H                     0.139751       0.000434
     29 H                     0.155047       0.000072
     30 H                     0.140790       0.000009
     31 H                     0.146792      -0.000017
     32 H                     0.151862       0.000249
     33 H                     0.148963      -0.000002
     34 H                     0.147010      -0.000087
  --------------------------------------------------------
  Sum of atomic charges =    -1.000000

                    Cartesian Multipole Moments
 -----------------------------------------------------------------
    Charge (ESU x 10^10)
                -4.8032
    Dipole Moment (Debye)
         X      -3.3996      Y       1.5784      Z       1.1485
       Tot       3.9202
    Quadrupole Moments (Debye-Ang)
        XX    -119.1467     XY      10.9201     YY    -139.4241
        XZ      -0.1971     YZ       4.7280     ZZ    -116.0658

 Total job time:  103.85s(wall), 782.33s(cpu)
        *  Thank you very much for using Q-Chem.  Have a nice day.  *
