 Q-Chem 5.4, Q-Chem, Inc., Pleasanton, CA (2021)
 Q-Chem 5.4.0 for Intel X86 EM64T Linux

User input:
--------------------------------------------------------------
$molecule
-1 2
C                 -1.3155720000      1.9803310000      0.5654440000
C                 -2.6103440000      1.3601730000      0.2525810000
C                 -2.6828540000      0.1061860000     -0.2936330000
C                 -1.5212640000     -0.7004430000     -0.6068970000
C                 -0.2395310000     -0.0957480000     -0.2988610000
C                 -0.1652210000      1.1542160000      0.2482300000
O                 -1.2318680000      3.1300830000      1.0674270000
O                 -1.6108500000     -1.8531710000     -1.1128310000
H                  0.6460910000     -0.6786360000     -0.5206360000
I                  1.7433410000      1.9996450000      0.6885520000
C                 -3.8358960000      2.2106420000      0.5503370000
C                 -4.0523310000      3.2583600000     -0.5608030000
C                 -5.1187050000      1.4049740000      0.7936600000
H                 -3.6404150000     -0.3519640000     -0.5202350000
H                 -3.5998710000      2.7685050000      1.4627130000
H                 -4.2771880000      2.7683660000     -1.5146160000
H                 -3.1559630000      3.8682220000     -0.6853770000
H                 -4.8888480000      3.9232620000     -0.3129370000
H                 -5.4520170000      0.8838130000     -0.1098250000
H                 -5.9301290000      2.0732010000      1.1029320000
H                 -4.9774460000      0.6551840000      1.5773360000
$end
$rem
MAX_SCF_CYCLES=200
BASIS  =  6-311++G(d,p)
GUI  =  2
JOB_TYPE  =  SP
METHOD  =  B3LYP
SOLVENT_METHOD = COSMO
$end
$solvent
dielectric 37.219
opticaldielectric 1.43
$end

--------------------------------------------------------------

             Standard Nuclear Orientation (Angstroms)
    I     Atom           X                Y                Z
 ----------------------------------------------------------------
    1      C      -0.5206145984    -0.6160860840    -0.1290212176
    2      C      -1.8906379653    -0.0851224726    -0.1237913851
    3      C      -2.1302087300     1.2589418105    -0.0133926454
    4      C      -1.0834582971     2.2527780019     0.1077649427
    5      C       0.2717797622     1.7363781895     0.1012273438
    6      C       0.5128703798     0.3960477646    -0.0111568449
    7      O      -0.2837757910    -1.8467805124    -0.2301229324
    8      O      -1.3267994672     3.4868188206     0.2112300980
    9      H       1.0744620775     2.4585188417     0.1877309690
   10      I       2.5241139292    -0.3153191465    -0.0211101685
   11      C      -2.9985028201    -1.1229802392    -0.2208510587
   12      C      -3.2366500760    -1.7921599072     1.1483361720
   13      C      -4.3148874331    -0.5880870112    -0.7995795999
   14      H      -3.1428793642     1.6496730532    -0.0138827682
   15      H      -2.6200830041    -1.9047242813    -0.8879519418
   16      H      -3.6023519095    -1.0602946065     1.8770675217
   17      H      -2.3079313562    -2.2242623571     1.5247600608
   18      H      -3.9807254926    -2.5940383909     1.0668770622
   19      H      -4.7855119329     0.1449118907    -0.1360918363
   20      H      -5.0273918589    -1.4092170287    -0.9362117294
   21      H      -4.1591646711    -0.1072191331    -1.7695299735
 ----------------------------------------------------------------

   11   -7418.5420714808      4.92e-06  Convergence criterion met
 Total energy in the final basis set =    -7418.5420714808
    4   -7418.6228148319      9.82e-06  Convergence criterion met
 Total energy in the final basis set =    -7418.6228148319

                    Orbital Energies (a.u.)
 --------------------------------------------------------------

 Alpha MOs
 -- Occupied --
********-176.2902-165.6938-165.6920-165.6919 -35.7867 -31.2793 -31.2742
-31.2739 -22.9300 -22.9288 -22.9286 -22.9250 -22.9250 -19.0878 -19.0877
-10.2337 -10.2295 -10.2119 -10.1790 -10.1741 -10.1711 -10.1638 -10.1512
-10.1509  -6.3358  -4.7469  -4.7344  -4.7338  -2.0131  -2.0088  -2.0084
 -1.9978  -1.9977  -1.0135  -1.0088  -0.8393  -0.7986  -0.7404  -0.6944
 -0.6782  -0.6473  -0.6150  -0.5601  -0.5457  -0.4910  -0.4758  -0.4508
 -0.4350  -0.4229  -0.4223  -0.4044  -0.3960  -0.3916  -0.3838  -0.3741
 -0.3587  -0.3369  -0.3358  -0.3244  -0.3073  -0.2739  -0.2650  -0.2544
 -0.2440  -0.2426  -0.1710

 Beta MOs
 -- Occupied --
********-176.2902-165.6938-165.6920-165.6919 -35.7867 -31.2793 -31.2742
-31.2739 -22.9300 -22.9288 -22.9286 -22.9250 -22.9250 -19.0810 -19.0807
-10.2322 -10.2283 -10.2107 -10.1781 -10.1725 -10.1712 -10.1630 -10.1512
-10.1508  -6.3358  -4.7469  -4.7344  -4.7338  -2.0131  -2.0088  -2.0085
 -1.9978  -1.9977  -1.0017  -0.9965  -0.8338  -0.7965  -0.7383  -0.6851
 -0.6776  -0.6448  -0.6123  -0.5560  -0.5438  -0.4887  -0.4715  -0.4489
 -0.4331  -0.4169  -0.4110  -0.3998  -0.3904  -0.3865  -0.3735  -0.3613
 -0.3532  -0.3359  -0.3341  -0.3232  -0.2916  -0.2641  -0.2528  -0.2479
 -0.2387  -0.2369

          Ground-State Mulliken Net Atomic Charges

     Atom                 Charge (a.u.)    Spin (a.u.)
  --------------------------------------------------------
      1 C                    -1.998001       0.033269
      2 C                     1.438821       0.093108
      3 C                    -0.494252       0.016948
      4 C                    -0.365852       0.144040
      5 C                    -0.082895       0.115624
      6 C                     1.091607       0.110127
      7 O                    -0.403328       0.247671
      8 O                    -0.523467       0.237422
      9 H                     0.197432      -0.009664
     10 I                    -0.070443      -0.000051
     11 C                     0.187925       0.006461
     12 C                    -0.722170       0.011295
     13 C                    -0.576671      -0.001166
     14 H                     0.194789      -0.005449
     15 H                     0.195866       0.001927
     16 H                     0.150521      -0.000862
     17 H                     0.171574      -0.001898
     18 H                     0.145934       0.001781
     19 H                     0.147447      -0.000131
     20 H                     0.172408      -0.000399
     21 H                     0.142757      -0.000054
  --------------------------------------------------------
  Sum of atomic charges =    -1.000000

                    Cartesian Multipole Moments
 -----------------------------------------------------------------
    Charge (ESU x 10^10)
                -4.8032
    Dipole Moment (Debye)
         X       0.8852      Y      -4.1960      Z      -0.0751
       Tot       4.2890
    Quadrupole Moments (Debye-Ang)
        XX    -101.3611     XY      12.9045     YY    -138.9462
        XZ       1.1699     YZ      -2.6842     ZZ     -99.2197

 Total job time:  72.41s(wall), 324.86s(cpu)
        *  Thank you very much for using Q-Chem.  Have a nice day.  *
