 Gaussian 16, Revision A.03,
 Gaussian 16:  ES64L-G16RevA.03 25-Dec-2016

 -------------------------------
 #P UB3LYP/genecp nosym opt freq
 -------------------------------

 -------
 Radical
 -------
 Symbolic Z-matrix:
 Charge = -1 Multiplicity = 2

 SCF Done:  E(UB3LYP) =  -796.823909571     A.U. after   22 cycles
 Optimization completed.
    -- Stationary point found.
 Normal termination of Gaussian 16 at Sat Jan  6 19:48:23 2024.

 ------------------------------------------------------------------
 #P Geom=AllCheck Guess=TCheck SCRF=Check GenChk UB3LYP/GenECP Freq
 ------------------------------------------------------------------

 Structure from the checkpoint file:  "006-rad.chk"
 -------
 Radical
 -------
 Charge = -1 Multiplicity = 2

                          Input orientation:
 ---------------------------------------------------------------------
 Center     Atomic      Atomic             Coordinates (Angstroms)
 Number     Number       Type             X           Y           Z
 ---------------------------------------------------------------------
      1          6           0       -1.315572    1.980331    0.565444
      2          6           0       -2.610344    1.360173    0.252581
      3          6           0       -2.682854    0.106186   -0.293633
      4          6           0       -1.521264   -0.700443   -0.606897
      5          6           0       -0.239531   -0.095748   -0.298861
      6          6           0       -0.165221    1.154216    0.248230
      7          8           0       -1.231868    3.130083    1.067427
      8          8           0       -1.610850   -1.853171   -1.112831
      9          1           0        0.646091   -0.678636   -0.520636
     10         53           0        1.743341    1.999645    0.688552
     11          6           0       -3.835896    2.210642    0.550337
     12          6           0       -4.052331    3.258360   -0.560803
     13          6           0       -5.118705    1.404974    0.793660
     14          1           0       -3.640415   -0.351964   -0.520235
     15          1           0       -3.599871    2.768505    1.462713
     16          1           0       -4.277188    2.768366   -1.514616
     17          1           0       -3.155963    3.868222   -0.685377
     18          1           0       -4.888848    3.923262   -0.312937
     19          1           0       -5.452017    0.883813   -0.109825
     20          1           0       -5.930129    2.073201    1.102932
     21          1           0       -4.977446    0.655184    1.577336
 ---------------------------------------------------------------------

 SCF Done:  E(UB3LYP) =  -796.823909571     A.U. after    1 cycles

 Alpha  occ. eigenvalues --  -18.94930 -18.94580 -10.09912 -10.09216 -10.08149
 Alpha  occ. eigenvalues --  -10.06296 -10.05676 -10.05173 -10.04948 -10.04380
 Alpha  occ. eigenvalues --  -10.03696  -6.71080  -4.73437  -4.72420  -4.72360
 Alpha  occ. eigenvalues --   -1.78260  -1.77925  -1.77880  -1.76998  -1.76997
 Alpha  occ. eigenvalues --   -0.87505  -0.86612  -0.71345  -0.68262  -0.62207
 Alpha  occ. eigenvalues --   -0.57986  -0.57115  -0.54453  -0.50069  -0.43619
 Alpha  occ. eigenvalues --   -0.42958  -0.36387  -0.34631  -0.33634  -0.32804
 Alpha  occ. eigenvalues --   -0.30205  -0.28772  -0.28274  -0.27492  -0.26653
 Alpha  occ. eigenvalues --   -0.26333  -0.24786  -0.23809  -0.23391  -0.21908
 Alpha  occ. eigenvalues --   -0.20916  -0.17323  -0.14412  -0.13601  -0.11588
 Alpha  occ. eigenvalues --   -0.11351  -0.10534  -0.03394
 Alpha virt. eigenvalues --    0.07856   0.09126   0.09904   0.10619   0.11105
 Alpha virt. eigenvalues --    0.11329   0.12128   0.13245   0.13676   0.14283
 Alpha virt. eigenvalues --    0.14917   0.15424   0.16488   0.17678   0.17843

  Beta  occ. eigenvalues --  -18.94229 -18.93812 -10.09784 -10.09138 -10.08038
  Beta  occ. eigenvalues --  -10.06304 -10.05675 -10.05082 -10.04941 -10.04215
  Beta  occ. eigenvalues --  -10.03592  -6.71080  -4.73440  -4.72417  -4.72360
  Beta  occ. eigenvalues --   -1.78264  -1.77925  -1.77883  -1.76996  -1.76995
  Beta  occ. eigenvalues --   -0.86298  -0.85283  -0.70938  -0.67964  -0.61988
  Beta  occ. eigenvalues --   -0.57947  -0.56650  -0.53850  -0.49775  -0.43247
  Beta  occ. eigenvalues --   -0.42706  -0.36194  -0.34339  -0.33433  -0.32701
  Beta  occ. eigenvalues --   -0.29888  -0.28637  -0.27589  -0.26374  -0.26098
  Beta  occ. eigenvalues --   -0.26060  -0.23882  -0.23341  -0.21991  -0.21360
  Beta  occ. eigenvalues --   -0.20656  -0.16121  -0.13546  -0.11768  -0.10833
  Beta  occ. eigenvalues --   -0.10704  -0.09882
  Beta virt. eigenvalues --    0.03886   0.07860   0.09246   0.09963   0.10679
  Beta virt. eigenvalues --    0.11186   0.12105   0.12508   0.13306   0.13764
  Beta virt. eigenvalues --    0.14307   0.14933   0.16412   0.17337   0.17701

 Mulliken charges and spin densities:
               1          2
     1  C   -2.432097   0.002494
     2  C    1.661286   0.083004
     3  C   -0.296164   0.053559
     4  C   -0.605181   0.094392
     5  C    0.104246   0.136761
     6  C    1.318244   0.104264
     7  O   -0.296164   0.261987
     8  O   -0.391813   0.272436
     9  H    0.126243  -0.009690
    10  I   -0.204410  -0.003142
    11  C    0.140404   0.000365
    12  C   -0.710036   0.011856
    13  C   -0.564075  -0.001070
    14  H    0.148812  -0.006816
    15  H    0.208289   0.001827
    16  H    0.126379  -0.001197
    17  H    0.184662  -0.002512
    18  H    0.097033   0.002454
    19  H    0.124179  -0.000144
    20  H    0.134455  -0.000522
    21  H    0.125708  -0.000307
 Sum of Mulliken charges =  -1.00000   1.00000

 Dipole moment (field-independent basis, Debye):
    X=              4.4467    Y=             -3.8706    Z=             -0.1674  Tot=              5.8977
 Quadrupole moment (field-independent basis, Debye-Ang):
   XX=           -113.0610   YY=           -130.5632   ZZ=           -103.5647
   XY=             -0.9729   XZ=             -2.9836   YZ=            -12.3753

  Exact polarizability: 208.544   7.694 186.379   9.377  30.813 118.624
 Approx polarizability: 276.056  22.932 333.909  15.514  72.516 197.278

                      1                      2                      3
                      A                      A                      A
 Frequencies --     40.0598                73.7976               119.2045
 Red. masses --      3.0880                 5.4175                 6.1729
 Frc consts  --      0.0029                 0.0174                 0.0517
 IR Inten    --      1.0338                 3.0358                 2.8405

                      4                      5                      6
                      A                      A                      A
 Frequencies --    139.4547               159.3890               198.1596
 Red. masses --      6.6053                 4.9731                 4.4095
 Frc consts  --      0.0757                 0.0744                 0.1020
 IR Inten    --      5.5045                 0.4883                 0.2554

                      7                      8                      9
                      A                      A                      A
 Frequencies --    209.7917               245.5352               265.6380
 Red. masses --      6.4347                 1.1930                 1.1522
 Frc consts  --      0.1669                 0.0424                 0.0479
 IR Inten    --      0.7135                 0.1905                 0.4609

                     10                     11                     12
                      A                      A                      A
 Frequencies --    274.9189               307.7298               364.3342
 Red. masses --      2.7424                 4.0508                 4.8087
 Frc consts  --      0.1221                 0.2260                 0.3761
 IR Inten    --      1.7991                 3.6326                 2.0541

                     13                     14                     15
                      A                      A                      A
 Frequencies --    412.4187               436.6433               473.1532
 Red. masses --      3.2279                 4.7794                 8.2970
 Frc consts  --      0.3235                 0.5369                 1.0944
 IR Inten    --      8.4882                 5.0285                 2.0833

                     16                     17                     18
                      A                      A                      A
 Frequencies --    514.3483               562.7435               631.3879
 Red. masses --      5.0176                 3.4933                 5.0764
 Frc consts  --      0.7821                 0.6518                 1.1923
 IR Inten    --      0.6448                 1.8887                 1.5592

                     19                     20                     21
                      A                      A                      A
 Frequencies --    643.0055               738.9176               766.3654
 Red. masses --      2.9717                 6.2921                 7.4497
 Frc consts  --      0.7239                 2.0241                 2.5779
 IR Inten    --      0.2833                62.3417                 4.9597

                     22                     23                     24
                      A                      A                      A
 Frequencies --    817.0756               853.5844               868.9201
 Red. masses --      6.0666                 1.4116                 3.0139
 Frc consts  --      2.3863                 0.6060                 1.3407
 IR Inten    --     30.2555                 6.0665                16.5479

                     25                     26                     27
                      A                      A                      A
 Frequencies --    885.5921               927.7027               941.9523
 Red. masses --      1.5757                 1.1848                 2.6942
 Frc consts  --      0.7281                 0.6008                 1.4085
 IR Inten    --     24.7157                 3.1296                 4.0846

                     28                     29                     30
                      A                      A                      A
 Frequencies --    962.9437              1043.1434              1101.4635
 Red. masses --      1.5237                 2.7099                 1.6709
 Frc consts  --      0.8325                 1.7374                 1.1944
 IR Inten    --      1.5427                59.3280                 3.6953

                     31                     32                     33
                      A                      A                      A
 Frequencies --   1123.1465              1145.5276              1198.0635
 Red. masses --      2.4681                 3.2458                 2.0068
 Frc consts  --      1.8343                 2.5094                 1.6972
 IR Inten    --     13.7932                12.3320                 4.9169

                     34                     35                     36
                      A                      A                      A
 Frequencies --   1242.1719              1292.5685              1338.7693
 Red. masses --      1.6116                 1.6635                 1.4373
 Frc consts  --      1.4651                 1.6375                 1.5178
 IR Inten    --     15.5063                 2.2770                11.1286

                     37                     38                     39
                      A                      A                      A
 Frequencies --   1344.3003              1381.2432              1405.0389
 Red. masses --      1.9035                 1.2567                 1.2537
 Frc consts  --      2.0268                 1.4126                 1.4582
 IR Inten    --     35.5818                12.2266                 2.9456

                     40                     41                     42
                      A                      A                      A
 Frequencies --   1408.5219              1484.4861              1485.5558
 Red. masses --      2.8510                 3.2102                 1.1602
 Frc consts  --      3.3326                 4.1681                 1.5085
 IR Inten    --     32.1392                 9.1249                14.5437

                     43                     44                     45
                      A                      A                      A
 Frequencies --   1488.2012              1503.2388              1509.4454
 Red. masses --      1.1644                 1.0661                 1.2701
 Frc consts  --      1.5194                 1.4194                 1.7050
 IR Inten    --      1.9612                 3.5263                83.1377

                     46                     47                     48
                      A                      A                      A
 Frequencies --   1517.2114              1525.3260              1626.6074
 Red. masses --      3.6187                 7.3133                 7.1469
 Frc consts  --      4.9079                10.0252                11.1412
 IR Inten    --     76.0398               302.6582                39.9270

                     49                     50                     51
                      A                      A                      A
 Frequencies --   2997.6296              3008.6237              3024.2997
 Red. masses --      1.0391                 1.0359                 1.0845
 Frc consts  --      5.5015                 5.5247                 5.8440
 IR Inten    --     66.6745                83.1474                 0.9043

                     52                     53                     54
                      A                      A                      A
 Frequencies --   3052.7092              3064.6226              3079.2719
 Red. masses --      1.0996                 1.0981                 1.1005
 Frc consts  --      6.0374                 6.0764                 6.1483
 IR Inten    --      9.1416                99.3680                40.3588

                     55                     56                     57
                      A                      A                      A
 Frequencies --   3105.2680              3157.9492              3184.5819
 Red. masses --      1.0977                 1.0884                 1.0907
 Frc consts  --      6.2364                 6.3951                 6.5172
 IR Inten    --     14.7210                24.0968                 4.8356

 - Thermochemistry -
 -------------------
 Temperature   298.150 Kelvin.  Pressure   1.00000 Atm.
 Atom     1 has atomic number  6 and mass  12.00000

 Molecular mass:   275.96065 amu.
 Principal axes and moments of inertia in atomic units:
                           1         2         3
     Eigenvalues --  1806.482305529.561197063.06599
           X            0.98463  -0.15973  -0.07072
           Y            0.12808   0.93542  -0.32951
           Z            0.11878   0.31539   0.94150
 This molecule is an asymmetric top.
 Rotational symmetry number  1.
 Warning -- assumption of classical behavior for rotation
           may cause significant error
 Rotational temperatures (Kelvin)      0.04795     0.01566     0.01226
 Rotational constants (GHZ):           0.99904     0.32638     0.25552
 Zero-point vibrational energy     410760.3 (Joules/Mol)
                                   98.17406 (Kcal/Mol)
 Warning -- explicit consideration of  17 degrees of freedom as
           vibrations may cause significant error
 Vibrational temperatures:     57.64   106.18   171.51   200.64   229.33
          (Kelvin)            285.11   301.84   353.27   382.19   395.55
                              442.75   524.20   593.38   628.23   680.76
                              740.03   809.66   908.43   925.14  1063.14
                             1102.63  1175.59  1228.12  1250.18  1274.17
                             1334.76  1355.26  1385.46  1500.85  1584.76
                             1615.96  1648.16  1723.75  1787.21  1859.72
                             1926.19  1934.15  1987.30  2021.54  2026.55
                             2135.84  2137.38  2141.19  2162.83  2171.76
                             2182.93  2194.60  2340.33  4312.92  4328.74
                             4351.29  4392.17  4409.31  4430.39  4467.79
                             4543.58  4581.90

 Zero-point correction=                           0.156450 (Hartree/Particle)
 Thermal correction to Energy=                    0.168482
 Thermal correction to Enthalpy=                  0.169426
 Thermal correction to Gibbs Free Energy=         0.115915
 Sum of electronic and zero-point Energies=           -796.667459
 Sum of electronic and thermal Energies=              -796.655427
 Sum of electronic and thermal Enthalpies=            -796.654483
 Sum of electronic and thermal Free Energies=         -796.707995

                     E (Thermal)             CV                S
                      KCal/Mol        Cal/Mol-Kelvin    Cal/Mol-Kelvin
 Total                  105.724             43.974            112.624
 Electronic               0.000              0.000              1.377
 Translational            0.889              2.981             42.744
 Rotational               0.889              2.981             32.623
 Vibrational            103.947             38.013             35.880
 Vibration     1          0.594              1.981              5.256
 Vibration     2          0.599              1.966              4.049
 Vibration     3          0.609              1.933              3.113
 Vibration     4          0.615              1.914              2.811
 Vibration     5          0.621              1.892              2.557
 Vibration     6          0.637              1.842              2.150
 Vibration     7          0.642              1.826              2.045
 Vibration     8          0.660              1.770              1.762
 Vibration     9          0.671              1.736              1.624
 Vibration    10          0.677              1.720              1.565
 Vibration    11          0.698              1.659              1.375
 Vibration    12          0.738              1.546              1.104
 Vibration    13          0.776              1.443              0.918
 Vibration    14          0.797              1.390              0.837
 Vibration    15          0.830              1.310              0.729
 Vibration    16          0.869              1.218              0.623
 Vibration    17          0.918              1.112              0.518

 Optimization completed.
    -- Stationary point found.
 Normal termination of Gaussian 16 at Sat Jan  6 20:07:58 2024.
