 Q-Chem 5.4, Q-Chem, Inc., Pleasanton, CA (2021)
 Q-Chem 5.4.0 for Intel X86 EM64T Linux

User input:
--------------------------------------------------------------
$molecule
0 1
C                 -1.5704020000     -1.5506520000     -0.6407250000
C                 -1.1907760000     -0.1379610000     -0.1289980000
C                 -1.5595950000      0.0011080000      1.3697260000
C                 -2.0172300000      0.8930900000     -0.9203600000
C                  0.3121780000      0.0960540000     -0.3179050000
C                  0.8170460000      1.0805920000     -1.0817010000
C                  2.2577430000      1.3339590000     -1.2854100000
O                  2.6382960000      2.2457610000     -1.9923560000
C                  3.2215540000      0.4261550000     -0.5887630000
C                  2.7605330000     -0.5740410000      0.1868290000
Cl                 3.8059070000     -1.6630810000      1.0231640000
C                  1.2845160000     -0.8167600000      0.3820590000
O                  0.9228440000     -1.7318790000      1.0907700000
Cl                 4.8964530000      0.7429090000     -0.8424680000
H                 -1.0729420000     -2.3351480000     -0.0730640000
H                 -2.6507570000     -1.6897230000     -0.5439220000
H                 -1.3132050000     -1.6646740000     -1.6978890000
H                 -1.0617450000     -0.7492050000      1.9815250000
H                 -2.6398140000     -0.1223620000      1.4870210000
H                 -1.2948920000      0.9936370000      1.7460080000
H                 -3.0795290000      0.6945860000     -0.7610220000
H                 -1.8302620000      0.8325980000     -1.9960750000
H                 -1.8222570000      1.9174480000     -0.5910300000
H                  0.1863340000      1.7775910000     -1.6170050000
$end
$rem
MAX_SCF_CYCLES=200
BASIS  =  6-311++G(d,p)
GUI  =  2
JOB_TYPE  =  SP
METHOD  =  B3LYP
SOLVENT_METHOD = PCM
$end
$pcm
theory = CPCM
$end
$solvent
dielectric 37.219
opticaldielectric 1.43
$end

--------------------------------------------------------------

             Standard Nuclear Orientation (Angstroms)
    I     Atom           X                Y                Z
 ----------------------------------------------------------------
    1      C      -1.5704020000    -1.5506520000    -0.6407250000
    2      C      -1.1907760000    -0.1379610000    -0.1289980000
    3      C      -1.5595950000     0.0011080000     1.3697260000
    4      C      -2.0172300000     0.8930900000    -0.9203600000
    5      C       0.3121780000     0.0960540000    -0.3179050000
    6      C       0.8170460000     1.0805920000    -1.0817010000
    7      C       2.2577430000     1.3339590000    -1.2854100000
    8      O       2.6382960000     2.2457610000    -1.9923560000
    9      C       3.2215540000     0.4261550000    -0.5887630000
   10      C       2.7605330000    -0.5740410000     0.1868290000
   11      Cl      3.8059070000    -1.6630810000     1.0231640000
   12      C       1.2845160000    -0.8167600000     0.3820590000
   13      O       0.9228440000    -1.7318790000     1.0907700000
   14      Cl      4.8964530000     0.7429090000    -0.8424680000
   15      H      -1.0729420000    -2.3351480000    -0.0730640000
   16      H      -2.6507570000    -1.6897230000    -0.5439220000
   17      H      -1.3132050000    -1.6646740000    -1.6978890000
   18      H      -1.0617450000    -0.7492050000     1.9815250000
   19      H      -2.6398140000    -0.1223620000     1.4870210000
   20      H      -1.2948920000     0.9936370000     1.7460080000
   21      H      -3.0795290000     0.6945860000    -0.7610220000
   22      H      -1.8302620000     0.8325980000    -1.9960750000
   23      H      -1.8222570000     1.9174480000    -0.5910300000
   24      H       0.1863340000     1.7775910000    -1.6170050000
 ----------------------------------------------------------------

    8   -1458.1075764763      9.50e-06  Convergence criterion met
 Total energy in the final basis set =    -1458.1075764763

                    Orbital Energies (a.u.)
 --------------------------------------------------------------

 Alpha MOs
 -- Occupied --
********-101.5841 -19.1552 -19.1531 -10.3076 -10.3033 -10.2814 -10.2797
-10.2278 -10.2105 -10.2058 -10.1602 -10.1594 -10.1594  -9.4993  -9.4987
 -7.2640  -7.2636  -7.2545  -7.2537  -7.2533  -7.2525  -1.0926  -1.0876
 -0.9368  -0.8839  -0.8677  -0.8167  -0.7638  -0.7145  -0.6901  -0.6896
 -0.6397  -0.6227  -0.5617  -0.5494  -0.5155  -0.4937  -0.4789  -0.4771
 -0.4649  -0.4619  -0.4444  -0.4407  -0.4404  -0.4179  -0.4040  -0.3858
 -0.3834  -0.3688  -0.3655  -0.3621  -0.3527  -0.3441  -0.3405  -0.3322
 -0.3078  -0.3030  -0.2919  -0.2815

          Ground-State Mulliken Net Atomic Charges

     Atom                 Charge (a.u.)
  ----------------------------------------
      1 C                    -0.718450
      2 C                     0.442217
      3 C                    -0.718105
      4 C                    -0.513808
      5 C                     0.937506
      6 C                    -0.313971
      7 C                    -0.900097
      8 O                    -0.239793
      9 C                     0.899801
     10 C                    -0.199517
     11 Cl                    0.464515
     12 C                    -1.176591
     13 O                    -0.183661
     14 Cl                    0.424999
     15 H                     0.178121
     16 H                     0.178758
     17 H                     0.156880
     18 H                     0.178250
     19 H                     0.178831
     20 H                     0.156728
     21 H                     0.194092
     22 H                     0.150621
     23 H                     0.150991
     24 H                     0.271681
  ----------------------------------------
  Sum of atomic charges =     0.000000

                    Cartesian Multipole Moments
 -----------------------------------------------------------------
    Charge (ESU x 10^10)
                 0.0000
    Dipole Moment (Debye)
         X      -3.7095      Y       0.0699      Z      -0.0339
       Tot       3.7103
    Quadrupole Moments (Debye-Ang)
        XX    -102.5646     XY      -5.8001     YY    -106.8393
        XZ       5.4184     YZ       8.9125     ZZ    -102.2240

 Total job time:  62.01s(wall), 213.54s(cpu)
        *  Thank you very much for using Q-Chem.  Have a nice day.  *
