 Gaussian 16, Revision A.03,
 Gaussian 16:  ES64L-G16RevA.03 25-Dec-2016

 ----------------------------------------------------------------
 #P UB3LYP/6-311++G(d,p) SCRF=(PCM,Solvent=n,n-DiMethylFormamide)
 ----------------------------------------------------------------

 ------------------
 Radical PCM in DMF
 ------------------
 Symbolic Z-matrix:
 Charge = -1 Multiplicity = 2

                         Standard orientation:
 ---------------------------------------------------------------------
 Center     Atomic      Atomic             Coordinates (Angstroms)
 Number     Number       Type             X           Y           Z
 ---------------------------------------------------------------------
      1          6           0       -3.791747    0.549413    0.432242
      2          6           0       -4.601482   -0.570960    0.453435
      3          6           0       -4.058017   -1.839889    0.167839
      4          6           0       -2.417557    0.443192    0.126460
      5          6           0       -1.866425   -0.838361   -0.162056
      6          6           0       -2.711195   -1.961655   -0.133797
      7          6           0       -1.570579    1.616822    0.103971
      8          6           0       -0.177968    1.407260   -0.219028
      9          6           0        0.386442    0.183122   -0.509325
     10          6           0       -0.434198   -1.008603   -0.487167
     11          8           0       -1.958590    2.807184    0.344971
     12          8           0        0.042151   -2.147013   -0.736144
     13          1           0       -4.186518    1.535835    0.648241
     14          1           0       -5.657171   -0.474328    0.690405
     15          1           0       -4.694751   -2.719455    0.184669
     16          1           0       -2.266324   -2.924938   -0.356561
     17          8           0        0.558359    2.556595   -0.218939
     18          1           0       -0.119547    3.230642    0.009652
     19          6           0        1.851819    0.046074   -0.835850
     20          6           0        2.702278   -0.340653    0.391290
     21          6           0        4.185285   -0.625735    0.089414
     22          6           0        4.887499   -1.210475    1.323877
     23          6           0        4.935384    0.616450   -0.414072
     24          1           0        2.213325    0.985471   -1.261750
     25          1           0        1.960911   -0.740959   -1.589667
     26          1           0        2.256543   -1.236186    0.835536
     27          1           0        2.634240    0.456421    1.143518
     28          1           0        4.218943   -1.385263   -0.704363
     29          1           0        5.935177   -1.454188    1.113253
     30          1           0        4.390049   -2.123283    1.665184
     31          1           0        4.873226   -0.494573    2.154208
     32          1           0        5.986708    0.386713   -0.621806
     33          1           0        4.909165    1.414072    0.337580
     34          1           0        4.493431    1.013866   -1.330611
 ---------------------------------------------------------------------

 SCF Done:  E(UB3LYP) =  -807.293624016     A.U. after   20 cycles

 The electronic state is 2-A.
 Alpha  occ. eigenvalues --  -19.14249 -19.08513 -19.07304 -10.22207 -10.22034
 Alpha  occ. eigenvalues --  -10.21983 -10.17398 -10.17252 -10.17175 -10.17140
 Alpha  occ. eigenvalues --  -10.17062 -10.16910 -10.16700 -10.16152 -10.15708
 Alpha  occ. eigenvalues --  -10.15503 -10.15166 -10.15108  -1.06245  -0.99849
 Alpha  occ. eigenvalues --   -0.99496  -0.85793  -0.81525  -0.79692  -0.75661
 Alpha  occ. eigenvalues --   -0.75027  -0.71244  -0.67859  -0.67072  -0.63479
 Alpha  occ. eigenvalues --   -0.61438  -0.58639  -0.56866  -0.55257  -0.53612
 Alpha  occ. eigenvalues --   -0.50367  -0.48361  -0.46524  -0.45480  -0.45242
 Alpha  occ. eigenvalues --   -0.43976  -0.42918  -0.42582  -0.41867  -0.41658
 Alpha  occ. eigenvalues --   -0.41031  -0.39184  -0.38805  -0.38247  -0.37960
 Alpha  occ. eigenvalues --   -0.37576  -0.36958  -0.35384  -0.34823  -0.34296
 Alpha  occ. eigenvalues --   -0.33898  -0.33627  -0.32058  -0.31541  -0.31311
 Alpha  occ. eigenvalues --   -0.26647  -0.25896  -0.25732  -0.23825  -0.22670
 Alpha  occ. eigenvalues --   -0.15005
 Alpha virt. eigenvalues --   -0.03231  -0.00807  -0.00455   0.00236   0.00781
 Alpha virt. eigenvalues --    0.01439   0.01730   0.02108   0.03347   0.03626
 Alpha virt. eigenvalues --    0.03771   0.04353   0.04391   0.04965   0.05277

  Beta  occ. eigenvalues --  -19.14202 -19.07885 -19.06773 -10.22074 -10.21932
  Beta  occ. eigenvalues --  -10.21698 -10.17382 -10.17248 -10.17066 -10.17051
  Beta  occ. eigenvalues --  -10.17011 -10.16934 -10.16698 -10.16072 -10.15715
  Beta  occ. eigenvalues --  -10.15494 -10.15165 -10.15108  -1.06031  -0.98921
  Beta  occ. eigenvalues --   -0.98433  -0.85558  -0.81365  -0.79454  -0.75457
  Beta  occ. eigenvalues --   -0.74824  -0.71087  -0.67859  -0.66257  -0.63320
  Beta  occ. eigenvalues --   -0.61242  -0.58422  -0.56620  -0.55243  -0.53438
  Beta  occ. eigenvalues --   -0.50137  -0.48104  -0.46383  -0.45388  -0.45170
  Beta  occ. eigenvalues --   -0.43667  -0.42613  -0.42138  -0.41496  -0.41255
  Beta  occ. eigenvalues --   -0.40684  -0.38964  -0.38213  -0.37893  -0.37686
  Beta  occ. eigenvalues --   -0.37379  -0.36107  -0.35120  -0.34285  -0.33902
  Beta  occ. eigenvalues --   -0.33459  -0.32651  -0.31913  -0.31488  -0.31265
  Beta  occ. eigenvalues --   -0.25345  -0.25026  -0.24681  -0.23322  -0.21777
  Beta virt. eigenvalues --   -0.08477  -0.02477  -0.00518   0.00157   0.00458
  Beta virt. eigenvalues --    0.00801   0.01452   0.01740   0.02112   0.03363
  Beta virt. eigenvalues --    0.03633   0.03804   0.04379   0.04434   0.05212

 Mulliken charges and spin densities:
               1          2
     1  C    0.122824   0.075975
     2  C   -0.397570  -0.000808
     3  C   -0.442714   0.073386
     4  C    0.259609  -0.005489
     5  C    0.031461   0.064467
     6  C    0.123127   0.002156
     7  C   -0.903773   0.170047
     8  C   -0.676179   0.056928
     9  C    2.116489   0.046866
    10  C   -0.884494   0.075170
    11  O   -0.522005   0.229526
    12  O   -0.450189   0.197296
    13  H    0.166712  -0.004050
    14  H    0.182214  -0.000637
    15  H    0.178668  -0.005166
    16  H    0.164962  -0.000243
    17  O   -0.276310   0.015890
    18  H    0.288805  -0.003671
    19  C   -0.245252   0.006265
    20  C   -0.695211   0.002005
    21  C    0.441183   0.002633
    22  C   -0.638397  -0.000896
    23  C   -0.647766  -0.000177
    24  H    0.203529  -0.000905
    25  H    0.192178   0.002578
    26  H    0.166031  -0.001980
    27  H    0.155384   0.002121
    28  H    0.134524   0.000484
    29  H    0.148455   0.000055
    30  H    0.134815   0.000006
    31  H    0.140136  -0.000010
    32  H    0.145684   0.000275
    33  H    0.142925  -0.000009
    34  H    0.140145  -0.000088
 Sum of Mulliken charges =  -1.00000   1.00000

 Dipole moment (field-independent basis, Debye):
    X=              3.5373    Y=             -1.5185    Z=              1.0826  Tot=              3.9988
 Quadrupole moment (field-independent basis, Debye-Ang):
   XX=           -121.3998   YY=           -139.1796   ZZ=           -116.1400
   XY=             10.0711   XZ=              0.3495   YZ=             -4.5407

 Normal termination of Gaussian 16 at Sun Jan 21 08:44:40 2024.
