 Gaussian 16, Revision A.03,
 Gaussian 16:  ES64L-G16RevA.03 25-Dec-2016

 ----------------------------------------------------------------
 #P UB3LYP/6-311++G(d,p) SCRF=(PCM,Solvent=n,n-DiMethylFormamide)
 ----------------------------------------------------------------

 ------------------
 Radical PCM in DMF
 ------------------
 Symbolic Z-matrix:
 Charge = -1 Multiplicity = 2

                         Standard orientation:
 ---------------------------------------------------------------------
 Center     Atomic      Atomic             Coordinates (Angstroms)
 Number     Number       Type             X           Y           Z
 ---------------------------------------------------------------------
      1          8           0       -0.000266    2.623911   -0.000118
      2          6           0        0.000297    1.359008   -0.000140
      3          6           0       -1.226434    0.575001   -0.000158
      4          6           0       -2.505156    1.184518   -0.000139
      5          6           0       -3.670492    0.423334    0.000072
      6          6           0       -3.607105   -0.972000    0.000252
      7          6           0       -2.349202   -1.603890    0.000186
      8          6           0       -1.193563   -0.838347   -0.000056
      9          8           0       -0.000124   -1.529693   -0.000179
     10          6           0        1.193718   -0.837930   -0.000162
     11          6           0        2.348803   -1.604092   -0.000199
     12          6           0        3.607040   -0.972287    0.000003
     13          6           0        3.670453    0.423043    0.000282
     14          6           0        2.505547    1.184770    0.000259
     15          6           0        1.226392    0.575507   -0.000008
     16          1           0       -2.531437    2.267697   -0.000220
     17          1           0       -4.636727    0.920342    0.000116
     18          1           0       -4.512439   -1.569675    0.000443
     19          1           0       -2.257858   -2.684680    0.000297
     20          1           0        2.257259   -2.684784   -0.000335
     21          1           0        4.512578   -1.569649   -0.000017
     22          1           0        4.637110    0.919348    0.000478
     23          1           0        2.532863    2.267848    0.000454
 ---------------------------------------------------------------------

 SCF Done:  E(UB3LYP) =  -650.938181151     A.U. after   19 cycles

 The electronic state is 2-A.
 Alpha  occ. eigenvalues --  -19.16890 -19.05373 -10.23186 -10.23185 -10.20255
 Alpha  occ. eigenvalues --  -10.16671 -10.16670 -10.16509 -10.16503 -10.16402
 Alpha  occ. eigenvalues --  -10.16401 -10.16349 -10.16346 -10.15947 -10.15945
 Alpha  occ. eigenvalues --   -1.08781  -0.97791  -0.85469  -0.84176  -0.76708
 Alpha  occ. eigenvalues --   -0.76184  -0.73784  -0.72270  -0.64782  -0.63278
 Alpha  occ. eigenvalues --   -0.58944  -0.58476  -0.54617  -0.54103  -0.48979
 Alpha  occ. eigenvalues --   -0.47642  -0.46061  -0.45270  -0.45210  -0.42555
 Alpha  occ. eigenvalues --   -0.42515  -0.41057  -0.39659  -0.38473  -0.37602
 Alpha  occ. eigenvalues --   -0.37189  -0.36753  -0.34902  -0.34410  -0.33025
 Alpha  occ. eigenvalues --   -0.32338  -0.26005  -0.25129  -0.24950  -0.22767
 Alpha  occ. eigenvalues --   -0.22249  -0.10568
 Alpha virt. eigenvalues --   -0.01634  -0.00844  -0.00226   0.00492   0.00607
 Alpha virt. eigenvalues --    0.01283   0.02152   0.02456   0.04083   0.04438
 Alpha virt. eigenvalues --    0.04447   0.04545   0.05420   0.06471   0.06821

  Beta  occ. eigenvalues --  -19.16796 -19.04894 -10.23098 -10.23097 -10.19856
  Beta  occ. eigenvalues --  -10.16744 -10.16742 -10.16446 -10.16443 -10.16408
  Beta  occ. eigenvalues --  -10.16407 -10.16262 -10.16255 -10.15715 -10.15713
  Beta  occ. eigenvalues --   -1.08605  -0.96863  -0.85258  -0.83920  -0.76276
  Beta  occ. eigenvalues --   -0.75946  -0.73514  -0.72053  -0.64098  -0.63244
  Beta  occ. eigenvalues --   -0.58679  -0.58155  -0.54421  -0.53776  -0.48804
  Beta  occ. eigenvalues --   -0.47526  -0.45917  -0.45135  -0.44647  -0.42429
  Beta  occ. eigenvalues --   -0.42382  -0.40901  -0.39155  -0.38363  -0.37097
  Beta  occ. eigenvalues --   -0.36157  -0.35839  -0.34791  -0.34288  -0.32203
  Beta  occ. eigenvalues --   -0.31778  -0.25359  -0.24090  -0.23589  -0.22347
  Beta  occ. eigenvalues --   -0.21443
  Beta virt. eigenvalues --   -0.04853  -0.00952  -0.00224   0.00115   0.00484
  Beta virt. eigenvalues --    0.01282   0.01307   0.02156   0.02442   0.04112
  Beta virt. eigenvalues --    0.04436   0.04534   0.04583   0.06526   0.06759

 Mulliken charges and spin densities:
               1          2
     1  O   -0.562271   0.186439
     2  C   -0.339078   0.255201
     3  C    1.082042  -0.062343
     4  C    0.234561   0.207852
     5  C   -0.315616  -0.067198
     6  C   -0.399008   0.176877
     7  C   -0.384859  -0.018344
     8  C   -0.893842   0.055632
     9  O   -0.121775   0.020037
    10  C   -0.894544   0.056135
    11  C   -0.384339  -0.018630
    12  C   -0.399447   0.178083
    13  C   -0.315272  -0.067613
    14  C    0.232731   0.208772
    15  C    1.080861  -0.062287
    16  H    0.168552  -0.014421
    17  H    0.168415   0.004288
    18  H    0.171900  -0.013064
    19  H    0.181135  -0.001053
    20  H    0.181138  -0.001045
    21  H    0.171848  -0.013157
    22  H    0.168376   0.004316
    23  H    0.168494  -0.014477
 Sum of Mulliken charges =  -1.00000   1.00000

 Dipole moment (field-independent basis, Debye):
    X=             -0.0072    Y=             -6.5120    Z=              0.0006  Tot=              6.5120
 Quadrupole moment (field-independent basis, Debye-Ang):
   XX=            -96.3097   YY=           -109.6904   ZZ=            -96.1361
   XY=              0.0044   XZ=             -0.0002   YZ=              0.0010

 Normal termination of Gaussian 16 at Sat Jan 13 19:18:09 2024.
