 Gaussian 16, Revision A.03,
 Gaussian 16:  ES64L-G16RevA.03 25-Dec-2016

 ----------------------------------------------------------------------
 #P UB3LYP/6-311++G(d,p) nosym opt freq SCRF=(PCM,Solvent=n,n-DiMethylF
 ormamide)
 ----------------------------------------------------------------------

 --------
 Oxidized
 --------
 Symbolic Z-matrix:
 Charge =  0 Multiplicity = 1

 SCF Done:  E(UB3LYP) =  -965.385767101     A.U. after   15 cycles
 SCF Done:  E(UB3LYP) =  -965.385860260     A.U. after   13 cycles
 SCF Done:  E(UB3LYP) =  -965.385858426     A.U. after   12 cycles
 SCF Done:  E(UB3LYP) =  -965.385837119     A.U. after   12 cycles
 SCF Done:  E(UB3LYP) =  -965.385876829     A.U. after   12 cycles
 SCF Done:  E(UB3LYP) =  -965.385877998     A.U. after   11 cycles
 SCF Done:  E(UB3LYP) =  -965.385882045     A.U. after   10 cycles
 SCF Done:  E(UB3LYP) =  -965.385884286     A.U. after   11 cycles
 SCF Done:  E(UB3LYP) =  -965.385889072     A.U. after   11 cycles
 SCF Done:  E(UB3LYP) =  -965.385891586     A.U. after   11 cycles
 SCF Done:  E(UB3LYP) =  -965.385894326     A.U. after   10 cycles
 SCF Done:  E(UB3LYP) =  -965.385895256     A.U. after   10 cycles
 SCF Done:  E(UB3LYP) =  -965.385895402     A.U. after    9 cycles
 SCF Done:  E(UB3LYP) =  -965.385895491     A.U. after    9 cycles
 SCF Done:  E(UB3LYP) =  -965.385895520     A.U. after    8 cycles
 SCF Done:  E(UB3LYP) =  -965.385895528     A.U. after    8 cycles
 SCF Done:  E(UB3LYP) =  -965.385895529     A.U. after    8 cycles
 SCF Done:  E(UB3LYP) =  -965.385895528     A.U. after    8 cycles
 Optimization completed.
    -- Stationary point found.
 Normal termination of Gaussian 16 at Sun Feb 11 04:52:45 2024.

 ----------------------------------------------------------------------
 #P Geom=AllCheck Guess=TCheck SCRF=Check GenChk UB3LYP/6-311++G(d,p) F
 req
 ----------------------------------------------------------------------

 Structure from the checkpoint file:  "251.chk"
 --------
 Oxidized
 --------
 Charge =  0 Multiplicity = 1

                          Input orientation:
 ---------------------------------------------------------------------
 Center     Atomic      Atomic             Coordinates (Angstroms)
 Number     Number       Type             X           Y           Z
 ---------------------------------------------------------------------
      1          6           0        2.156580   -2.523423   -4.047522
      2          6           0        1.271236   -3.055241   -4.981100
      3          6           0       -0.042788   -2.586482   -5.046640
      4          6           0        1.732213   -1.519630   -3.173519
      5          6           0        0.412615   -1.048492   -3.239884
      6          6           0       -0.471176   -1.585741   -4.178740
      7          6           0        2.678188   -0.954339   -2.173694
      8          6           0        2.189961    0.102303   -1.235760
      9          6           0        0.923802    0.580456   -1.324366
     10          6           0       -0.043782    0.023655   -2.314569
     11          8           0        3.839436   -1.342373   -2.120333
     12          8           0       -1.194910    0.443395   -2.359373
     13          1           0        1.603228   -3.834207   -5.657330
     14          1           0       -0.730726   -3.001318   -5.773943
     15          6           0        3.185902    0.612862   -0.232101
     16          1           0        3.177575   -2.878072   -3.985556
     17          1           0       -1.486634   -1.212611   -4.219107
     18          1           0        3.628010    1.555443   -0.574380
     19          1           0        3.997964   -0.100623   -0.103907
     20          1           0        2.714635    0.798404    0.733216
     21          6           0        0.395043    1.674838   -0.421376
     22          6           0       -0.208585    1.116998    0.850610
     23          6           0       -0.010295    1.532411    2.110284
     24          6           0       -0.735416    0.847233    3.251495
     25          6           0        0.896516    2.671571    2.506133
     26          6           0       -1.791755    1.734396    3.956929
     27          6           0       -2.436256    1.030966    5.120262
     28          6           0       -3.718973    0.671823    5.275344
     29          6           0       -4.814472    0.925352    4.269802
     30          6           0       -4.176940   -0.040091    6.526112
     31          1           0       -0.379872    2.215691   -0.972421
     32          1           0        1.190932    2.386361   -0.204519
     33          1           0       -0.897094    0.288644    0.695852
     34          1           0        0.000317    0.523959    3.999939
     35          1           0       -1.229011   -0.056301    2.882025
     36          1           0        1.506784    3.041770    1.682557
     37          1           0        1.567552    2.361394    3.314615
     38          1           0        0.317701    3.518936    2.888670
     39          1           0       -2.532352    2.055382    3.220739
     40          1           0       -1.303347    2.644410    4.325230
     41          1           0       -1.749427    0.778333    5.928504
     42          1           0       -4.465510    1.422073    3.365008
     43          1           0       -5.604610    1.543216    4.712563
     44          1           0       -5.288090   -0.018803    3.976764
     45          1           0       -3.354514   -0.202966    7.225830
     46          1           0       -4.618978   -1.013478    6.282394
     47          1           0       -4.956340    0.534892    7.040262
 ---------------------------------------------------------------------

 SCF Done:  E(UB3LYP) =  -965.385895528     A.U. after    2 cycles

 Alpha  occ. eigenvalues --  -19.13445 -19.13413 -10.28283 -10.28256 -10.21536
 Alpha  occ. eigenvalues --  -10.21273 -10.20802 -10.20750 -10.19891 -10.19866
 Alpha  occ. eigenvalues --  -10.19830 -10.19803 -10.18330 -10.18171 -10.17772
 Alpha  occ. eigenvalues --  -10.17338 -10.17069 -10.17016 -10.16935 -10.16531
 Alpha  occ. eigenvalues --  -10.16203 -10.16131 -10.16113  -1.06658  -1.06464
 Alpha  occ. eigenvalues --   -0.89114  -0.85640  -0.82837  -0.81148  -0.79003
 Alpha  occ. eigenvalues --   -0.77859  -0.76689  -0.74364  -0.71225  -0.69250
 Alpha  occ. eigenvalues --   -0.68872  -0.68151  -0.66224  -0.63341  -0.61803
 Alpha  occ. eigenvalues --   -0.60106  -0.58507  -0.55254  -0.52642  -0.52170
 Alpha  occ. eigenvalues --   -0.51707  -0.50114  -0.48397  -0.47526  -0.46386
 Alpha  occ. eigenvalues --   -0.46194  -0.45993  -0.45672  -0.45225  -0.44353
 Alpha  occ. eigenvalues --   -0.43540  -0.43266  -0.42625  -0.42209  -0.41746
 Alpha  occ. eigenvalues --   -0.41235  -0.40947  -0.40457  -0.39542  -0.38896
 Alpha  occ. eigenvalues --   -0.38499  -0.37883  -0.37711  -0.37381  -0.37168
 Alpha  occ. eigenvalues --   -0.36897  -0.36743  -0.35812  -0.35087  -0.33454
 Alpha  occ. eigenvalues --   -0.32354  -0.29210  -0.29036  -0.27932  -0.27755
 Alpha  occ. eigenvalues --   -0.27310  -0.24998  -0.23447
 Alpha virt. eigenvalues --   -0.12514  -0.05725  -0.03205  -0.01081  -0.00429
 Alpha virt. eigenvalues --    0.00010   0.00335   0.00733   0.00905   0.01177
 Alpha virt. eigenvalues --    0.01708   0.01850   0.02352   0.02631   0.03070

  Beta  occ. eigenvalues --  -19.13445 -19.13413 -10.28283 -10.28256 -10.21536
  Beta  occ. eigenvalues --  -10.21273 -10.20802 -10.20750 -10.19891 -10.19866
  Beta  occ. eigenvalues --  -10.19830 -10.19803 -10.18330 -10.18171 -10.17772
  Beta  occ. eigenvalues --  -10.17338 -10.17069 -10.17016 -10.16935 -10.16531
  Beta  occ. eigenvalues --  -10.16203 -10.16131 -10.16113  -1.06658  -1.06464
  Beta  occ. eigenvalues --   -0.89114  -0.85640  -0.82837  -0.81148  -0.79003
  Beta  occ. eigenvalues --   -0.77859  -0.76689  -0.74364  -0.71225  -0.69250
  Beta  occ. eigenvalues --   -0.68872  -0.68151  -0.66224  -0.63341  -0.61803
  Beta  occ. eigenvalues --   -0.60106  -0.58507  -0.55254  -0.52642  -0.52170
  Beta  occ. eigenvalues --   -0.51707  -0.50114  -0.48397  -0.47526  -0.46386
  Beta  occ. eigenvalues --   -0.46194  -0.45993  -0.45672  -0.45225  -0.44353
  Beta  occ. eigenvalues --   -0.43540  -0.43266  -0.42625  -0.42209  -0.41746
  Beta  occ. eigenvalues --   -0.41235  -0.40947  -0.40457  -0.39542  -0.38896
  Beta  occ. eigenvalues --   -0.38499  -0.37883  -0.37711  -0.37381  -0.37168
  Beta  occ. eigenvalues --   -0.36897  -0.36743  -0.35812  -0.35087  -0.33454
  Beta  occ. eigenvalues --   -0.32354  -0.29210  -0.29036  -0.27932  -0.27755
  Beta  occ. eigenvalues --   -0.27310  -0.24998  -0.23447
  Beta virt. eigenvalues --   -0.12514  -0.05725  -0.03205  -0.01081  -0.00429
  Beta virt. eigenvalues --    0.00010   0.00335   0.00733   0.00905   0.01177
  Beta virt. eigenvalues --    0.01708   0.01850   0.02352   0.02631   0.03070

 Mulliken charges and spin densities:
               1          2
     1  C    0.189451   0.000000
     2  C   -0.457023  -0.000000
     3  C   -0.396810   0.000000
     4  C   -0.021923   0.000000
     5  C    0.271076  -0.000000
     6  C    0.066579   0.000000
     7  C   -0.863864  -0.000000
     8  C    0.768676  -0.000000
     9  C    1.041128   0.000000
    10  C   -0.891421   0.000000
    11  O   -0.275232   0.000000
    12  O   -0.257816   0.000000
    13  H    0.202952  -0.000000
    14  H    0.207092  -0.000000
    15  C   -0.488205  -0.000000
    16  H    0.192329   0.000000
    17  H    0.189622   0.000000
    18  H    0.222877  -0.000000
    19  H    0.180264   0.000000
    20  H    0.169379  -0.000000
    21  C   -0.235782  -0.000000
    22  C   -0.997504  -0.000000
    23  C    1.243261   0.000000
    24  C   -0.814378  -0.000000
    25  C   -0.724247   0.000000
    26  C   -0.319726  -0.000000
    27  C   -0.030532   0.000000
    28  C    0.351124  -0.000000
    29  C   -0.661225   0.000000
    30  C   -0.641752   0.000000
    31  H    0.235070  -0.000000
    32  H    0.187698   0.000000
    33  H    0.227510   0.000000
    34  H    0.162149  -0.000000
    35  H    0.158362   0.000000
    36  H    0.113365   0.000000
    37  H    0.179809   0.000000
    38  H    0.178968  -0.000000
    39  H    0.131368   0.000000
    40  H    0.137700   0.000000
    41  H    0.183637   0.000000
    42  H    0.137732   0.000000
    43  H    0.145959   0.000000
    44  H    0.149853   0.000000
    45  H    0.154473  -0.000000
    46  H    0.151122   0.000000
    47  H    0.146856   0.000000
 Sum of Mulliken charges =  -0.00000  -0.00000

 Dipole moment (field-independent basis, Debye):
    X=             -0.4074    Y=             -0.1298    Z=             -0.0404  Tot=              0.4295
 Quadrupole moment (field-independent basis, Debye-Ang):
   XX=           -149.3865   YY=           -131.3139   ZZ=           -122.3719
   XY=              8.8687   XZ=              1.1805   YZ=             13.0866

  Exact polarizability: 405.991 -18.084 301.876   2.958  72.823 364.034
 Approx polarizability: 491.284 -37.797 339.163  21.354  68.865 375.007

                      1                      2                      3
                      A                      A                      A
 Frequencies --     13.9150                14.5865                23.8561
 Red. masses --      3.3041                 4.7533                 4.8155
 Frc consts  --      0.0004                 0.0006                 0.0016
 IR Inten    --      0.1192                 0.3579                 1.0638

                      4                      5                      6
                      A                      A                      A
 Frequencies --     34.9991                37.1371                53.7159
 Red. masses --      3.9156                 2.6434                 4.9821
 Frc consts  --      0.0028                 0.0021                 0.0085
 IR Inten    --      1.5486                 0.8284                 8.0622

                      7                      8                      9
                      A                      A                      A
 Frequencies --     61.0588                66.9273                82.0233
 Red. masses --      1.5241                 1.8113                 2.4670
 Frc consts  --      0.0033                 0.0048                 0.0098
 IR Inten    --      0.9046                 0.0170                 2.3154

                     10                     11                     12
                      A                      A                      A
 Frequencies --    106.7767               111.0859               129.9049
 Red. masses --      3.0800                 4.9158                 1.4246
 Frc consts  --      0.0207                 0.0357                 0.0142
 IR Inten    --      0.4715                 0.0599                 0.4727

                     13                     14                     15
                      A                      A                      A
 Frequencies --    145.3783               168.6063               173.5905
 Red. masses --      1.0844                 3.4546                 2.7837
 Frc consts  --      0.0135                 0.0579                 0.0494
 IR Inten    --      0.1293                 0.4575                 0.8105

                     16                     17                     18
                      A                      A                      A
 Frequencies --    202.0148               214.3427               260.8928
 Red. masses --      1.2767                 2.9082                 4.2556
 Frc consts  --      0.0307                 0.0787                 0.1707
 IR Inten    --      0.6855                 0.3052                 0.9739

                     19                     20                     21
                      A                      A                      A
 Frequencies --    264.9017               287.2104               311.3745
 Red. masses --      3.6651                 2.4982                 3.3235
 Frc consts  --      0.1515                 0.1214                 0.1898
 IR Inten    --      1.9594                 0.2755                 1.2429

                     22                     23                     24
                      A                      A                      A
 Frequencies --    332.7142               351.6088               358.4561
 Red. masses --      2.9298                 2.9422                 2.6279
 Frc consts  --      0.1911                 0.2143                 0.1989
 IR Inten    --      4.5969                 0.1585                 0.8323

                     25                     26                     27
                      A                      A                      A
 Frequencies --    391.6863               399.9230               405.1612
 Red. masses --      7.2128                 2.3928                 3.2606
 Frc consts  --      0.6520                 0.2255                 0.3154
 IR Inten    --     11.2326                 2.6005                 5.7926

                     28                     29                     30
                      A                      A                      A
 Frequencies --    418.4975               426.1619               432.8186
 Red. masses --      5.8150                 3.3069                 3.8854
 Frc consts  --      0.6000                 0.3539                 0.4288
 IR Inten    --      7.8484                 1.0891                38.8061

                     31                     32                     33
                      A                      A                      A
 Frequencies --    460.5311               474.3193               493.6913
 Red. masses --      2.7619                 4.1186                 2.6592
 Frc consts  --      0.3451                 0.5459                 0.3819
 IR Inten    --      3.9191                 4.6621                 2.0749

                     34                     35                     36
                      A                      A                      A
 Frequencies --    507.7953               534.4268               568.0436
 Red. masses --      5.1075                 3.3098                 4.1767
 Frc consts  --      0.7760                 0.5570                 0.7940
 IR Inten    --      0.5790                14.3890                 2.3732

                     37                     38                     39
                      A                      A                      A
 Frequencies --    587.8842               648.7863               675.9755
 Red. masses --      2.7382                 5.2955                 5.2369
 Frc consts  --      0.5576                 1.3133                 1.4099
 IR Inten    --     11.7318                21.7427                 4.3640

                     40                     41                     42
                      A                      A                      A
 Frequencies --    684.3720               703.5472               727.6491
 Red. masses --      4.2332                 4.0589                 2.7036
 Frc consts  --      1.1682                 1.1837                 0.8434
 IR Inten    --      2.7548                20.6447                92.2252

                     43                     44                     45
                      A                      A                      A
 Frequencies --    756.0413               777.0686               799.3996
 Red. masses --      1.5607                 2.0003                 2.2102
 Frc consts  --      0.5256                 0.7116                 0.8322
 IR Inten    --      8.0215                 9.1934                17.7063

                     46                     47                     48
                      A                      A                      A
 Frequencies --    808.8396               811.0341               821.3841
 Red. masses --      2.1158                 3.3077                 2.9963
 Frc consts  --      0.8155                 1.2819                 1.1911
 IR Inten    --      2.1817                 2.5362                 2.5065

                     49                     50                     51
                      A                      A                      A
 Frequencies --    855.0465               876.5519               909.7314
 Red. masses --      1.4635                 2.0763                 2.5005
 Frc consts  --      0.6304                 0.9399                 1.2193
 IR Inten    --      8.8762                30.6168                35.0022

                     52                     53                     54
                      A                      A                      A
 Frequencies --    913.0637               958.7003               959.8981
 Red. masses --      1.4239                 1.4927                 2.9728
 Frc consts  --      0.6994                 0.8083                 1.6138
 IR Inten    --      1.1198                 2.1251                37.6571

                     55                     56                     57
                      A                      A                      A
 Frequencies --    971.5364               977.7049               999.1528
 Red. masses --      1.7801                 3.1205                 1.3891
 Frc consts  --      0.9900                 1.7575                 0.8170
 IR Inten    --      3.1854               108.9371                 2.0812

                     58                     59                     60
                      A                      A                      A
 Frequencies --   1003.7460              1011.5603              1020.7140
 Red. masses --      2.9072                 1.2952                 1.8249
 Frc consts  --      1.7257                 0.7808                 1.1202
 IR Inten    --     20.5842                 0.9521                24.3799

                     61                     62                     63
                      A                      A                      A
 Frequencies --   1021.6732              1034.5071              1043.6985
 Red. masses --      1.3291                 1.7828                 1.7079
 Frc consts  --      0.8174                 1.1242                 1.0961
 IR Inten    --      0.0200                 5.3676                 7.9471

                     64                     65                     66
                      A                      A                      A
 Frequencies --   1052.5277              1061.6426              1081.6754
 Red. masses --      2.0859                 1.7864                 1.9504
 Frc consts  --      1.3615                 1.1862                 1.3445
 IR Inten    --      0.6835                 7.2619                 2.8097

                     67                     68                     69
                      A                      A                      A
 Frequencies --   1096.8662              1098.9592              1112.8043
 Red. masses --      2.1678                 1.6925                 2.1692
 Frc consts  --      1.5367                 1.2043                 1.5827
 IR Inten    --     38.2589                 1.7273                 2.9699

                     70                     71                     72
                      A                      A                      A
 Frequencies --   1126.6737              1150.2414              1170.8351
 Red. masses --      2.0460                 2.5888                 1.4893
 Frc consts  --      1.5302                 2.0180                 1.2029
 IR Inten    --     16.5330                12.9179                24.2800

                     73                     74                     75
                      A                      A                      A
 Frequencies --   1180.2212              1191.7991              1213.1023
 Red. masses --      1.1737                 2.0695                 2.3314
 Frc consts  --      0.9632                 1.7319                 2.0214
 IR Inten    --      7.5543                29.4588                 7.7580

                     76                     77                     78
                      A                      A                      A
 Frequencies --   1242.8000              1252.9727              1278.8519
 Red. masses --      1.8349                 1.5310                 1.7334
 Frc consts  --      1.6698                 1.4161                 1.6703
 IR Inten    --      2.6106                41.7071                67.8863

                     79                     80                     81
                      A                      A                      A
 Frequencies --   1284.0403              1300.1669              1309.4921
 Red. masses --      1.3648                 5.3681                 1.2145
 Frc consts  --      1.3258                 5.3465                 1.2270
 IR Inten    --     11.7262               614.3219                 9.1799

                     82                     83                     84
                      A                      A                      A
 Frequencies --   1317.4269              1339.7943              1355.3742
 Red. masses --      1.3811                 2.8569                 1.4347
 Frc consts  --      1.4123                 3.0215                 1.5528
 IR Inten    --      2.8586                65.1747                 8.6053

                     85                     86                     87
                      A                      A                      A
 Frequencies --   1360.4722              1380.6752              1390.0895
 Red. masses --      7.6783                 1.3162                 1.2619
 Frc consts  --      8.3733                 1.4783                 1.4366
 IR Inten    --     29.9197                 7.2208                 4.6027

                     88                     89                     90
                      A                      A                      A
 Frequencies --   1398.9717              1404.4804              1411.6189
 Red. masses --      1.2520                 1.3579                 1.2689
 Frc consts  --      1.4437                 1.5782                 1.4897
 IR Inten    --     27.8123                11.2387                 2.7394

                     91                     92                     93
                      A                      A                      A
 Frequencies --   1413.7419              1463.8515              1464.3292
 Red. masses --      1.3315                 1.0451                 1.1220
 Frc consts  --      1.5679                 1.3195                 1.4175
 IR Inten    --     13.1201                 0.6171                45.5215

                     94                     95                     96
                      A                      A                      A
 Frequencies --   1467.2459              1475.0608              1475.5233
 Red. masses --      1.0831                 1.0712                 1.0725
 Frc consts  --      1.3738                 1.3732                 1.3757
 IR Inten    --      2.8988                13.3784                 3.8951

                     97                     98                     99
                      A                      A                      A
 Frequencies --   1479.3632              1480.4833              1482.3522
 Red. masses --      1.0867                 1.0448                 1.4545
 Frc consts  --      1.4012                 1.3493                 1.8831
 IR Inten    --     13.0463                22.1762                 9.4816

                    100                    101                    102
                      A                      A                      A
 Frequencies --   1483.2677              1485.1204              1490.6643
 Red. masses --      1.3532                 1.0839                 1.0708
 Frc consts  --      1.7541                 1.4086                 1.4018
 IR Inten    --      5.5753                11.5416                 8.9361

                    103                    104                    105
                      A                      A                      A
 Frequencies --   1496.3064              1506.5927              1612.6174
 Red. masses --      1.0938                 2.6513                 6.8914
 Frc consts  --      1.4429                 3.5456                10.5589
 IR Inten    --     13.7980                 9.4748                 4.6411

                    106                    107                    108
                      A                      A                      A
 Frequencies --   1620.4050              1655.3408              1683.6108
 Red. masses --      6.0203                 8.7700                11.7136
 Frc consts  --      9.3136                14.1588                19.5625
 IR Inten    --    283.0740               100.3093               863.1787

                    109                    110                    111
                      A                      A                      A
 Frequencies --   1686.8330              1705.8044              1719.9310
 Red. masses --     11.7776                 6.5938                 6.3502
 Frc consts  --     19.7447                11.3043                11.0678
 IR Inten    --     76.3317                 8.0388                 5.8107

                    112                    113                    114
                      A                      A                      A
 Frequencies --   2996.8364              3002.2922              3009.7273
 Red. masses --      1.0651                 1.0382                 1.0432
 Frc consts  --      5.6360                 5.5136                 5.5678
 IR Inten    --     46.1644                50.7905                85.4093

                    115                    116                    117
                      A                      A                      A
 Frequencies --   3013.0022              3019.6695              3028.2386
 Red. masses --      1.0637                 1.0434                 1.0493
 Frc consts  --      5.6895                 5.6056                 5.6693
 IR Inten    --     23.9969                62.3123                12.8488

                    118                    119                    120
                      A                      A                      A
 Frequencies --   3043.0393              3045.8245              3046.6325
 Red. masses --      1.0994                 1.0662                 1.0989
 Frc consts  --      5.9983                 5.8279                 6.0096
 IR Inten    --     26.8911                18.4584                49.8747

                    121                    122                    123
                      A                      A                      A
 Frequencies --   3054.5766              3059.3315              3075.0107
 Red. masses --      1.0910                 1.0987                 1.0965
 Frc consts  --      5.9979                 6.0586                 6.1089
 IR Inten    --     37.5726                33.1792                37.3311

                    124                    125                    126
                      A                      A                      A
 Frequencies --   3092.9013              3098.0427              3101.4175
 Red. masses --      1.0988                 1.0871                 1.0885
 Frc consts  --      6.1932                 6.1477                 6.1689
 IR Inten    --     16.1099                 7.8280                92.2538

                    127                    128                    129
                      A                      A                      A
 Frequencies --   3106.8658              3116.6424              3118.3644
 Red. masses --      1.0937                 1.0934                 1.0949
 Frc consts  --      6.2202                 6.2576                 6.2729
 IR Inten    --     12.8470                29.2582                48.4107

                    130                    131                    132
                      A                      A                      A
 Frequencies --   3125.7936              3142.5423              3178.1670
 Red. masses --      1.0890                 1.1015                 1.0874
 Frc consts  --      6.2692                 6.4090                 6.4712
 IR Inten    --     46.7549                 4.8808                 3.3456

                    133                    134                    135
                      A                      A                      A
 Frequencies --   3190.4373              3202.4372              3205.6073
 Red. masses --      1.0913                 1.0927                 1.0956
 Frc consts  --      6.5449                 6.6023                 6.6329
 IR Inten    --     10.5459                 4.2269                17.6259

 - Thermochemistry -
 -------------------
 Temperature   298.150 Kelvin.  Pressure   1.00000 Atm.
 Atom     1 has atomic number  6 and mass  12.00000

 Molecular mass:   308.17763 amu.
 Principal axes and moments of inertia in atomic units:
                           1         2         3
     Eigenvalues --  3965.93399********************
           X           -0.44706   0.84788  -0.28501
           Y            0.26865   0.43119   0.86134
           Z            0.85321   0.30850  -0.42055
 This molecule is an asymmetric top.
 Rotational symmetry number  1.
 Warning -- assumption of classical behavior for rotation
           may cause significant error
 Rotational temperatures (Kelvin)      0.02184     0.00455     0.00410
 Rotational constants (GHZ):           0.45506     0.09476     0.08548
 Zero-point vibrational energy    1032771.0 (Joules/Mol)
                                  246.83818 (Kcal/Mol)
 Warning -- explicit consideration of  37 degrees of freedom as
           vibrations may cause significant error
 Vibrational temperatures:     20.02    20.99    34.32    50.36    53.43
          (Kelvin)             77.29    87.85    96.29   118.01   153.63
                              159.83   186.90   209.17   242.59   249.76
                              290.65   308.39   375.37   381.13   413.23
                              448.00   478.70   505.89   515.74   563.55
                              575.40   582.94   602.12   613.15   622.73
                              662.60   682.44   710.31   730.60   768.92
                              817.29   845.83   933.46   972.58   984.66
                             1012.25  1046.92  1087.77  1118.03  1150.16
                             1163.74  1166.90  1181.79  1230.22  1261.16
                             1308.90  1313.69  1379.36  1381.08  1397.82
                             1406.70  1437.56  1444.17  1455.41  1468.58
                             1469.96  1488.43  1501.65  1514.35  1527.47
                             1556.29  1578.15  1581.16  1601.08  1621.03
                             1654.94  1684.57  1698.08  1714.73  1745.38
                             1788.11  1802.75  1839.98  1847.45  1870.65
                             1884.07  1895.48  1927.67  1950.08  1957.42
                             1986.48  2000.03  2012.81  2020.73  2031.00
                             2034.06  2106.16  2106.84  2111.04  2122.28
                             2122.95  2128.47  2130.09  2132.77  2134.09
                             2136.76  2144.73  2152.85  2167.65  2320.20
                             2331.40  2381.67  2422.34  2426.98  2454.27
                             2474.60  4311.78  4319.63  4330.33  4335.04
                             4344.63  4356.96  4378.25  4382.26  4383.42
                             4394.85  4401.70  4424.25  4450.00  4457.39
                             4462.25  4470.09  4484.15  4486.63  4497.32
                             4521.42  4572.67  4590.33  4607.59  4612.15

 Zero-point correction=                           0.393362 (Hartree/Particle)
 Thermal correction to Energy=                    0.417292
 Thermal correction to Enthalpy=                  0.418236
 Thermal correction to Gibbs Free Energy=         0.335400
 Sum of electronic and zero-point Energies=           -964.992534
 Sum of electronic and thermal Energies=              -964.968604
 Sum of electronic and thermal Enthalpies=            -964.967660
 Sum of electronic and thermal Free Energies=         -965.050495

                     E (Thermal)             CV                S
                      KCal/Mol        Cal/Mol-Kelvin    Cal/Mol-Kelvin
 Total                  261.855             88.592            174.342
 Electronic               0.000              0.000              0.000
 Translational            0.889              2.981             43.073
 Rotational               0.889              2.981             35.721
 Vibrational            260.077             82.630             95.549
 Vibration     1          0.593              1.986              7.355
 Vibration     2          0.593              1.986              7.261
 Vibration     3          0.593              1.985              6.284
 Vibration     4          0.594              1.982              5.524
 Vibration     5          0.594              1.982              5.406
 Vibration     6          0.596              1.976              4.676
 Vibration     7          0.597              1.973              4.423
 Vibration     8          0.598              1.970              4.242
 Vibration     9          0.600              1.961              3.842
 Vibration    10          0.606              1.944              3.327
 Vibration    11          0.607              1.940              3.250
 Vibration    12          0.612              1.923              2.947
 Vibration    13          0.617              1.908              2.732
 Vibration    14          0.625              1.881              2.451
 Vibration    15          0.627              1.875              2.396
 Vibration    16          0.639              1.837              2.115
 Vibration    17          0.644              1.819              2.006
 Vibration    18          0.669              1.744              1.656
 Vibration    19          0.671              1.737              1.629
 Vibration    20          0.684              1.697              1.490
 Vibration    21          0.700              1.652              1.355
 Vibration    22          0.715              1.610              1.247
 Vibration    23          0.728              1.572              1.159
 Vibration    24          0.733              1.558              1.129
 Vibration    25          0.759              1.488              0.994
 Vibration    26          0.766              1.470              0.963
 Vibration    27          0.770              1.459              0.944
 Vibration    28          0.781              1.430              0.897
 Vibration    29          0.788              1.413              0.871
 Vibration    30          0.794              1.399              0.849
 Vibration    31          0.818              1.338              0.765
 Vibration    32          0.831              1.307              0.726
 Vibration    33          0.849              1.264              0.674
 Vibration    34          0.863              1.233              0.639
 Vibration    35          0.889              1.174              0.577
 Vibration    36          0.924              1.100              0.508
 Vibration    37          0.945              1.058              0.471

 Optimization completed.
    -- Stationary point found.
 Normal termination of Gaussian 16 at Sun Feb 11 10:49:56 2024.
