 Q-Chem 5.4, Q-Chem, Inc., Pleasanton, CA (2021)
 Q-Chem 5.4.0 for Intel X86 EM64T Linux

User input:
--------------------------------------------------------------
$molecule
0 1
C                 -1.9510880000      3.0658200000      0.0477070000
C                 -2.9247350000      2.3558030000     -0.6480240000
C                 -2.6407030000      1.0801550000     -1.1390410000
C                 -0.6916900000      2.4965500000      0.2508930000
C                 -0.4029650000      1.2133270000     -0.2417100000
C                 -1.3851170000      0.5100110000     -0.9368560000
C                  0.3504870000      3.2354990000      0.9863830000
C                  1.6795160000      2.5846540000      1.1705380000
C                  1.9788270000      1.3439040000      0.7131050000
C                  0.9475230000      0.5887490000     -0.0289660000
O                  0.1937000000      4.3561680000      1.4581640000
O                  1.1799070000     -0.5305690000     -0.4640390000
H                 -2.1478040000      4.0566180000      0.4386010000
H                 -3.9030430000      2.7939250000     -0.8082170000
H                 -3.4006100000      0.5285800000     -1.6809180000
H                 -1.1482830000     -0.4783520000     -1.3106770000
C                  3.3317980000      0.7180380000      0.9032560000
O                  2.5655100000      3.3371410000      1.8432320000
H                  3.2009870000     -0.3605450000      1.0208420000
H                  3.7817600000      1.1090590000      1.8193590000
H                  2.1003340000      4.1650980000      2.0690110000
C                  4.2834760000      0.9791140000     -0.2842480000
C                  5.6573310000      0.3299080000     -0.0896030000
C                  6.6188030000      0.5782980000     -1.2574280000
C                  7.9908740000     -0.0725730000     -1.0589490000
H                  4.4036320000      2.0603170000     -0.4170680000
H                  3.8231200000      0.5949590000     -1.2006680000
H                  5.5299130000     -0.7512290000      0.0499980000
H                  6.1094950000      0.7069430000      0.8370040000
H                  6.7442060000      1.6588420000     -1.3977620000
H                  6.1663230000      0.2016480000     -2.1826670000
H                  8.4837250000      0.3095440000     -0.1593020000
H                  8.6521140000      0.1227780000     -1.9077730000
H                  7.9016060000     -1.1581200000     -0.9505380000
$end
$rem
MAX_SCF_CYCLES=200
BASIS  =  6-311++G(d,p)
GUI  =  2
JOB_TYPE  =  SP
METHOD  =  B3LYP
SOLVENT_METHOD = COSMO
$end
$solvent
dielectric 37.219
opticaldielectric 1.43
$end

--------------------------------------------------------------

             Standard Nuclear Orientation (Angstroms)
    I     Atom           X                Y                Z
 ----------------------------------------------------------------
    1      C       3.9273725179    -0.4260518764    -0.5489042787
    2      C       4.6791221185     0.7420809914    -0.6294796240
    3      C       4.0899001538     1.9727321630    -0.3339041488
    4      C       2.5838296006    -0.3601442715    -0.1720955438
    5      C       1.9882510532     0.8764125835     0.1260561748
    6      C       2.7498178419     2.0407185162     0.0429199633
    7      C       1.7739507547    -1.5885604959    -0.0814649821
    8      C       0.3432817028    -1.4620171145     0.3197870552
    9      C      -0.2512281197    -0.2814733293     0.6217258387
   10      C       0.5440804891     0.9612217417     0.5339217338
   11      O       2.2034062328    -2.7126073088    -0.3162952137
   12      O       0.0432368676     2.0470715548     0.7913114657
   13      H       4.3622588829    -1.3924449900    -0.7728109118
   14      H       5.7217516179     0.6954713872    -0.9217987969
   15      H       4.6772602011     2.8817478697    -0.3973307371
   16      H       2.2773137087     2.9868558694     0.2758531218
   17      C      -1.6992445809    -0.1832609334     1.0115961157
   18      O      -0.3147634967    -2.6319103349     0.3652363551
   19      H      -1.8096819685     0.6320127301     1.7309094758
   20      H      -2.0024676473    -1.1127644236     1.5001521148
   21      H       0.3361852222    -3.3175776480     0.1223294536
   22      C      -2.6259999424     0.0853549360    -0.1938031784
   23      C      -4.0993787223     0.1950302099     0.2111152982
   24      C      -5.0375352181     0.4603575629    -0.9718492044
   25      C      -6.5093611674     0.5695416791    -0.5626878611
   26      H      -2.5053733070    -0.7210117638    -0.9261285871
   27      H      -2.3111301937     1.0118197593    -0.6855839220
   28      H      -4.2125836446     0.9990199400     0.9496044031
   29      H      -4.4073733905    -0.7298663264     0.7160052744
   30      H      -4.9225409144    -0.3423130307    -1.7104229029
   31      H      -4.7290771776     1.3842346776    -1.4758088202
   32      H      -6.8571498775    -0.3526621164    -0.0863860585
   33      H      -7.1513298760     0.7586885900    -1.4275590406
   34      H      -6.6622493559     1.3867040120     0.1493549279
 ----------------------------------------------------------------

    9    -807.1468978038      6.53e-06  Convergence criterion met
 Total energy in the final basis set =     -807.1468978038
    4    -807.1608181280      9.74e-06  Convergence criterion met
 Total energy in the final basis set =     -807.1608181280

                    Orbital Energies (a.u.)
 --------------------------------------------------------------

 Alpha MOs
 -- Occupied --
-19.1782 -19.1501 -19.1304 -10.2941 -10.2817 -10.2673 -10.2104 -10.2091
-10.2035 -10.2004 -10.1982 -10.1966 -10.1965 -10.1752 -10.1661 -10.1603
-10.1598 -10.1528  -1.1085  -1.0677  -1.0642  -0.8923  -0.8438  -0.8048
 -0.7828  -0.7792  -0.7472  -0.7049  -0.6785  -0.6540  -0.6324  -0.6054
 -0.5966  -0.5761  -0.5734  -0.5426  -0.5186  -0.4976  -0.4793  -0.4738
 -0.4705  -0.4688  -0.4519  -0.4514  -0.4389  -0.4280  -0.4253  -0.4160
 -0.4132  -0.4018  -0.3984  -0.3832  -0.3775  -0.3731  -0.3695  -0.3592
 -0.3374  -0.3307  -0.3267  -0.3215  -0.3039  -0.2898  -0.2802  -0.2799
 -0.2565

          Ground-State Mulliken Net Atomic Charges

     Atom                 Charge (a.u.)
  ----------------------------------------
      1 C                     0.255510
      2 C                    -0.414004
      3 C                    -0.402552
      4 C                     0.287284
      5 C                     0.016148
      6 C                     0.196767
      7 C                    -0.668201
      8 C                    -0.461593
      9 C                     1.801795
     10 C                    -0.804756
     11 O                    -0.330503
     12 O                    -0.296907
     13 H                     0.207074
     14 H                     0.229044
     15 H                     0.226111
     16 H                     0.203281
     17 C                    -0.355331
     18 O                    -0.238278
     19 H                     0.218001
     20 H                     0.230577
     21 H                     0.324868
     22 C                    -0.459850
     23 C                    -0.199536
     24 C                    -0.185203
     25 C                    -0.681923
     26 H                     0.169843
     27 H                     0.172358
     28 H                     0.120974
     29 H                     0.120645
     30 H                     0.137197
     31 H                     0.136924
     32 H                     0.146598
     33 H                     0.150785
     34 H                     0.146845
  ----------------------------------------
  Sum of atomic charges =    -0.000007

                    Cartesian Multipole Moments
 -----------------------------------------------------------------
    Charge (ESU x 10^10)
                -0.0000
    Dipole Moment (Debye)
         X       2.9921      Y       0.0672      Z      -1.0562
       Tot       3.1738
    Quadrupole Moments (Debye-Ang)
        XX     -88.7845     XY      10.1115     YY    -112.4662
        XZ      -2.0264     YZ      -3.1483     ZZ    -109.3531

 Total job time:  64.63s(wall), 495.40s(cpu)
        *  Thank you very much for using Q-Chem.  Have a nice day.  *
