 Gaussian 16, Revision A.03,
 Gaussian 16:  ES64L-G16RevA.03 25-Dec-2016

 ----------------------------------------------------------------------
 #P UB3LYP/6-311++G(d,p) nosym opt freq SCRF=(PCM,Solvent=n,n-DiMethylF
 ormamide)
 ----------------------------------------------------------------------

 -------
 Radical
 -------
 Symbolic Z-matrix:
 Charge = -1 Multiplicity = 2

 SCF Done:  E(UB3LYP) =  -839.600094955     A.U. after   18 cycles
 SCF Done:  E(UB3LYP) =  -839.600317264     A.U. after   14 cycles
 SCF Done:  E(UB3LYP) =  -839.600296969     A.U. after   14 cycles
 SCF Done:  E(UB3LYP) =  -839.600373176     A.U. after   14 cycles
 SCF Done:  E(UB3LYP) =  -839.600374360     A.U. after   10 cycles
 SCF Done:  E(UB3LYP) =  -839.600375532     A.U. after   10 cycles
 SCF Done:  E(UB3LYP) =  -839.600375854     A.U. after    9 cycles
 Optimization completed.
    -- Stationary point found.
 Normal termination of Gaussian 16 at Sat Feb 10 22:34:46 2024.

 ----------------------------------------------------------------------
 #P Geom=AllCheck Guess=TCheck SCRF=Check GenChk UB3LYP/6-311++G(d,p) F
 req
 ----------------------------------------------------------------------

 Structure from the checkpoint file:  "187-rad.chk"
 -------
 Radical
 -------
 Charge = -1 Multiplicity = 2

                          Input orientation:
 ---------------------------------------------------------------------
 Center     Atomic      Atomic             Coordinates (Angstroms)
 Number     Number       Type             X           Y           Z
 ---------------------------------------------------------------------
      1          8           0       -2.297518   -2.683172   -0.434068
      2          6           0       -2.345433   -1.336644   -0.203636
      3          6           0       -3.579763   -0.712881   -0.086825
      4          6           0       -3.666939    0.666922    0.150416
      5          6           0       -2.517079    1.417454    0.270264
      6          6           0       -1.246106    0.816087    0.156279
      7          6           0       -0.072236    1.678842    0.294470
      8          8           0       -0.191659    2.916578    0.513922
      9          6           0        1.238851    1.054149    0.168618
     10          6           0        2.401514    1.843488    0.286273
     11          6           0        3.654221    1.267854    0.172359
     12          6           0        3.792280   -0.108308   -0.061670
     13          6           0        2.663201   -0.910123   -0.183232
     14          8           0        2.821021   -2.232746   -0.409334
     15          6           0        1.352221   -0.345430   -0.071209
     16          6           0        0.186343   -1.203712   -0.204275
     17          8           0        0.350434   -2.457425   -0.419556
     18          6           0       -1.129073   -0.594102   -0.087119
     19          1           0       -3.203217   -3.014397   -0.480849
     20          1           0       -4.482962   -1.308409   -0.181926
     21          1           0       -4.642182    1.132885    0.237827
     22          1           0       -2.559359    2.482870    0.453426
     23          1           0        2.287496    2.904509    0.466224
     24          1           0        4.544007    1.881869    0.264056
     25          1           0        4.770159   -0.567270   -0.151797
     26          1           0        1.871777   -2.588887   -0.458641
 ---------------------------------------------------------------------

 SCF Done:  E(UB3LYP) =  -839.600375854     A.U. after    1 cycles

 Alpha  occ. eigenvalues --  -19.15554 -19.12791 -19.08917 -19.07586 -10.24498
 Alpha  occ. eigenvalues --  -10.23853 -10.23541 -10.22542 -10.18358 -10.17877
 Alpha  occ. eigenvalues --  -10.17713 -10.17694 -10.17545 -10.17483 -10.17289
 Alpha  occ. eigenvalues --  -10.16544 -10.16504 -10.16291  -1.06893  -1.05306
 Alpha  occ. eigenvalues --   -1.00412  -1.00008  -0.86238  -0.84822  -0.78979
 Alpha  occ. eigenvalues --   -0.75051  -0.74507  -0.73923  -0.67274  -0.64614
 Alpha  occ. eigenvalues --   -0.63314  -0.60031  -0.57562  -0.55701  -0.53070
 Alpha  occ. eigenvalues --   -0.50916  -0.49623  -0.48255  -0.47070  -0.45980
 Alpha  occ. eigenvalues --   -0.44907  -0.43855  -0.42617  -0.42287  -0.41251
 Alpha  occ. eigenvalues --   -0.41243  -0.39280  -0.38996  -0.38825  -0.37277
 Alpha  occ. eigenvalues --   -0.37271  -0.35656  -0.35346  -0.34521  -0.33928
 Alpha  occ. eigenvalues --   -0.32653  -0.27341  -0.25318  -0.25306  -0.23986
 Alpha  occ. eigenvalues --   -0.23838  -0.22770  -0.14497
 Alpha virt. eigenvalues --   -0.04861  -0.02579  -0.00358   0.00385   0.00664
 Alpha virt. eigenvalues --    0.01007   0.01968   0.02162   0.03963   0.04241
 Alpha virt. eigenvalues --    0.04351   0.04592   0.05039   0.05884   0.06396

  Beta  occ. eigenvalues --  -19.15541 -19.12775 -19.08435 -19.07037 -10.24493
  Beta  occ. eigenvalues --  -10.23638 -10.23541 -10.22370 -10.18322 -10.17780
  Beta  occ. eigenvalues --  -10.17679 -10.17655 -10.17474 -10.17448 -10.17215
  Beta  occ. eigenvalues --  -10.16527 -10.16416 -10.16251  -1.06856  -1.05179
  Beta  occ. eigenvalues --   -0.99639  -0.99040  -0.85968  -0.84688  -0.78593
  Beta  occ. eigenvalues --   -0.74792  -0.74297  -0.73738  -0.66578  -0.64440
  Beta  occ. eigenvalues --   -0.63082  -0.59942  -0.57381  -0.55492  -0.52918
  Beta  occ. eigenvalues --   -0.50795  -0.49441  -0.48035  -0.46932  -0.45896
  Beta  occ. eigenvalues --   -0.44768  -0.43061  -0.42449  -0.42113  -0.41027
  Beta  occ. eigenvalues --   -0.40807  -0.38875  -0.38699  -0.37901  -0.37200
  Beta  occ. eigenvalues --   -0.35592  -0.35529  -0.35196  -0.34358  -0.33538
  Beta  occ. eigenvalues --   -0.31608  -0.25456  -0.24894  -0.24824  -0.23509
  Beta  occ. eigenvalues --   -0.22954  -0.22083
  Beta virt. eigenvalues --   -0.08877  -0.03698  -0.01561  -0.00346   0.00390
  Beta virt. eigenvalues --    0.00957   0.01016   0.01985   0.02167   0.03966
  Beta virt. eigenvalues --    0.04374   0.04413   0.04602   0.05810   0.06416

 Mulliken charges and spin densities:
               1          2
     1  O   -0.241479   0.003999
     2  C    0.006120   0.022637
     3  C   -0.229851   0.052551
     4  C   -0.336034   0.046801
     5  C   -0.030941   0.041727
     6  C    0.304877   0.049443
     7  C   -0.418045   0.100402
     8  O   -0.455563   0.206275
     9  C    0.271415   0.033293
    10  C   -0.086744   0.059527
    11  C   -0.400225   0.028161
    12  C   -0.278147   0.060803
    13  C   -0.065515   0.022024
    14  O   -0.415354   0.006229
    15  C    0.430359  -0.001067
    16  C   -0.288897   0.124351
    17  O   -0.491864   0.173642
    18  C   -0.000746  -0.005063
    19  H    0.298566  -0.000320
    20  H    0.154849  -0.005059
    21  H    0.194635  -0.003445
    22  H    0.155736  -0.002571
    23  H    0.158080  -0.003422
    24  H    0.187992  -0.002357
    25  H    0.183197  -0.005306
    26  H    0.393582  -0.003256
 Sum of Mulliken charges =  -1.00000   1.00000

 Dipole moment (field-independent basis, Debye):
    X=             -5.0795    Y=             -0.8697    Z=             -0.1400  Tot=              5.1553
 Quadrupole moment (field-independent basis, Debye-Ang):
   XX=            -99.8832   YY=           -140.0382   ZZ=           -111.3965
   XY=             15.9434   XZ=              2.6132   YZ=             -5.3308

  Exact polarizability: 471.490   9.061 350.827  -2.174  37.820 136.371
 Approx polarizability: 484.597   3.434 428.385  -3.050  47.826 157.406

                      1                      2                      3
                      A                      A                      A
 Frequencies --     48.1558                64.6311               109.2967
 Red. masses --      6.7943                 6.3488                10.0486
 Frc consts  --      0.0093                 0.0156                 0.0707
 IR Inten    --     16.0298                 0.0090                 0.2825

                      4                      5                      6
                      A                      A                      A
 Frequencies --    163.5916               198.1947               202.1420
 Red. masses --      6.9913                 4.5542                 6.2710
 Frc consts  --      0.1102                 0.1054                 0.1510
 IR Inten    --      1.1112                 0.4777                 9.7126

                      7                      8                      9
                      A                      A                      A
 Frequencies --    240.7949               280.4156               313.4070
 Red. masses --      4.6277                 4.5436                 7.0321
 Frc consts  --      0.1581                 0.2105                 0.4070
 IR Inten    --      2.3458                 8.4418                 5.1511

                     10                     11                     12
                      A                      A                      A
 Frequencies --    348.9526               361.7311               393.0604
 Red. masses --      6.6381                10.8429                 1.1883
 Frc consts  --      0.4762                 0.8359                 0.1082
 IR Inten    --      6.6571                11.2303               133.1110

                     13                     14                     15
                      A                      A                      A
 Frequencies --    417.7049               439.8627               447.8099
 Red. masses --      6.0205                10.9437                 7.7147
 Frc consts  --      0.6189                 1.2475                 0.9115
 IR Inten    --      0.7362                80.7610                 4.4240

                     16                     17                     18
                      A                      A                      A
 Frequencies --    468.9419               492.3939               497.3806
 Red. masses --      6.5636                 4.1353                 7.4789
 Frc consts  --      0.8504                 0.5907                 1.0901
 IR Inten    --     26.1081                 0.0552                 9.0862

                     19                     20                     21
                      A                      A                      A
 Frequencies --    531.4442               551.5021               581.6502
 Red. masses --      4.6864                 8.1832                 5.4356
 Frc consts  --      0.7798                 1.4665                 1.0835
 IR Inten    --      5.6901                 0.2982                 7.7443

                     22                     23                     24
                      A                      A                      A
 Frequencies --    594.7458               620.1810               643.6633
 Red. masses --      4.7866                 6.8390                 4.0595
 Frc consts  --      0.9976                 1.5498                 0.9909
 IR Inten    --      0.2323                62.4834                11.1189

                     25                     26                     27
                      A                      A                      A
 Frequencies --    703.3694               719.8550               734.3078
 Red. masses --      6.7590                 2.5325                 2.6488
 Frc consts  --      1.9702                 0.7732                 0.8415
 IR Inten    --     23.3806                 0.0653               110.5515

                     28                     29                     30
                      A                      A                      A
 Frequencies --    768.1246               788.9208               789.3209
 Red. masses --      2.5872                 2.2921                 3.7911
 Frc consts  --      0.8994                 0.8405                 1.3916
 IR Inten    --     49.3042                 8.6651                10.8519

                     31                     32                     33
                      A                      A                      A
 Frequencies --    812.0703               830.0038               876.7353
 Red. masses --      3.5978                 8.8771                 1.4217
 Frc consts  --      1.3979                 3.6031                 0.6439
 IR Inten    --     69.0967                99.3121                 0.4922

                     34                     35                     36
                      A                      A                      A
 Frequencies --    883.5206               925.8975               938.9856
 Red. masses --      1.5025                 6.4874                 1.0549
 Frc consts  --      0.6910                 3.2768                 0.5480
 IR Inten    --      2.3560                 8.7743               123.7903

                     37                     38                     39
                      A                      A                      A
 Frequencies --    977.5102               979.0490               986.3627
 Red. masses --      1.2865                 1.2971                 6.5032
 Frc consts  --      0.7243                 0.7326                 3.7278
 IR Inten    --      0.2364                 1.3683               294.9023

                     40                     41                     42
                      A                      A                      A
 Frequencies --   1046.6547              1072.9199              1095.0906
 Red. masses --      4.0341                 1.9646                 1.9034
 Frc consts  --      2.6038                 1.3325                 1.3449
 IR Inten    --      7.1830                48.1361                55.3209

                     43                     44                     45
                      A                      A                      A
 Frequencies --   1156.2913              1169.0439              1177.7190
 Red. masses --      1.3679                 1.8856                 1.4524
 Frc consts  --      1.0776                 1.5183                 1.1869
 IR Inten    --     72.6366                65.9358                 5.2844

                     46                     47                     48
                      A                      A                      A
 Frequencies --   1201.3045              1239.6234              1246.7097
 Red. masses --      1.8230                 2.8087                 2.5103
 Frc consts  --      1.5501                 2.5430                 2.2988
 IR Inten    --    190.5200                26.3152                 8.1060

                     49                     50                     51
                      A                      A                      A
 Frequencies --   1276.2627              1285.0805              1300.5459
 Red. masses --      3.1392                 4.6383                 3.1642
 Frc consts  --      3.0126                 4.5131                 3.1533
 IR Inten    --     59.4168                46.3722               841.4191

                     52                     53                     54
                      A                      A                      A
 Frequencies --   1351.9415              1373.1493              1393.8314
 Red. masses --      6.0837                 5.5271                 3.6496
 Frc consts  --      6.5514                 6.1402                 4.1775
 IR Inten    --     45.7823                31.5369               653.4935

                     55                     56                     57
                      A                      A                      A
 Frequencies --   1422.9656              1460.5172              1480.4240
 Red. masses --      3.1931                 3.2575                 4.0224
 Frc consts  --      3.8093                 4.0940                 5.1940
 IR Inten    --    211.9580               313.8509               227.0541

                     58                     59                     60
                      A                      A                      A
 Frequencies --   1488.3258              1513.8052              1559.5066
 Red. masses --      2.6696                 4.4476                 3.0384
 Frc consts  --      3.4841                 6.0051                 4.3538
 IR Inten    --    361.1276              1119.4138                63.6168

                     61                     62                     63
                      A                      A                      A
 Frequencies --   1569.5494              1607.7140              1621.4360
 Red. masses --      3.3820                 7.1365                 5.5913
 Frc consts  --      4.9088                10.8681                 8.6609
 IR Inten    --    164.7149               179.6550                62.0828

                     64                     65                     66
                      A                      A                      A
 Frequencies --   1648.2173              2802.7346              3150.0785
 Red. masses --      2.9568                 1.0760                 1.0886
 Frc consts  --      4.7325                 4.9800                 6.3646
 IR Inten    --    153.9453              1096.0198                31.0254

                     67                     68                     69
                      A                      A                      A
 Frequencies --   3161.3889              3174.4335              3182.1111
 Red. masses --      1.0871                 1.0914                 1.0923
 Frc consts  --      6.4016                 6.4801                 6.5164
 IR Inten    --     23.5989                22.3810                24.7855

                     70                     71                     72
                      A                      A                      A
 Frequencies --   3195.8530              3203.7604              3791.1660
 Red. masses --      1.0933                 1.0925                 1.0659
 Frc consts  --      6.5792                 6.6067                 9.0267
 IR Inten    --     24.9138                18.1891               116.0705

 - Thermochemistry -
 -------------------
 Temperature   298.150 Kelvin.  Pressure   1.00000 Atm.
 Atom     1 has atomic number  8 and mass  15.99491

 Molecular mass:   240.04226 amu.
 Principal axes and moments of inertia in atomic units:
                           1         2         3
     Eigenvalues --  2432.426784817.360257249.75585
           X            0.99588  -0.09006   0.01067
           Y            0.09057   0.98145  -0.16900
           Z            0.00475   0.16927   0.98556
 This molecule is an asymmetric top.
 Rotational symmetry number  1.
 Warning -- assumption of classical behavior for rotation
           may cause significant error
 Rotational temperatures (Kelvin)      0.03561     0.01798     0.01195
 Rotational constants (GHZ):           0.74195     0.37463     0.24894
 Zero-point vibrational energy     485359.9 (Joules/Mol)
                                  116.00381 (Kcal/Mol)
 Warning -- explicit consideration of  23 degrees of freedom as
           vibrations may cause significant error
 Vibrational temperatures:     69.29    92.99   157.25   235.37   285.16
          (Kelvin)            290.84   346.45   403.46   450.92   502.06
                              520.45   565.53   600.98   632.86   644.30
                              674.70   708.45   715.62   764.63   793.49
                              836.86   855.71   892.30   926.09  1011.99
                             1035.71  1056.51  1105.16  1135.08  1135.66
                             1168.39  1194.19  1261.43  1271.19  1332.16
                             1350.99  1406.42  1408.63  1419.16  1505.90
                             1543.69  1575.59  1663.65  1681.99  1694.47
                             1728.41  1783.54  1793.74  1836.26  1848.94
                             1871.20  1945.14  1975.66  2005.41  2047.33
                             2101.36  2130.00  2141.37  2178.03  2243.78
                             2258.23  2313.14  2332.88  2371.42  4032.51
                             4532.26  4548.53  4567.30  4578.35  4598.12
                             4609.50  5454.64

 Zero-point correction=                           0.184864 (Hartree/Particle)
 Thermal correction to Energy=                    0.198052
 Thermal correction to Enthalpy=                  0.198996
 Thermal correction to Gibbs Free Energy=         0.144519
 Sum of electronic and zero-point Energies=           -839.415512
 Sum of electronic and thermal Energies=              -839.402324
 Sum of electronic and thermal Enthalpies=            -839.401380
 Sum of electronic and thermal Free Energies=         -839.455857

                     E (Thermal)             CV                S
                      KCal/Mol        Cal/Mol-Kelvin    Cal/Mol-Kelvin
 Total                  124.279             54.022            114.657
 Electronic               0.000              0.000              1.377
 Translational            0.889              2.981             42.328
 Rotational               0.889              2.981             32.807
 Vibrational            122.502             48.060             38.144
 Vibration     1          0.595              1.978              4.892
 Vibration     2          0.597              1.971              4.311
 Vibration     3          0.606              1.942              3.281
 Vibration     4          0.623              1.887              2.508
 Vibration     5          0.637              1.842              2.150
 Vibration     6          0.639              1.837              2.114
 Vibration     7          0.658              1.778              1.797
 Vibration     8          0.680              1.710              1.531
 Vibration     9          0.701              1.648              1.344
 Vibration    10          0.726              1.577              1.171
 Vibration    11          0.736              1.551              1.115
 Vibration    12          0.760              1.485              0.989
 Vibration    13          0.781              1.432              0.900
 Vibration    14          0.800              1.383              0.827
 Vibration    15          0.807              1.366              0.802
 Vibration    16          0.826              1.319              0.741
 Vibration    17          0.848              1.267              0.677
 Vibration    18          0.853              1.256              0.665
 Vibration    19          0.886              1.180              0.584
 Vibration    20          0.907              1.136              0.541
 Vibration    21          0.938              1.071              0.482
 Vibration    22          0.952              1.043              0.459
 Vibration    23          0.980              0.989              0.416

                           ! Non-Optimized Parameters !
 Normal termination of Gaussian 16 at Sat Feb 10 23:22:36 2024.
