 Gaussian 16, Revision A.03,
 Gaussian 16:  ES64L-G16RevA.03 25-Dec-2016

 ----------------------------------------------------------------
 #P UB3LYP/6-311++G(d,p) SCRF=(PCM,Solvent=n,n-DiMethylFormamide)
 ----------------------------------------------------------------

 ------------------
 Quinone PCM in DMF
 ------------------
 Symbolic Z-matrix:
 Charge =  0 Multiplicity = 1

                         Standard orientation:
 ---------------------------------------------------------------------
 Center     Atomic      Atomic             Coordinates (Angstroms)
 Number     Number       Type             X           Y           Z
 ---------------------------------------------------------------------
      1          6           0        0.717320   -0.004053    3.334368
      2          6           0        0.924614   -1.243633    2.557132
      3          6           0        0.924281    1.237046    2.559469
      4          6           0        0.906044    1.245278    1.210982
      5          6           0        0.436245   -0.001348    0.530311
      6          6           0        0.906296   -1.249135    1.208654
      7          6           0       -0.436075   -0.000640   -0.529668
      8          6           0       -0.906193   -1.247381   -1.209920
      9          6           0       -0.905838    1.247012   -1.208402
     10          6           0       -0.924541   -1.239655   -2.558394
     11          6           0       -0.924137    1.241017   -2.556888
     12          6           0       -0.717224    0.001127   -3.333716
     13          8           0        0.551592   -0.005196    4.548042
     14          8           0       -0.551536    0.001828   -4.547394
     15          6           0        1.499434    2.405970    0.439324
     16          6           0        3.016813    2.212561    0.225798
     17          6           0        3.652153    3.370287   -0.552802
     18          6           0        5.158755    3.193294   -0.762540
     19          6           0       -1.499383    2.406250   -0.434655
     20          6           0       -3.017569    2.214031   -0.225832
     21          6           0       -3.653302    3.368465    0.557271
     22          6           0       -5.160653    3.192288    0.762327
     23          6           0       -1.500078   -2.407439   -0.437691
     24          6           0       -3.016773   -2.211732   -0.221467
     25          6           0       -3.652656   -3.368979    0.557402
     26          6           0       -5.158591   -3.189648    0.769929
     27          6           0        1.500361   -2.407727    0.434436
     28          6           0        3.017367   -2.211877    0.220499
     29          6           0        3.653675   -3.366089   -0.562476
     30          6           0        5.159845   -3.186180   -0.772895
     31          1           0        1.195031   -2.127068    3.127059
     32          1           0        1.194350    2.119472    3.131119
     33          1           0       -1.195022   -2.122173   -3.129702
     34          1           0       -1.194187    2.124357   -3.127142
     35          1           0        1.333900    3.334011    0.995806
     36          1           0        1.036220    2.525213   -0.539107
     37          1           0        3.191354    1.273834   -0.312897
     38          1           0        3.508020    2.106720    1.199323
     39          1           0        3.465205    4.309560   -0.018261
     40          1           0        3.156170    3.468032   -1.525701
     41          1           0        5.686650    3.125622    0.193723
     42          1           0        5.583440    4.034108   -1.317445
     43          1           0        5.375601    2.280690   -1.326252
     44          1           0       -1.331217    3.335990   -0.987496
     45          1           0       -1.038376    2.521404    0.545321
     46          1           0       -3.194786    1.272683    0.307374
     47          1           0       -3.506350    2.113950   -1.201192
     48          1           0       -3.463797    4.310334    0.028226
     49          1           0       -3.159658    3.460381    1.531928
     50          1           0       -5.686308    3.130410   -0.195566
     51          1           0       -5.585652    4.030627    1.320724
     52          1           0       -5.380008    2.276923    1.320572
     53          1           0       -1.035401   -2.527871    0.539908
     54          1           0       -1.336930   -3.335474   -0.994891
     55          1           0       -3.509470   -2.104407   -1.194076
     56          1           0       -3.188852   -1.273118    0.318231
     57          1           0       -3.155121   -3.468261    1.529351
     58          1           0       -3.468206   -4.308162    0.021839
     59          1           0       -5.372925   -2.277134    1.334747
     60          1           0       -5.583694   -4.030193    1.324923
     61          1           0       -5.688055   -3.120348   -0.185348
     62          1           0        1.036643   -2.525542   -0.543941
     63          1           0        1.336313   -3.337070    0.989178
     64          1           0        3.508974   -2.108706    1.194118
     65          1           0        3.190370   -1.271090   -0.315076
     66          1           0        3.157050   -3.461237   -1.535307
     67          1           0        3.468514   -4.307439   -0.030980
     68          1           0        5.374813   -2.271348   -1.333714
     69          1           0        5.585298   -4.024472   -1.331016
     70          1           0        5.688505   -3.120926    0.183119
 ---------------------------------------------------------------------

 SCF Done:  E(UB3LYP) =  -1241.81873295     A.U. after   14 cycles

 The electronic state is 1-A.
 Alpha  occ. eigenvalues --  -19.11954 -19.11954 -10.26731 -10.26731 -10.22541
 Alpha  occ. eigenvalues --  -10.22477 -10.21662 -10.21662 -10.21660 -10.21660
 Alpha  occ. eigenvalues --  -10.18334 -10.18334 -10.18333 -10.18333 -10.18253
 Alpha  occ. eigenvalues --  -10.18253 -10.18252 -10.18252 -10.17243 -10.17243
 Alpha  occ. eigenvalues --  -10.17243 -10.17242 -10.16753 -10.16753 -10.16753
 Alpha  occ. eigenvalues --  -10.16752 -10.15804 -10.15804 -10.15804 -10.15804
 Alpha  occ. eigenvalues --   -1.05001  -1.04999  -0.89810  -0.86496  -0.83143
 Alpha  occ. eigenvalues --   -0.82068  -0.80234  -0.80030  -0.78188  -0.77879
 Alpha  occ. eigenvalues --   -0.77523  -0.74202  -0.74071  -0.71975  -0.71907
 Alpha  occ. eigenvalues --   -0.68788  -0.66039  -0.65795  -0.64474  -0.64055
 Alpha  occ. eigenvalues --   -0.60080  -0.59606  -0.58940  -0.58841  -0.58610
 Alpha  occ. eigenvalues --   -0.58331  -0.57312  -0.57062  -0.53708  -0.52092
 Alpha  occ. eigenvalues --   -0.49278  -0.48600  -0.48020  -0.47475  -0.47200
 Alpha  occ. eigenvalues --   -0.46853  -0.45976  -0.45494  -0.44828  -0.44673
 Alpha  occ. eigenvalues --   -0.44645  -0.44283  -0.43635  -0.43485  -0.42907
 Alpha  occ. eigenvalues --   -0.42629  -0.42513  -0.41909  -0.41692  -0.41402
 Alpha  occ. eigenvalues --   -0.41270  -0.40699  -0.39780  -0.39368  -0.39071
 Alpha  occ. eigenvalues --   -0.39025  -0.38488  -0.38343  -0.36734  -0.36507
 Alpha  occ. eigenvalues --   -0.36250  -0.36217  -0.35626  -0.34950  -0.34805
 Alpha  occ. eigenvalues --   -0.34707  -0.33978  -0.33921  -0.33650  -0.33648
 Alpha  occ. eigenvalues --   -0.33491  -0.33237  -0.33222  -0.33162  -0.32806
 Alpha  occ. eigenvalues --   -0.32351  -0.29497  -0.27095  -0.27014  -0.26049
 Alpha  occ. eigenvalues --   -0.25565  -0.24811
 Alpha virt. eigenvalues --   -0.11696  -0.07630  -0.02143  -0.01342  -0.01070
 Alpha virt. eigenvalues --   -0.00598  -0.00574   0.00186   0.00214   0.00459
 Alpha virt. eigenvalues --    0.00538   0.01396   0.01546   0.01771   0.01819

  Beta  occ. eigenvalues --  -19.11954 -19.11954 -10.26731 -10.26731 -10.22541
  Beta  occ. eigenvalues --  -10.22477 -10.21662 -10.21662 -10.21660 -10.21660
  Beta  occ. eigenvalues --  -10.18334 -10.18334 -10.18333 -10.18333 -10.18253
  Beta  occ. eigenvalues --  -10.18253 -10.18252 -10.18252 -10.17243 -10.17243
  Beta  occ. eigenvalues --  -10.17243 -10.17242 -10.16753 -10.16753 -10.16753
  Beta  occ. eigenvalues --  -10.16752 -10.15804 -10.15804 -10.15804 -10.15804
  Beta  occ. eigenvalues --   -1.05001  -1.04999  -0.89810  -0.86496  -0.83143
  Beta  occ. eigenvalues --   -0.82068  -0.80234  -0.80030  -0.78188  -0.77879
  Beta  occ. eigenvalues --   -0.77523  -0.74202  -0.74071  -0.71975  -0.71907
  Beta  occ. eigenvalues --   -0.68788  -0.66039  -0.65795  -0.64474  -0.64055
  Beta  occ. eigenvalues --   -0.60080  -0.59606  -0.58940  -0.58841  -0.58610
  Beta  occ. eigenvalues --   -0.58331  -0.57312  -0.57062  -0.53708  -0.52092
  Beta  occ. eigenvalues --   -0.49278  -0.48600  -0.48020  -0.47475  -0.47200
  Beta  occ. eigenvalues --   -0.46853  -0.45976  -0.45494  -0.44828  -0.44673
  Beta  occ. eigenvalues --   -0.44645  -0.44283  -0.43635  -0.43485  -0.42907
  Beta  occ. eigenvalues --   -0.42629  -0.42513  -0.41909  -0.41692  -0.41402
  Beta  occ. eigenvalues --   -0.41270  -0.40699  -0.39780  -0.39368  -0.39071
  Beta  occ. eigenvalues --   -0.39025  -0.38488  -0.38343  -0.36734  -0.36507
  Beta  occ. eigenvalues --   -0.36250  -0.36217  -0.35626  -0.34950  -0.34805
  Beta  occ. eigenvalues --   -0.34707  -0.33978  -0.33921  -0.33650  -0.33648
  Beta  occ. eigenvalues --   -0.33491  -0.33237  -0.33222  -0.33162  -0.32806
  Beta  occ. eigenvalues --   -0.32351  -0.29497  -0.27095  -0.27014  -0.26049
  Beta  occ. eigenvalues --   -0.25565  -0.24811
  Beta virt. eigenvalues --   -0.11696  -0.07630  -0.02143  -0.01342  -0.01070
  Beta virt. eigenvalues --   -0.00598  -0.00574   0.00186   0.00214   0.00459
  Beta virt. eigenvalues --    0.00538   0.01396   0.01546   0.01771   0.01819

 Mulliken charges and spin densities:
               1          2
     1  C   -0.542698   0.000000
     2  C   -0.285512   0.000000
     3  C   -0.284267  -0.000000
     4  C    1.161559  -0.000000
     5  C   -0.013201   0.000000
     6  C    1.164477  -0.000000
     7  C   -0.012464   0.000000
     8  C    1.164522  -0.000000
     9  C    1.162530   0.000000
    10  C   -0.285668  -0.000000
    11  C   -0.284587  -0.000000
    12  C   -0.542700   0.000000
    13  O   -0.349130   0.000000
    14  O   -0.349113  -0.000000
    15  C   -0.460812   0.000000
    16  C   -0.606780   0.000000
    17  C   -0.228803  -0.000000
    18  C   -0.650247   0.000000
    19  C   -0.459727   0.000000
    20  C   -0.611130  -0.000000
    21  C   -0.225669   0.000000
    22  C   -0.650694  -0.000000
    23  C   -0.463682  -0.000000
    24  C   -0.604724   0.000000
    25  C   -0.230519  -0.000000
    26  C   -0.650115   0.000000
    27  C   -0.463400   0.000000
    28  C   -0.607103   0.000000
    29  C   -0.228175  -0.000000
    30  C   -0.650278   0.000000
    31  H    0.225849  -0.000000
    32  H    0.225847   0.000000
    33  H    0.225786  -0.000000
    34  H    0.225927  -0.000000
    35  H    0.216108  -0.000000
    36  H    0.133440   0.000000
    37  H    0.027781   0.000000
    38  H    0.195069  -0.000000
    39  H    0.152652   0.000000
    40  H    0.131940  -0.000000
    41  H    0.139988   0.000000
    42  H    0.152292   0.000000
    43  H    0.147013  -0.000000
    44  H    0.216251   0.000000
    45  H    0.133446   0.000000
    46  H    0.026213  -0.000000
    47  H    0.194787   0.000000
    48  H    0.152678  -0.000000
    49  H    0.131947  -0.000000
    50  H    0.140015  -0.000000
    51  H    0.152308   0.000000
    52  H    0.146954  -0.000000
    53  H    0.134003   0.000000
    54  H    0.215870   0.000000
    55  H    0.195225  -0.000000
    56  H    0.028781   0.000000
    57  H    0.131822  -0.000000
    58  H    0.152724  -0.000000
    59  H    0.147079  -0.000000
    60  H    0.152274   0.000000
    61  H    0.139975  -0.000000
    62  H    0.134030  -0.000000
    63  H    0.215902   0.000000
    64  H    0.195084   0.000000
    65  H    0.027160   0.000000
    66  H    0.131782  -0.000000
    67  H    0.152777  -0.000000
    68  H    0.147046  -0.000000
    69  H    0.152290   0.000000
    70  H    0.139992  -0.000000
 Sum of Mulliken charges =  -0.00000  -0.00000

 Dipole moment (field-independent basis, Debye):
    X=             -0.0000    Y=              0.0046    Z=             -0.0002  Tot=              0.0046
 Quadrupole moment (field-independent basis, Debye-Ang):
   XX=           -178.7450   YY=           -166.5473   ZZ=           -253.9438
   XY=              0.0019   XZ=             -1.3225   YZ=              0.0620

 Normal termination of Gaussian 16 at Sat Jan 13 19:57:30 2024.
