 Q-Chem 5.4, Q-Chem, Inc., Pleasanton, CA (2021)
 Q-Chem 5.4.0 for Intel X86 EM64T Linux

User input:
--------------------------------------------------------------
$molecule
0 1
C                 -1.1483300000      0.3406510000     -2.9901310000
C                 -1.9905490000      0.8155620000     -1.8726550000
C                  0.3021540000      0.3717300000     -2.7094940000
C                  0.7820600000      0.4388360000     -1.4509210000
C                 -0.1990650000      0.2440400000     -0.3384690000
C                 -1.5233560000      0.8850430000     -0.6094600000
C                  0.0481730000     -0.5445570000      0.7576540000
C                 -0.9332520000     -0.7396730000      1.8697930000
C                  1.3725190000     -1.1852290000      1.0290200000
C                 -0.4538350000     -0.6725860000      3.1285370000
C                  1.8392620000     -1.1156400000      2.2923860000
C                  0.9965570000     -0.6410730000      3.4096320000
O                 -1.6009300000      0.1003050000     -4.1027220000
O                  1.4487440000     -0.4006880000      4.5223810000
C                  2.2132080000      0.8634770000     -1.1934930000
C                  2.3300650000      2.4015110000     -1.1145310000
C                  3.7670110000      2.8683130000     -0.8547510000
C                  3.8961460000      4.3925900000     -0.7835320000
C                  2.0855630000     -2.0247810000     -0.0109480000
C                  1.6137030000     -3.4943850000      0.0443360000
C                  2.3128800000     -4.3751000000     -0.9975940000
C                  1.8587530000     -5.8366920000     -0.9455160000
C                 -2.3640870000     -1.1649490000      1.6116790000
C                 -2.4796700000     -2.7028960000      1.5293400000
C                 -3.9163470000     -3.1703340000      1.2692150000
C                 -4.0442060000     -4.6945520000      1.1945230000
C                 -2.2355610000      1.7250210000      0.4306670000
C                 -1.7587140000      3.1931460000      0.3790810000
C                 -2.4576480000      4.0743770000      1.4207460000
C                 -1.9983530000      5.5344860000      1.3725640000
H                 -2.9687910000      1.2023990000     -2.1406080000
H                  0.9559260000      0.4425130000     -3.5731890000
H                 -1.1078720000     -0.7437790000      3.9919940000
H                  2.8175850000     -1.5020790000      2.5606320000
H                  2.8512040000      0.4994020000     -2.0051240000
H                  2.6007620000      0.4501280000     -0.2634080000
H                  1.6772330000      2.7751970000     -0.3170130000
H                  1.9606980000      2.8402620000     -2.0479670000
H                  4.4200080000      2.4826140000     -1.6470570000
H                  4.1279790000      2.4262800000      0.0814080000
H                  3.5734800000      4.8616470000     -1.7181780000
H                  4.9306890000      4.6948630000     -0.6002360000
H                  3.2824250000      4.8047470000      0.0233830000
H                  3.1643250000     -1.9903860000      0.1718570000
H                  1.9138620000     -1.6555910000     -1.0210750000
H                  0.5298080000     -3.5343330000     -0.1151230000
H                  1.7936780000     -3.8938340000      1.0484770000
H                  3.3975760000     -4.3234470000     -0.8436980000
H                  2.1263090000     -3.9693720000     -1.9989260000
H                  2.0625400000     -6.2802910000      0.0339690000
H                  2.3754380000     -6.4396010000     -1.6970340000
H                  0.7839400000     -5.9242610000     -1.1319460000
H                 -2.7522340000     -0.7498990000      0.6825910000
H                 -3.0021710000     -0.8031730000      2.4242700000
H                 -2.1094700000     -3.1434340000      2.4616040000
H                 -1.8269380000     -3.0742090000      0.7306230000
H                 -4.2781750000     -2.7264410000      0.3342700000
H                 -4.5692640000     -2.7870380000      2.0627500000
H                 -3.4305920000     -5.1042980000      0.3862990000
H                 -5.0785920000     -4.9972900000      1.0111050000
H                 -3.7206090000     -5.1655040000      2.1278930000
H                 -2.0672780000      1.3535430000      1.4405280000
H                 -3.3140280000      1.6944760000      0.2454500000
H                 -1.9348090000      3.5949280000     -0.6248200000
H                 -0.6751160000      3.2292090000      0.5414550000
H                 -2.2751420000      3.6661830000      2.4218250000
H                 -3.5420960000      4.0267400000      1.2638560000
H                 -0.9237640000      5.6180080000      1.5621130000
H                 -2.5150260000      6.1378160000      2.1237530000
H                 -2.1979200000      5.9805530000      0.3933300000
$end

$rem
BASIS  =  6-311++G(d,p)
GUI  =  2
THRESH = 14
JOB_TYPE  =  SP
METHOD  =  B3LYP
SCF_CONVERGENCE  = 5
SOLVENT_METHOD = sm12
$end

$smx
solvent dimethylformamide
charges CM5
$end

--------------------------------------------------------------

             Standard Nuclear Orientation (Angstroms)
    I     Atom           X                Y                Z
 ----------------------------------------------------------------
    1      C      -1.1483300000     0.3406510000    -2.9901310000
    2      C      -1.9905490000     0.8155620000    -1.8726550000
    3      C       0.3021540000     0.3717300000    -2.7094940000
    4      C       0.7820600000     0.4388360000    -1.4509210000
    5      C      -0.1990650000     0.2440400000    -0.3384690000
    6      C      -1.5233560000     0.8850430000    -0.6094600000
    7      C       0.0481730000    -0.5445570000     0.7576540000
    8      C      -0.9332520000    -0.7396730000     1.8697930000
    9      C       1.3725190000    -1.1852290000     1.0290200000
   10      C      -0.4538350000    -0.6725860000     3.1285370000
   11      C       1.8392620000    -1.1156400000     2.2923860000
   12      C       0.9965570000    -0.6410730000     3.4096320000
   13      O      -1.6009300000     0.1003050000    -4.1027220000
   14      O       1.4487440000    -0.4006880000     4.5223810000
   15      C       2.2132080000     0.8634770000    -1.1934930000
   16      C       2.3300650000     2.4015110000    -1.1145310000
   17      C       3.7670110000     2.8683130000    -0.8547510000
   18      C       3.8961460000     4.3925900000    -0.7835320000
   19      C       2.0855630000    -2.0247810000    -0.0109480000
   20      C       1.6137030000    -3.4943850000     0.0443360000
   21      C       2.3128800000    -4.3751000000    -0.9975940000
   22      C       1.8587530000    -5.8366920000    -0.9455160000
   23      C      -2.3640870000    -1.1649490000     1.6116790000
   24      C      -2.4796700000    -2.7028960000     1.5293400000
   25      C      -3.9163470000    -3.1703340000     1.2692150000
   26      C      -4.0442060000    -4.6945520000     1.1945230000
   27      C      -2.2355610000     1.7250210000     0.4306670000
   28      C      -1.7587140000     3.1931460000     0.3790810000
   29      C      -2.4576480000     4.0743770000     1.4207460000
   30      C      -1.9983530000     5.5344860000     1.3725640000
   31      H      -2.9687910000     1.2023990000    -2.1406080000
   32      H       0.9559260000     0.4425130000    -3.5731890000
   33      H      -1.1078720000    -0.7437790000     3.9919940000
   34      H       2.8175850000    -1.5020790000     2.5606320000
   35      H       2.8512040000     0.4994020000    -2.0051240000
   36      H       2.6007620000     0.4501280000    -0.2634080000
   37      H       1.6772330000     2.7751970000    -0.3170130000
   38      H       1.9606980000     2.8402620000    -2.0479670000
   39      H       4.4200080000     2.4826140000    -1.6470570000
   40      H       4.1279790000     2.4262800000     0.0814080000
   41      H       3.5734800000     4.8616470000    -1.7181780000
   42      H       4.9306890000     4.6948630000    -0.6002360000
   43      H       3.2824250000     4.8047470000     0.0233830000
   44      H       3.1643250000    -1.9903860000     0.1718570000
   45      H       1.9138620000    -1.6555910000    -1.0210750000
   46      H       0.5298080000    -3.5343330000    -0.1151230000
   47      H       1.7936780000    -3.8938340000     1.0484770000
   48      H       3.3975760000    -4.3234470000    -0.8436980000
   49      H       2.1263090000    -3.9693720000    -1.9989260000
   50      H       2.0625400000    -6.2802910000     0.0339690000
   51      H       2.3754380000    -6.4396010000    -1.6970340000
   52      H       0.7839400000    -5.9242610000    -1.1319460000
   53      H      -2.7522340000    -0.7498990000     0.6825910000
   54      H      -3.0021710000    -0.8031730000     2.4242700000
   55      H      -2.1094700000    -3.1434340000     2.4616040000
   56      H      -1.8269380000    -3.0742090000     0.7306230000
   57      H      -4.2781750000    -2.7264410000     0.3342700000
   58      H      -4.5692640000    -2.7870380000     2.0627500000
   59      H      -3.4305920000    -5.1042980000     0.3862990000
   60      H      -5.0785920000    -4.9972900000     1.0111050000
   61      H      -3.7206090000    -5.1655040000     2.1278930000
   62      H      -2.0672780000     1.3535430000     1.4405280000
   63      H      -3.3140280000     1.6944760000     0.2454500000
   64      H      -1.9348090000     3.5949280000    -0.6248200000
   65      H      -0.6751160000     3.2292090000     0.5414550000
   66      H      -2.2751420000     3.6661830000     2.4218250000
   67      H      -3.5420960000     4.0267400000     1.2638560000
   68      H      -0.9237640000     5.6180080000     1.5621130000
   69      H      -2.5150260000     6.1378160000     2.1237530000
   70      H      -2.1979200000     5.9805530000     0.3933300000
 ----------------------------------------------------------------

    8   -1241.7999085943      9.46e-06  Convergence criterion met
 Total energy in the final basis set =    -1241.8286266208

                    Orbital Energies (a.u.)
 --------------------------------------------------------------

 Alpha MOs
 -- Occupied --
-19.1105 -19.1105 -10.2605 -10.2605 -10.2216 -10.2210 -10.2124 -10.2123
-10.2123 -10.2123 -10.1800 -10.1800 -10.1799 -10.1799 -10.1797 -10.1797
-10.1797 -10.1797 -10.1718 -10.1718 -10.1718 -10.1718 -10.1676 -10.1676
-10.1676 -10.1676 -10.1581 -10.1581 -10.1581 -10.1581  -1.0405  -1.0404
 -0.8948  -0.8615  -0.8294  -0.8190  -0.8016  -0.7994  -0.7808  -0.7773
 -0.7712  -0.7405  -0.7388  -0.7178  -0.7172  -0.6845  -0.6590  -0.6560
 -0.6429  -0.6386  -0.5967  -0.5942  -0.5891  -0.5878  -0.5855  -0.5816
 -0.5698  -0.5671  -0.5339  -0.5167  -0.4902  -0.4829  -0.4790  -0.4713
 -0.4681  -0.4661  -0.4582  -0.4502  -0.4446  -0.4441  -0.4421  -0.4401
 -0.4344  -0.4305  -0.4279  -0.4232  -0.4221  -0.4164  -0.4143  -0.4119
 -0.4110  -0.4016  -0.3955  -0.3909  -0.3894  -0.3867  -0.3828  -0.3825
 -0.3649  -0.3638  -0.3610  -0.3609  -0.3549  -0.3472  -0.3469  -0.3461
 -0.3395  -0.3387  -0.3359  -0.3344  -0.3339  -0.3323  -0.3322  -0.3314
 -0.3283  -0.3215  -0.2904  -0.2646  -0.2645  -0.2550  -0.2509  -0.2440

          Ground-State Mulliken Net Atomic Charges

     Atom                 Charge (a.u.)
  ----------------------------------------
      1 C                    -1.919797
      2 C                    -0.591400
      3 C                    -0.587868
      4 C                     1.390799
      5 C                     0.096125
      6 C                     1.382495
      7 C                     0.096487
      8 C                     1.393539
      9 C                     1.380814
     10 C                    -0.589580
     11 C                    -0.589747
     12 C                    -1.919813
     13 O                    -0.403242
     14 O                    -0.403226
     15 C                     0.432456
     16 C                    -0.661751
     17 C                    -0.199698
     18 C                    -0.775373
     19 C                     0.432728
     20 C                    -0.660415
     21 C                    -0.197323
     22 C                    -0.774718
     23 C                     0.429079
     24 C                    -0.660550
     25 C                    -0.201556
     26 C                    -0.775244
     27 C                     0.429526
     28 C                    -0.657157
     29 C                    -0.199996
     30 C                    -0.774384
     31 H                     0.213999
     32 H                     0.214496
     33 H                     0.214346
     34 H                     0.214142
     35 H                     0.279270
     36 H                     0.234919
     37 H                    -0.058204
     38 H                     0.166901
     39 H                     0.153087
     40 H                     0.115101
     41 H                     0.135598
     42 H                     0.143083
     43 H                     0.137959
     44 H                     0.279561
     45 H                     0.231668
     46 H                    -0.061662
     47 H                     0.166948
     48 H                     0.152893
     49 H                     0.115521
     50 H                     0.135557
     51 H                     0.143119
     52 H                     0.137999
     53 H                     0.235111
     54 H                     0.279120
     55 H                     0.167064
     56 H                    -0.056846
     57 H                     0.114980
     58 H                     0.153146
     59 H                     0.138033
     60 H                     0.143070
     61 H                     0.135617
     62 H                     0.231963
     63 H                     0.279293
     64 H                     0.167273
     65 H                    -0.060427
     66 H                     0.115353
     67 H                     0.152978
     68 H                     0.138096
     69 H                     0.143095
     70 H                     0.135567
  ----------------------------------------
  Sum of atomic charges =     0.000000

                    Cartesian Multipole Moments
 -----------------------------------------------------------------
    Charge (ESU x 10^10)
                 0.0000
    Dipole Moment (Debye)
         X       0.0036      Y      -0.0006      Z      -0.0011
       Tot       0.0038
    Quadrupole Moments (Debye-Ang)
        XX    -177.5924     XY      -2.8453     YY    -178.5132
        XZ     -26.0659     YZ      -1.9762     ZZ    -237.9440

 Total job time:  5675.37s(wall), 21741.37s(cpu)
        *  Thank you very much for using Q-Chem.  Have a nice day.  *
