 Gaussian 16, Revision A.03,
 Gaussian 16:  ES64L-G16RevA.03 25-Dec-2016

 ----------------------------------------------------------------------
 #P UB3LYP/6-311++G(d,p) nosym opt freq SCRF=(PCM,Solvent=n,n-DiMethylF
 ormamide)
 ----------------------------------------------------------------------

 -------
 Reduced
 -------
 Symbolic Z-matrix:
 Charge = -2 Multiplicity = 1

 SCF Done:  E(UB3LYP) =  -5758.02793296     A.U. after   16 cycles
 SCF Done:  E(UB3LYP) =  -5758.02914138     A.U. after   14 cycles
 SCF Done:  E(UB3LYP) =  -5758.02980500     A.U. after   14 cycles
 SCF Done:  E(UB3LYP) =  -5758.02995871     A.U. after   13 cycles
 SCF Done:  E(UB3LYP) =  -5758.03000018     A.U. after   13 cycles
 SCF Done:  E(UB3LYP) =  -5758.03001323     A.U. after   12 cycles
 SCF Done:  E(UB3LYP) =  -5758.03001974     A.U. after   12 cycles
 SCF Done:  E(UB3LYP) =  -5758.03002148     A.U. after   10 cycles
 SCF Done:  E(UB3LYP) =  -5758.03002185     A.U. after   10 cycles
 SCF Done:  E(UB3LYP) =  -5758.03002194     A.U. after    9 cycles
 SCF Done:  E(UB3LYP) =  -5758.03002197     A.U. after    9 cycles
 Optimization completed.
    -- Stationary point found.
 Normal termination of Gaussian 16 at Sat Feb 10 13:00:57 2024.

 ----------------------------------------------------------------------
 #P Geom=AllCheck Guess=TCheck SCRF=Check GenChk UB3LYP/6-311++G(d,p) F
 req
 ----------------------------------------------------------------------

 Structure from the checkpoint file:  "088-an.chk"
 -------
 Reduced
 -------
 Charge = -2 Multiplicity = 1

                          Input orientation:
 ---------------------------------------------------------------------
 Center     Atomic      Atomic             Coordinates (Angstroms)
 Number     Number       Type             X           Y           Z
 ---------------------------------------------------------------------
      1          6           0        1.730456    0.931025   -0.990633
      2          6           0        0.545273    1.386667   -0.350447
      3          6           0       -0.384785    0.529862    0.275108
      4          6           0       -0.223935   -0.880921    0.358299
      5          6           0        0.972112   -1.342175   -0.295892
      6          6           0        1.883211   -0.498011   -0.923651
      7          8           0        2.587282    1.688050   -1.599535
      8          8           0       -1.031922   -1.692849    0.964875
      9          8           0        2.961899   -1.071265   -1.585593
     10          6           0        4.214503   -0.906503   -0.917422
     11         35           0        0.236820    3.300248   -0.459856
     12         35           0       -1.960724    1.238230    1.161076
     13          1           0        4.433739    0.152800   -0.763828
     14          1           0        4.977555   -1.348657   -1.560751
     15          1           0        4.210397   -1.429438    0.046401
     16          8           0        1.268589   -2.698072   -0.237100
     17          6           0        0.447125   -3.511596   -1.077898
     18          1           0       -0.607927   -3.378393   -0.827924
     19          1           0        0.739241   -4.548088   -0.899177
     20          1           0        0.614858   -3.267823   -2.133789
 ---------------------------------------------------------------------

 SCF Done:  E(UB3LYP) =  -5758.03002197     A.U. after    1 cycles

 Alpha  occ. eigenvalues -- -482.80738-482.80722 -62.46014 -62.45998 -56.28026
 Alpha  occ. eigenvalues --  -56.28010 -56.27685 -56.27669 -56.27655 -56.27638
 Alpha  occ. eigenvalues --  -19.11767 -19.11755 -19.02281 -19.02270 -10.19726
 Alpha  occ. eigenvalues --  -10.19679 -10.18819 -10.18777 -10.18772 -10.18735
 Alpha  occ. eigenvalues --  -10.18723 -10.18697  -8.66975  -8.66959  -6.50035
 Alpha  occ. eigenvalues --   -6.50019  -6.48899  -6.48884  -6.48810  -6.48793
 Alpha  occ. eigenvalues --   -2.61143  -2.61127  -2.60833  -2.60817  -2.60765
 Alpha  occ. eigenvalues --   -2.60749  -2.59861  -2.59861  -2.59845  -2.59844
 Alpha  occ. eigenvalues --   -1.03794  -1.01860  -0.93739  -0.93376  -0.82109
 Alpha  occ. eigenvalues --   -0.76729  -0.76579  -0.70306  -0.69148  -0.64494
 Alpha  occ. eigenvalues --   -0.63949  -0.55310  -0.54410  -0.49036  -0.47168
 Alpha  occ. eigenvalues --   -0.46510  -0.45061  -0.43086  -0.42447  -0.41358
 Alpha  occ. eigenvalues --   -0.40149  -0.37546  -0.36848  -0.35866  -0.35063
 Alpha  occ. eigenvalues --   -0.33563  -0.33288  -0.32523  -0.29706  -0.28689
 Alpha  occ. eigenvalues --   -0.27982  -0.26433  -0.26198  -0.25424  -0.22810
 Alpha  occ. eigenvalues --   -0.20365  -0.20334  -0.20263  -0.12995
 Alpha virt. eigenvalues --   -0.02031   0.00137   0.01314   0.01637   0.01809
 Alpha virt. eigenvalues --    0.02419   0.02998   0.03787   0.04320   0.04424
 Alpha virt. eigenvalues --    0.04919   0.05216   0.06402   0.06541   0.06579

  Beta  occ. eigenvalues -- -482.80738-482.80722 -62.46014 -62.45998 -56.28026
  Beta  occ. eigenvalues --  -56.28010 -56.27685 -56.27669 -56.27655 -56.27638
  Beta  occ. eigenvalues --  -19.11767 -19.11755 -19.02281 -19.02270 -10.19726
  Beta  occ. eigenvalues --  -10.19679 -10.18819 -10.18777 -10.18772 -10.18735
  Beta  occ. eigenvalues --  -10.18723 -10.18697  -8.66975  -8.66959  -6.50035
  Beta  occ. eigenvalues --   -6.50019  -6.48899  -6.48884  -6.48810  -6.48793
  Beta  occ. eigenvalues --   -2.61143  -2.61127  -2.60833  -2.60817  -2.60765
  Beta  occ. eigenvalues --   -2.60749  -2.59861  -2.59861  -2.59845  -2.59844
  Beta  occ. eigenvalues --   -1.03794  -1.01860  -0.93739  -0.93376  -0.82109
  Beta  occ. eigenvalues --   -0.76729  -0.76579  -0.70306  -0.69148  -0.64494
  Beta  occ. eigenvalues --   -0.63949  -0.55310  -0.54410  -0.49036  -0.47168
  Beta  occ. eigenvalues --   -0.46510  -0.45061  -0.43086  -0.42447  -0.41358
  Beta  occ. eigenvalues --   -0.40149  -0.37546  -0.36848  -0.35866  -0.35063
  Beta  occ. eigenvalues --   -0.33563  -0.33288  -0.32523  -0.29706  -0.28689
  Beta  occ. eigenvalues --   -0.27982  -0.26433  -0.26198  -0.25424  -0.22810
  Beta  occ. eigenvalues --   -0.20365  -0.20334  -0.20263  -0.12995
  Beta virt. eigenvalues --   -0.02031   0.00137   0.01314   0.01637   0.01809
  Beta virt. eigenvalues --    0.02419   0.02998   0.03787   0.04320   0.04424
  Beta virt. eigenvalues --    0.04919   0.05216   0.06402   0.06541   0.06579

 Mulliken charges and spin densities:
               1          2
     1  C   -0.459228  -0.000000
     2  C    0.277218   0.000000
     3  C    0.290807  -0.000000
     4  C   -0.476439   0.000000
     5  C    0.018787   0.000000
     6  C    0.062254  -0.000000
     7  O   -0.643427  -0.000000
     8  O   -0.644445   0.000000
     9  O   -0.197973   0.000000
    10  C   -0.262285   0.000000
    11  Br  -0.203845  -0.000000
    12  Br  -0.204429   0.000000
    13  H    0.166909  -0.000000
    14  H    0.143656   0.000000
    15  H    0.140352  -0.000000
    16  O   -0.197265  -0.000000
    17  C   -0.260471  -0.000000
    18  H    0.168548   0.000000
    19  H    0.143452   0.000000
    20  H    0.137825   0.000000
 Sum of Mulliken charges =  -2.00000  -0.00000

 Dipole moment (field-independent basis, Debye):
    X=             -5.0120    Y=             -3.4038    Z=              2.1116  Tot=              6.4159
 Quadrupole moment (field-independent basis, Debye-Ang):
   XX=           -144.4653   YY=           -149.1098   ZZ=           -132.5610
   XY=            -14.6291   XZ=             24.3407   YZ=             16.8417

  Exact polarizability: 260.317  -9.560 294.286 -58.417  -8.282 186.664
 Approx polarizability: 279.995  -4.863 314.963 -64.336 -13.931 206.484

                      1                      2                      3
                      A                      A                      A
 Frequencies --     49.3596                62.5277                71.5274
 Red. masses --      8.7163                 3.5113                 3.4369
 Frc consts  --      0.0125                 0.0081                 0.0104
 IR Inten    --      1.0402                14.7472                 8.5433

                      4                      5                      6
                      A                      A                      A
 Frequencies --     89.1931               107.0525               133.1020
 Red. masses --      4.1606                 4.9108                53.4620
 Frc consts  --      0.0195                 0.0332                 0.5580
 IR Inten    --     21.7946                 2.5312                 2.9238

                      7                      8                      9
                      A                      A                      A
 Frequencies --    158.5671               169.0745               172.9719
 Red. masses --      2.2279                 1.0654                 1.8188
 Frc consts  --      0.0330                 0.0179                 0.0321
 IR Inten    --      4.8866                 0.8676                 8.2418

                     10                     11                     12
                      A                      A                      A
 Frequencies --    197.4465               222.5212               234.3424
 Red. masses --      6.8748                 7.2950                 6.9441
 Frc consts  --      0.1579                 0.2128                 0.2247
 IR Inten    --      3.4592                 0.2014                 3.7053

                     13                     14                     15
                      A                      A                      A
 Frequencies --    261.6810               280.4838               329.7036
 Red. masses --     12.0265                10.9553                 7.9012
 Frc consts  --      0.4852                 0.5078                 0.5060
 IR Inten    --      4.6017                18.6075                 1.8176

                     16                     17                     18
                      A                      A                      A
 Frequencies --    347.4088               349.9412               404.8438
 Red. masses --      8.0173                10.6119                 8.9869
 Frc consts  --      0.5701                 0.7657                 0.8678
 IR Inten    --      0.6109                 3.3514                 3.1734

                     19                     20                     21
                      A                      A                      A
 Frequencies --    445.7252               494.1651               553.9098
 Red. masses --      8.1107                13.7799                 6.5923
 Frc consts  --      0.9494                 1.9826                 1.1917
 IR Inten    --      5.7085                10.1834                 7.2813

                     22                     23                     24
                      A                      A                      A
 Frequencies --    599.4434               724.5423               733.7693
 Red. masses --      9.7479                10.9223                10.4102
 Frc consts  --      2.0638                 3.3783                 3.3024
 IR Inten    --      0.1221                12.9068                93.9171

                     25                     26                     27
                      A                      A                      A
 Frequencies --    746.8922               774.0357               791.4602
 Red. masses --     11.1755                 8.3054                10.9096
 Frc consts  --      3.6731                 2.9318                 4.0264
 IR Inten    --      7.7077                56.4583               268.2027

                     28                     29                     30
                      A                      A                      A
 Frequencies --    956.5170               997.6677              1075.6451
 Red. masses --      8.0658                 7.4855                12.3698
 Frc consts  --      4.3479                 4.3898                 8.4324
 IR Inten    --    152.5218                20.9334               386.2061

                     31                     32                     33
                      A                      A                      A
 Frequencies --   1111.6788              1149.8942              1157.1322
 Red. masses --      9.5607                 5.5606                 1.2755
 Frc consts  --      6.9614                 4.3320                 1.0062
 IR Inten    --     22.4043               712.7389                26.3735

                     34                     35                     36
                      A                      A                      A
 Frequencies --   1159.2062              1188.3611              1215.1575
 Red. masses --      1.3402                 2.1124                 1.5893
 Frc consts  --      1.0610                 1.7576                 1.3827
 IR Inten    --     29.2359                42.1202                87.9631

                     37                     38                     39
                      A                      A                      A
 Frequencies --   1230.5161              1324.7716              1399.4120
 Red. masses --      2.9549                11.4755                 6.9209
 Frc consts  --      2.6362                11.8660                 7.9855
 IR Inten    --     55.3327                17.5314              1910.5961

                     40                     41                     42
                      A                      A                      A
 Frequencies --   1416.6708              1432.9935              1456.8237
 Red. masses --      4.4320                 2.8205                 1.4758
 Frc consts  --      5.2407                 3.4124                 1.8454
 IR Inten    --    265.9258               100.9096                31.0394

                     43                     44                     45
                      A                      A                      A
 Frequencies --   1464.3467              1474.7033              1476.5013
 Red. masses --      1.4194                 1.1001                 1.1511
 Frc consts  --      1.7933                 1.4096                 1.4785
 IR Inten    --     24.3000                 4.4552                25.3986

                     46                     47                     48
                      A                      A                      A
 Frequencies --   1498.0955              1498.6549              1584.9536
 Red. masses --      1.0518                 1.0514                10.4464
 Frc consts  --      1.3908                 1.3913                15.4614
 IR Inten    --     20.8856                17.5992                25.9457

                     49                     50                     51
                      A                      A                      A
 Frequencies --   2996.3614              2997.1296              3067.8619
 Red. masses --      1.0362                 1.0364                 1.0969
 Frc consts  --      5.4815                 5.4850                 6.0824
 IR Inten    --    154.7647               113.4990                65.3342

                     52                     53                     54
                      A                      A                      A
 Frequencies --   3069.2269              3102.9744              3103.7467
 Red. masses --      1.0967                 1.1047                 1.1050
 Frc consts  --      6.0868                 6.2668                 6.2716
 IR Inten    --     52.5814                53.5459                59.5580

 - Thermochemistry -
 -------------------
 Temperature   298.150 Kelvin.  Pressure   1.00000 Atm.
 Atom     1 has atomic number  6 and mass  12.00000

 Molecular mass:   323.86328 amu.
 Principal axes and moments of inertia in atomic units:
                           1         2         3
     Eigenvalues --  3630.679385606.505558935.57369
           X           -0.56558   0.68348   0.46149
           Y            0.78964   0.61022   0.06399
           Z            0.23787  -0.40061   0.88483
 This molecule is an asymmetric top.
 Rotational symmetry number  1.
 Warning -- assumption of classical behavior for rotation
           may cause significant error
 Rotational temperatures (Kelvin)      0.02386     0.01545     0.00969
 Rotational constants (GHZ):           0.49708     0.32190     0.20197
 Zero-point vibrational energy     329647.1 (Joules/Mol)
                                   78.78755 (Kcal/Mol)
 Warning -- explicit consideration of  22 degrees of freedom as
           vibrations may cause significant error
 Vibrational temperatures:     71.02    89.96   102.91   128.33   154.02
          (Kelvin)            191.50   228.14   243.26   248.87   284.08
                              320.16   337.17   376.50   403.55   474.37
                              499.84   503.49   582.48   641.30   710.99
                              796.95   862.47  1042.45  1055.73  1074.61
                             1113.66  1138.73  1376.21  1435.42  1547.61
                             1599.46  1654.44  1664.86  1667.84  1709.79
                             1748.34  1770.44  1906.05  2013.44  2038.27
                             2061.76  2096.04  2106.87  2121.77  2124.36
                             2155.43  2156.23  2280.39  4311.10  4312.20
                             4413.97  4415.93  4464.49  4465.60

 Zero-point correction=                           0.125556 (Hartree/Particle)
 Thermal correction to Energy=                    0.140363
 Thermal correction to Enthalpy=                  0.141307
 Thermal correction to Gibbs Free Energy=         0.081641
 Sum of electronic and zero-point Energies=          -5757.904466
 Sum of electronic and thermal Energies=             -5757.889659
 Sum of electronic and thermal Enthalpies=           -5757.888715
 Sum of electronic and thermal Free Energies=        -5757.948381

                     E (Thermal)             CV                S
                      KCal/Mol        Cal/Mol-Kelvin    Cal/Mol-Kelvin
 Total                   88.079             50.579            125.580
 Electronic               0.000              0.000              0.000
 Translational            0.889              2.981             43.221
 Rotational               0.889              2.981             33.564
 Vibrational             86.302             44.617             48.795
 Vibration     1          0.595              1.978              4.843
 Vibration     2          0.597              1.972              4.376
 Vibration     3          0.598              1.968              4.111
 Vibration     4          0.602              1.957              3.678
 Vibration     5          0.606              1.944              3.322
 Vibration     6          0.613              1.920              2.901
 Vibration     7          0.621              1.893              2.567
 Vibration     8          0.625              1.881              2.446
 Vibration     9          0.626              1.876              2.403
 Vibration    10          0.637              1.843              2.157
 Vibration    11          0.648              1.807              1.938
 Vibration    12          0.654              1.788              1.845
 Vibration    13          0.669              1.743              1.651
 Vibration    14          0.680              1.710              1.531
 Vibration    15          0.712              1.616              1.262
 Vibration    16          0.725              1.581              1.178
 Vibration    17          0.727              1.575              1.166
 Vibration    18          0.770              1.460              0.945
 Vibration    19          0.805              1.370              0.809
 Vibration    20          0.850              1.263              0.673
 Vibration    21          0.909              1.131              0.536
 Vibration    22          0.958              1.033              0.451

 Optimization completed.
    -- Stationary point found.
 Normal termination of Gaussian 16 at Sat Feb 10 13:31:30 2024.
