 Q-Chem 5.4, Q-Chem, Inc., Pleasanton, CA (2021)
 Q-Chem 5.4.0 for Intel X86 EM64T Linux

User input:
--------------------------------------------------------------
$molecule
-1 2
O                  2.2683610000      2.7678710000     -0.2350070000
C                  2.3610360000      1.4188870000     -0.1534720000
C                  3.6134040000      0.8335170000      0.0115400000
C                  3.7377740000     -0.5560230000      0.1140320000
C                  2.6001360000     -1.3647980000      0.0316260000
C                  1.3400240000     -0.8009310000     -0.1509590000
C                  0.1239750000     -1.6689730000     -0.3846200000
C                 -1.1891030000     -1.0228170000     -0.0035760000
C                 -2.3027020000     -1.7949760000      0.3173250000
C                 -3.5461530000     -1.1950360000      0.5385280000
C                 -3.6774690000      0.1938950000      0.4365930000
C                 -2.5731630000      0.9860770000      0.1343140000
O                 -2.7256780000      2.3296650000      0.0564480000
C                 -1.2915720000      0.3899880000     -0.0838450000
C                 -0.1243080000      1.2119580000     -0.3081890000
O                 -0.2467710000      2.5203540000     -0.4372260000
C                  1.1857830000      0.6074700000     -0.2283040000
H                  1.2859100000      2.9561070000     -0.3384260000
H                  4.4800250000      1.4836530000      0.0690860000
H                  4.7171990000     -1.0028150000      0.2526860000
H                  2.6961300000     -2.4455500000      0.0943840000
H                  0.2381340000     -2.6318810000      0.1249090000
H                  0.0817300000     -1.9053200000     -1.4645420000
H                 -2.2018530000     -2.8753040000      0.3797200000
H                 -4.4106370000     -1.8035500000      0.7845260000
H                 -4.6312880000      0.6842730000      0.6002730000
H                 -1.8089240000      2.6842590000     -0.1578240000
$end

$rem
BASIS  =  6-311++G(d,p)
GUI  =  2
JOB_TYPE  =  SP
METHOD  =  B3LYP
SCF_CONVERGENCE  = 8
SOLVENT_METHOD = sm12
$end

$smx
solvent dimethylformamide
charges CM5
$end

--------------------------------------------------------------

             Standard Nuclear Orientation (Angstroms)
    I     Atom           X                Y                Z
 ----------------------------------------------------------------
    1      O       2.2683610000     2.7678710000    -0.2350070000
    2      C       2.3610360000     1.4188870000    -0.1534720000
    3      C       3.6134040000     0.8335170000     0.0115400000
    4      C       3.7377740000    -0.5560230000     0.1140320000
    5      C       2.6001360000    -1.3647980000     0.0316260000
    6      C       1.3400240000    -0.8009310000    -0.1509590000
    7      C       0.1239750000    -1.6689730000    -0.3846200000
    8      C      -1.1891030000    -1.0228170000    -0.0035760000
    9      C      -2.3027020000    -1.7949760000     0.3173250000
   10      C      -3.5461530000    -1.1950360000     0.5385280000
   11      C      -3.6774690000     0.1938950000     0.4365930000
   12      C      -2.5731630000     0.9860770000     0.1343140000
   13      O      -2.7256780000     2.3296650000     0.0564480000
   14      C      -1.2915720000     0.3899880000    -0.0838450000
   15      C      -0.1243080000     1.2119580000    -0.3081890000
   16      O      -0.2467710000     2.5203540000    -0.4372260000
   17      C       1.1857830000     0.6074700000    -0.2283040000
   18      H       1.2859100000     2.9561070000    -0.3384260000
   19      H       4.4800250000     1.4836530000     0.0690860000
   20      H       4.7171990000    -1.0028150000     0.2526860000
   21      H       2.6961300000    -2.4455500000     0.0943840000
   22      H       0.2381340000    -2.6318810000     0.1249090000
   23      H       0.0817300000    -1.9053200000    -1.4645420000
   24      H      -2.2018530000    -2.8753040000     0.3797200000
   25      H      -4.4106370000    -1.8035500000     0.7845260000
   26      H      -4.6312880000     0.6842730000     0.6002730000
   27      H      -1.8089240000     2.6842590000    -0.1578240000
 ----------------------------------------------------------------

   17    -765.4728354601      7.22e-09  Convergence criterion met
 Total energy in the final basis set =     -765.5621674142

                    Orbital Energies (a.u.)
 --------------------------------------------------------------

 Alpha MOs
 -- Occupied --
-19.1266 -19.1265 -19.0846 -10.2321 -10.2321 -10.2187 -10.1851 -10.1846
-10.1846 -10.1767 -10.1767 -10.1750 -10.1750 -10.1691 -10.1690 -10.1679
-10.1678  -1.0509  -1.0441  -0.9870  -0.8701  -0.8476  -0.7963  -0.7612
 -0.7459  -0.7359  -0.6957  -0.6458  -0.6329  -0.5898  -0.5890  -0.5627
 -0.5230  -0.5176  -0.5158  -0.4760  -0.4713  -0.4622  -0.4488  -0.4382
 -0.4185  -0.4159  -0.4134  -0.4068  -0.4055  -0.3933  -0.3871  -0.3699
 -0.3693  -0.3629  -0.3456  -0.3341  -0.3310  -0.3284  -0.2671  -0.2575
 -0.2519  -0.2279  -0.2249  -0.1241

 Beta MOs
 -- Occupied --
-19.1258 -19.1257 -19.0791 -10.2305 -10.2305 -10.2132 -10.1853 -10.1824
-10.1824 -10.1762 -10.1761 -10.1745 -10.1745 -10.1700 -10.1700 -10.1685
-10.1684  -1.0482  -1.0424  -0.9770  -0.8674  -0.8457  -0.7936  -0.7574
 -0.7438  -0.7345  -0.6939  -0.6402  -0.6300  -0.5878  -0.5866  -0.5606
 -0.5215  -0.5167  -0.5132  -0.4741  -0.4694  -0.4613  -0.4432  -0.4364
 -0.4144  -0.4140  -0.4079  -0.4033  -0.4004  -0.3922  -0.3857  -0.3682
 -0.3678  -0.3426  -0.3407  -0.3328  -0.3266  -0.3223  -0.2522  -0.2500
 -0.2471  -0.2233  -0.2216

          Ground-State Mulliken Net Atomic Charges

     Atom                 Charge (a.u.)    Spin (a.u.)
  --------------------------------------------------------
      1 O                    -0.318086       0.023578
      2 C                    -1.038479       0.134686
      3 C                     0.406732      -0.056016
      4 C                     0.579376       0.180250
      5 C                     0.951028      -0.076135
      6 C                    -0.212488       0.052556
      7 C                     1.042325       0.194197
      8 C                    -0.200375       0.051316
      9 C                     0.948095      -0.076012
     10 C                     0.583338       0.179693
     11 C                     0.407611      -0.055580
     12 C                    -1.036161       0.134580
     13 O                    -0.318505       0.023613
     14 C                    -1.696282      -0.146630
     15 C                    -1.711886       0.378275
     16 O                    -0.466129       0.185841
     17 C                    -1.700921      -0.146648
     18 H                     0.372127      -0.002603
     19 H                     0.212672       0.002614
     20 H                     0.331190      -0.012795
     21 H                     0.285435       0.004778
     22 H                     0.122548       0.004298
     23 H                     0.254279       0.030181
     24 H                     0.285669       0.004741
     25 H                     0.331623      -0.012768
     26 H                     0.212949       0.002625
     27 H                     0.372314      -0.002637
  --------------------------------------------------------
  Sum of atomic charges =    -1.000000

                    Cartesian Multipole Moments
 -----------------------------------------------------------------
    Charge (ESU x 10^10)
                -4.8032
    Dipole Moment (Debye)
         X       0.6574      Y      -7.2710      Z       0.4345
       Tot       7.3136
    Quadrupole Moments (Debye-Ang)
        XX    -130.2367     XY      -0.6314     YY    -121.8837
        XZ       1.1161     YZ       1.7977     ZZ    -108.4501

 Total job time:  674.84s(wall), 4990.21s(cpu)
        *  Thank you very much for using Q-Chem.  Have a nice day.  *
