 Gaussian 16, Revision A.03,
 Gaussian 16:  ES64L-G16RevA.03 25-Dec-2016

 --------------------------------------
 #P UB3LYP/6-311++G(d,p) nosym opt freq
 --------------------------------------

 -------
 Reduced
 -------
 Symbolic Z-matrix:
 Charge = -2 Multiplicity = 1

 SCF Done:  E(UB3LYP) =  -846.223325890     A.U. after   49 cycles
 Optimization completed.
    -- Stationary point found.
 Normal termination of Gaussian 16 at Wed Dec 27 20:08:31 2023.

 ----------------------------------------------------------------------
 #P Geom=AllCheck Guess=TCheck SCRF=Check GenChk UB3LYP/6-311++G(d,p) F
 req
 ----------------------------------------------------------------------

 Structure from the checkpoint file:  "131-an.chk"
 -------
 Reduced
 -------
 Charge = -2 Multiplicity = 1

                          Input orientation:
 ---------------------------------------------------------------------
 Center     Atomic      Atomic             Coordinates (Angstroms)
 Number     Number       Type             X           Y           Z
 ---------------------------------------------------------------------
      1          6           0       -4.834324    1.125212   -1.581571
      2          6           0       -3.599051    0.609417   -0.883788
      3          6           0       -3.725795   -0.232530    0.255928
      4          6           0       -2.628221   -0.723378    0.943287
      5          6           0       -2.897905   -1.609624    2.142526
      6          6           0       -1.296736   -0.397880    0.507336
      7          6           0       -0.116600   -0.905883    1.183379
      8          8           0       -0.168585   -1.685796    2.200183
      9          6           0        1.162977   -0.474484    0.640156
     10          6           0        2.330372   -0.950853    1.290776
     11          6           0        3.599264   -0.629665    0.868613
     12          6           0        4.834462   -1.137622    1.572246
     13          6           0        3.725817    0.229513   -0.258198
     14          6           0        2.628073    0.736964   -0.933108
     15          6           0        2.897560    1.642817   -2.117650
     16          6           0        1.296777    0.392387   -0.511448
     17          6           0        0.116824    0.883482   -1.200145
     18          8           0        0.168987    1.641656   -2.233256
     19          6           0       -1.162896    0.466157   -0.646371
     20          6           0       -2.330267    0.941433   -1.297828
     21          1           0       -5.466146    0.309711   -1.956131
     22          1           0       -5.473959    1.724981   -0.909671
     23          1           0       -4.570253    1.758267   -2.434439
     24          1           0       -4.722770   -0.506825    0.599744
     25          1           0       -2.464275   -2.603656    2.012486
     26          1           0       -2.428284   -1.215910    3.045924
     27          1           0       -3.982102   -1.696388    2.298929
     28          1           0        2.167345   -1.592144    2.151329
     29          1           0        5.482087   -1.715887    0.900887
     30          1           0        4.570559   -1.783389    2.415580
     31          1           0        5.457994   -0.315708    1.967203
     32          1           0        4.722875    0.495668   -0.608122
     33          1           0        3.981217    1.782788   -2.234131
     34          1           0        2.413881    2.614104   -1.998033
     35          1           0        2.478401    1.233376   -3.039464
     36          1           0       -2.167303    1.589691   -2.153158
 ---------------------------------------------------------------------

 SCF Done:  E(UB3LYP) =  -846.223325890     A.U. after    5 cycles

 Alpha  occ. eigenvalues --  -18.79466 -18.79466  -9.96578  -9.96577  -9.95660
 Alpha  occ. eigenvalues --   -9.95659  -9.94849  -9.94849  -9.94270  -9.94270
 Alpha  occ. eigenvalues --   -9.93753  -9.93753  -9.93110  -9.93110  -9.92283
 Alpha  occ. eigenvalues --   -9.92283  -9.92126  -9.92125  -9.91531  -9.91531
 Alpha  occ. eigenvalues --   -0.71703  -0.71337  -0.61710  -0.61518  -0.55647
 Alpha  occ. eigenvalues --   -0.55016  -0.54001  -0.51301  -0.47931  -0.46246
 Alpha  occ. eigenvalues --   -0.45283  -0.44987  -0.40172  -0.37998  -0.35590
 Alpha  occ. eigenvalues --   -0.32669  -0.29471  -0.29151  -0.25973  -0.24004
 Alpha  occ. eigenvalues --   -0.22756  -0.22122  -0.21358  -0.21313  -0.20615
 Alpha  occ. eigenvalues --   -0.19292  -0.18893  -0.18617  -0.18598  -0.17163
 Alpha  occ. eigenvalues --   -0.16915  -0.16738  -0.16363  -0.14587  -0.14202
 Alpha  occ. eigenvalues --   -0.13757  -0.12907  -0.12672  -0.10659  -0.10220
 Alpha  occ. eigenvalues --   -0.09895  -0.09144  -0.08055  -0.07514  -0.00633
 Alpha  occ. eigenvalues --   -0.00118   0.00438   0.00777   0.02814   0.03410
 Alpha  occ. eigenvalues --    0.12471
 Alpha virt. eigenvalues --    0.14034   0.14069   0.16139   0.16149   0.17419
 Alpha virt. eigenvalues --    0.17654   0.17988   0.18246   0.19489   0.19660
 Alpha virt. eigenvalues --    0.20104   0.20294   0.21171   0.21477   0.21509

  Beta  occ. eigenvalues --  -18.79466 -18.79466  -9.96578  -9.96577  -9.95660
  Beta  occ. eigenvalues --   -9.95659  -9.94849  -9.94849  -9.94270  -9.94270
  Beta  occ. eigenvalues --   -9.93753  -9.93753  -9.93110  -9.93110  -9.92283
  Beta  occ. eigenvalues --   -9.92283  -9.92126  -9.92125  -9.91531  -9.91531
  Beta  occ. eigenvalues --   -0.71703  -0.71337  -0.61710  -0.61518  -0.55647
  Beta  occ. eigenvalues --   -0.55016  -0.54001  -0.51301  -0.47931  -0.46246
  Beta  occ. eigenvalues --   -0.45283  -0.44987  -0.40172  -0.37998  -0.35590
  Beta  occ. eigenvalues --   -0.32669  -0.29471  -0.29151  -0.25973  -0.24004
  Beta  occ. eigenvalues --   -0.22756  -0.22122  -0.21358  -0.21313  -0.20615
  Beta  occ. eigenvalues --   -0.19292  -0.18893  -0.18617  -0.18598  -0.17163
  Beta  occ. eigenvalues --   -0.16915  -0.16738  -0.16363  -0.14587  -0.14202
  Beta  occ. eigenvalues --   -0.13757  -0.12907  -0.12672  -0.10659  -0.10220
  Beta  occ. eigenvalues --   -0.09895  -0.09144  -0.08055  -0.07514  -0.00633
  Beta  occ. eigenvalues --   -0.00118   0.00438   0.00777   0.02814   0.03410
  Beta  occ. eigenvalues --    0.12471
  Beta virt. eigenvalues --    0.14034   0.14069   0.16139   0.16149   0.17419
  Beta virt. eigenvalues --    0.17654   0.17988   0.18246   0.19489   0.19660
  Beta virt. eigenvalues --    0.20104   0.20294   0.21171   0.21477   0.21509

 Mulliken charges and spin densities:
               1          2
     1  C    0.850769   0.000001
     2  C    0.009272  -0.000000
     3  C   -1.032622  -0.000000
     4  C    0.238246  -0.000000
     5  C   -0.614397  -0.000000
     6  C    0.246506  -0.000000
     7  C   -1.094597  -0.000000
     8  O   -0.448130   0.000000
     9  C    0.500890  -0.000000
    10  C    0.127859   0.000000
    11  C    0.009375   0.000000
    12  C    0.850853  -0.000000
    13  C   -1.033407   0.000000
    14  C    0.238939   0.000000
    15  C   -0.614589  -0.000000
    16  C    0.246682   0.000000
    17  C   -1.094144  -0.000000
    18  O   -0.448137   0.000000
    19  C    0.500644   0.000000
    20  C    0.127391   0.000000
    21  H    0.068127  -0.000000
    22  H   -0.254345  -0.000000
    23  H   -0.130848  -0.000000
    24  H    0.036739   0.000000
    25  H    0.156809   0.000000
    26  H    0.160743   0.000000
    27  H    0.017311  -0.000000
    28  H    0.161561  -0.000000
    29  H    0.067762   0.000000
    30  H   -0.130667   0.000000
    31  H   -0.253948   0.000000
    32  H    0.036870  -0.000000
    33  H    0.017361   0.000000
    34  H    0.160774  -0.000000
    35  H    0.156752  -0.000000
    36  H    0.161596   0.000000
 Sum of Mulliken charges =  -2.00000  -0.00000

 Dipole moment (field-independent basis, Debye):
    X=              0.0155    Y=             -1.2638    Z=             -0.9473  Tot=              1.5795
 Quadrupole moment (field-independent basis, Debye-Ang):
   XX=           -240.1914   YY=           -156.7176   ZZ=           -171.8357
   XY=             11.7118   XZ=            -17.0339   YZ=             25.2660

  Exact polarizability:7786.714******** 926.5632418.190-772.4671418.706
 Approx polarizability:6768.272******** 815.9171712.158-502.6351146.033

                      1                      2                      3
                      A                      A                      A
 Frequencies --     35.6102                44.5937                70.2198
 Red. masses --      5.2702                 3.3731                 4.8144
 Frc consts  --      0.0039                 0.0040                 0.0140
 IR Inten    --      1.2546                 2.9703                 7.3994

                      4                      5                      6
                      A                      A                      A
 Frequencies --    134.5725               137.2146               155.7614
 Red. masses --      2.3969                 1.4422                 1.4064
 Frc consts  --      0.0256                 0.0160                 0.0201
 IR Inten    --      0.2686                23.0471                 2.3539

                      7                      8                      9
                      A                      A                      A
 Frequencies --    161.3623               164.4245               180.6848
 Red. masses --      3.3969                 2.0201                 1.5215
 Frc consts  --      0.0521                 0.0322                 0.0293
 IR Inten    --      9.8872                 2.1332                 9.0326

                     10                     11                     12
                      A                      A                      A
 Frequencies --    181.4872               210.7495               231.2862
 Red. masses --      1.1905                 1.7040                 2.3607
 Frc consts  --      0.0231                 0.0446                 0.0744
 IR Inten    --     11.5155                 1.5729                47.1045

                     13                     14                     15
                      A                      A                      A
 Frequencies --    237.4030               279.1819               296.1213
 Red. masses --      3.2484                 3.5525                 3.7920
 Frc consts  --      0.1079                 0.1631                 0.1959
 IR Inten    --      0.1491                 1.2491                 0.8212

                     16                     17                     18
                      A                      A                      A
 Frequencies --    302.2152               329.7664               334.1186
 Red. masses --      2.6619                 4.7910                 5.8709
 Frc consts  --      0.1432                 0.3070                 0.3861
 IR Inten    --     79.5725                 9.6574                 0.3255

                     19                     20                     21
                      A                      A                      A
 Frequencies --    367.7253               371.0808               421.8820
 Red. masses --      8.0404                 5.4744                 4.4865
 Frc consts  --      0.6406                 0.4441                 0.4705
 IR Inten    --    187.9157                 3.1153                10.6240

                     22                     23                     24
                      A                      A                      A
 Frequencies --    428.4945               462.9238               495.2174
 Red. masses --      6.6909                 7.2916                 3.8100
 Frc consts  --      0.7238                 0.9206                 0.5505
 IR Inten    --    274.4415                15.2945                 1.3120

                     25                     26                     27
                      A                      A                      A
 Frequencies --    506.1024               525.9797               544.7360
 Red. masses --      4.4268                 4.3267                 3.9068
 Frc consts  --      0.6681                 0.7053                 0.6830
 IR Inten    --      2.6898                37.7490                10.8046

                     28                     29                     30
                      A                      A                      A
 Frequencies --    548.5866               555.9087               567.3951
 Red. masses --      4.7079                 3.6126                 4.3630
 Frc consts  --      0.8348                 0.6578                 0.8276
 IR Inten    --     12.7637              1174.4120               242.8564

                     31                     32                     33
                      A                      A                      A
 Frequencies --    646.9976               650.9652               671.4240
 Red. masses --      3.5686                 5.2853                 5.3118
 Frc consts  --      0.8801                 1.3196                 1.4109
 IR Inten    --     30.5573                 0.8834                64.2185

                     34                     35                     36
                      A                      A                      A
 Frequencies --    733.0632               749.8764               791.8655
 Red. masses --      3.7887                 6.8630                 1.3196
 Frc consts  --      1.1996                 2.2738                 0.4875
 IR Inten    --     40.2247                 1.6246               520.2503

                     37                     38                     39
                      A                      A                      A
 Frequencies --    794.6530               797.0976               826.7693
 Red. masses --      1.4316                 4.7569                 5.6432
 Frc consts  --      0.5326                 1.7807                 2.2727
 IR Inten    --      5.0732                 6.8047                12.8547

                     40                     41                     42
                      A                      A                      A
 Frequencies --    846.7240               928.1897               929.7657
 Red. masses --      6.9404                 1.3861                 1.3872
 Frc consts  --      2.9317                 0.7036                 0.7065
 IR Inten    --     62.4850               141.6735                 7.6783

                     43                     44                     45
                      A                      A                      A
 Frequencies --    940.2896               963.6955               977.8609
 Red. masses --      3.0892                 3.6012                 1.7773
 Frc consts  --      1.6092                 1.9705                 1.0013
 IR Inten    --      2.0971                52.7300               163.5624

                     46                     47                     48
                      A                      A                      A
 Frequencies --    982.6223              1022.5326              1027.3927
 Red. masses --      3.5899                 1.5423                 2.0801
 Frc consts  --      2.0422                 0.9501                 1.2936
 IR Inten    --     16.8212                 6.0931                13.0421

                     49                     50                     51
                      A                      A                      A
 Frequencies --   1035.6013              1049.5620              1051.2169
 Red. masses --      1.4594                 1.5132                 1.5215
 Frc consts  --      0.9222                 0.9821                 0.9906
 IR Inten    --     12.0166               248.7423                 1.5141

                     52                     53                     54
                      A                      A                      A
 Frequencies --   1054.4340              1056.0086              1070.0321
 Red. masses --      1.5193                 1.4746                 4.1083
 Frc consts  --      0.9952                 0.9689                 2.7714
 IR Inten    --    897.7691                50.1437                48.1614

                     55                     56                     57
                      A                      A                      A
 Frequencies --   1131.7677              1160.0468              1164.6178
 Red. masses --      1.8884                 1.5227                 4.4239
 Frc consts  --      1.4252                 1.2073                 3.5353
 IR Inten    --    646.8722                 4.3178               711.1587

                     58                     59                     60
                      A                      A                      A
 Frequencies --   1181.9660              1241.4305              1252.4914
 Red. masses --      3.0856                 2.1010                 3.2863
 Frc consts  --      2.5398                 1.9078                 3.0375
 IR Inten    --      4.3401               134.1137               477.5420

                     61                     62                     63
                      A                      A                      A
 Frequencies --   1259.9594              1316.0741              1339.0101
 Red. masses --      3.1448                 3.4205                 5.4082
 Frc consts  --      2.9414                 3.4906                 5.7131
 IR Inten    --     10.1114                45.4753               714.1295

                     64                     65                     66
                      A                      A                      A
 Frequencies --   1340.5265              1355.3716              1386.7651
 Red. masses --      4.0878                 2.4989                 1.5576
 Frc consts  --      4.3281                 2.7047                 1.7649
 IR Inten    --     17.6713              2291.3003              4961.6211

                     67                     68                     69
                      A                      A                      A
 Frequencies --   1387.5058              1404.6694              1405.1434
 Red. masses --      1.3636                 1.3051                 1.3379
 Frc consts  --      1.5467                 1.5172                 1.5564
 IR Inten    --     97.9168                 0.2773                55.2780

                     70                     71                     72
                      A                      A                      A
 Frequencies --   1407.5928              1411.0652              1435.6895
 Red. masses --      2.4972                 2.6060                 3.2703
 Frc consts  --      2.9151                 3.0572                 3.9715
 IR Inten    --    650.3384                 4.5857               105.7457

                     73                     74                     75
                      A                      A                      A
 Frequencies --   1449.8636              1450.0744              1461.1450
 Red. masses --      1.0490                 1.0555                 2.0017
 Frc consts  --      1.2992                 1.3077                 2.5179
 IR Inten    --     53.7551                 1.7300               296.7119

                     76                     77                     78
                      A                      A                      A
 Frequencies --   1468.6428              1475.0305              1477.1897
 Red. masses --      4.3827                 1.0570                 1.0962
 Frc consts  --      5.5696                 1.3550                 1.4093
 IR Inten    --     17.8044               198.1106                29.6979

                     79                     80                     81
                      A                      A                      A
 Frequencies --   1482.6895              1486.3524              1488.0698
 Red. masses --      1.1856                 1.2779                 1.3081
 Frc consts  --      1.5357                 1.6633                 1.7066
 IR Inten    --    330.3213                 6.4589                28.0772

                     82                     83                     84
                      A                      A                      A
 Frequencies --   1495.3842              1540.8599              1555.5040
 Red. masses --      1.8960                 5.1512                 6.1265
 Frc consts  --      2.4980                 7.2058                 8.7338
 IR Inten    --    112.9372               399.9168                53.8791

                     85                     86                     87
                      A                      A                      A
 Frequencies --   1607.7426              1612.0498              2912.5855
 Red. masses --      5.0999                 5.1503                 1.0637
 Frc consts  --      7.7668                 7.8857                 5.3165
 IR Inten    --    411.1806                 0.9505              2734.3353

                     88                     89                     90
                      A                      A                      A
 Frequencies --   2914.6341              2976.1870              2976.6177
 Red. masses --      1.0609                 1.0531                 1.0531
 Frc consts  --      5.3100                 5.4957                 5.4975
 IR Inten    --    113.5536                18.9208              1083.3722

                     91                     92                     93
                      A                      A                      A
 Frequencies --   2981.9356              2989.0978              3058.8758
 Red. masses --      1.0738                 1.0762                 1.0933
 Frc consts  --      5.6254                 5.6654                 6.0271
 IR Inten    --  19479.8045                13.3578               513.9823

                     94                     95                     96
                      A                      A                      A
 Frequencies --   3059.0589              3071.4093              3071.5105
 Red. masses --      1.0936                 1.0836                 1.0834
 Frc consts  --      6.0296                 6.0226                 6.0221
 IR Inten    --     42.7766                79.0100                 7.6473

                     97                     98                     99
                      A                      A                      A
 Frequencies --   3084.8625              3084.9164              3095.1782
 Red. masses --      1.0971                 1.0970                 1.0874
 Frc consts  --      6.1514                 6.1511                 6.1375
 IR Inten    --     29.1947                28.8295               336.3140

                    100                    101                    102
                      A                      A                      A
 Frequencies --   3095.2074              3156.4660              3156.6883
 Red. masses --      1.0875                 1.0886                 1.0885
 Frc consts  --      6.1385                 6.3901                 6.3908
 IR Inten    --     99.6881               556.0613                 1.8575

 - Thermochemistry -
 -------------------
 Temperature   298.150 Kelvin.  Pressure   1.00000 Atm.
 Atom     1 has atomic number  6 and mass  12.00000

 Molecular mass:   264.11503 amu.
 Principal axes and moments of inertia in atomic units:
                           1         2         3
     Eigenvalues --  2899.123627380.68262**********
           X            0.99574  -0.09187  -0.00828
           Y           -0.04851  -0.59782   0.80016
           Z            0.07846   0.79634   0.59973
 This molecule is an asymmetric top.
 Rotational symmetry number  1.
 Warning -- assumption of classical behavior for rotation
           may cause significant error
 Rotational temperatures (Kelvin)      0.02988     0.01174     0.00846
 Rotational constants (GHZ):           0.62251     0.24452     0.17632
 Zero-point vibrational energy     742874.8 (Joules/Mol)
                                  177.55134 (Kcal/Mol)
 Warning -- explicit consideration of  30 degrees of freedom as
           vibrations may cause significant error
 Vibrational temperatures:     51.24    64.16   101.03   193.62   197.42
          (Kelvin)            224.11   232.16   236.57   259.97   261.12
                              303.22   332.77   341.57   401.68   426.05
                              434.82   474.46   480.72   529.07   533.90
                              606.99   616.51   666.04   712.51   728.17
                              756.77   783.75   789.29   799.83   816.36
                              930.89   936.59   966.03  1054.71  1078.90
                             1139.32  1143.33  1146.85  1189.54  1218.25
                             1335.46  1337.73  1352.87  1386.54  1406.92
                             1413.77  1471.20  1478.19  1490.00  1510.09
                             1512.47  1517.10  1519.36  1539.54  1628.36
                             1669.05  1675.63  1700.59  1786.14  1802.06
                             1812.80  1893.54  1926.54  1928.72  1950.08
                             1995.25  1996.31  2021.01  2021.69  2025.21
                             2030.21  2065.64  2086.03  2086.33  2102.26
                             2113.05  2122.24  2125.35  2133.26  2138.53
                             2141.00  2151.52  2216.95  2238.02  2313.18
                             2319.38  4190.56  4193.51  4282.07  4282.69
                             4290.34  4300.65  4401.04  4401.30  4419.07
                             4419.22  4438.43  4438.51  4453.27  4453.31
                             4541.45  4541.77

 Zero-point correction=                           0.282946 (Hartree/Particle)
 Thermal correction to Energy=                    0.300955
 Thermal correction to Enthalpy=                  0.301899
 Thermal correction to Gibbs Free Energy=         0.237780
 Sum of electronic and zero-point Energies=           -845.940380
 Sum of electronic and thermal Energies=              -845.922371
 Sum of electronic and thermal Enthalpies=            -845.921427
 Sum of electronic and thermal Free Energies=         -845.985546

                     E (Thermal)             CV                S
                      KCal/Mol        Cal/Mol-Kelvin    Cal/Mol-Kelvin
 Total                  188.852             70.660            134.950
 Electronic               0.000              0.000              0.000
 Translational            0.889              2.981             42.613
 Rotational               0.889              2.981             33.748
 Vibrational            187.075             64.699             58.589
 Vibration     1          0.594              1.982              5.489
 Vibration     2          0.595              1.980              5.044
 Vibration     3          0.598              1.968              4.147
 Vibration     4          0.613              1.919              2.880
 Vibration     5          0.614              1.916              2.842
 Vibration     6          0.620              1.896              2.601
 Vibration     7          0.622              1.890              2.534
 Vibration     8          0.623              1.886              2.498
 Vibration     9          0.630              1.866              2.321
 Vibration    10          0.630              1.865              2.313
 Vibration    11          0.643              1.824              2.037
 Vibration    12          0.653              1.793              1.869
 Vibration    13          0.656              1.783              1.822
 Vibration    14          0.680              1.712              1.539
 Vibration    15          0.690              1.681              1.439
 Vibration    16          0.694              1.670              1.405
 Vibration    17          0.713              1.616              1.261
 Vibration    18          0.716              1.607              1.240
 Vibration    19          0.740              1.539              1.089
 Vibration    20          0.743              1.532              1.075
 Vibration    21          0.784              1.423              0.886
 Vibration    22          0.790              1.408              0.864
 Vibration    23          0.821              1.332              0.758
 Vibration    24          0.851              1.261              0.670
 Vibration    25          0.861              1.236              0.643
 Vibration    26          0.881              1.192              0.596
 Vibration    27          0.900              1.151              0.555
 Vibration    28          0.904              1.143              0.547
 Vibration    29          0.911              1.127              0.532
 Vibration    30          0.923              1.102              0.509

 Optimization completed.
    -- Stationary point found.
 Normal termination of Gaussian 16 at Wed Dec 27 21:28:15 2023.
