 Q-Chem 5.4, Q-Chem, Inc., Pleasanton, CA (2021)
 Q-Chem 5.4.0 for Intel X86 EM64T Linux

User input:
--------------------------------------------------------------
$molecule
-2 1
C                 -4.8343240000      1.1252120000     -1.5815710000
C                 -3.5990510000      0.6094170000     -0.8837880000
C                 -3.7257950000     -0.2325300000      0.2559280000
C                 -2.6282210000     -0.7233780000      0.9432870000
C                 -2.8979050000     -1.6096240000      2.1425260000
C                 -1.2967360000     -0.3978800000      0.5073360000
C                 -0.1166000000     -0.9058830000      1.1833790000
O                 -0.1685850000     -1.6857960000      2.2001830000
C                  1.1629770000     -0.4744840000      0.6401560000
C                  2.3303720000     -0.9508530000      1.2907760000
C                  3.5992640000     -0.6296650000      0.8686130000
C                  4.8344620000     -1.1376220000      1.5722460000
C                  3.7258170000      0.2295130000     -0.2581980000
C                  2.6280730000      0.7369640000     -0.9331080000
C                  2.8975600000      1.6428170000     -2.1176500000
C                  1.2967770000      0.3923870000     -0.5114480000
C                  0.1168240000      0.8834820000     -1.2001450000
O                  0.1689870000      1.6416560000     -2.2332560000
C                 -1.1628960000      0.4661570000     -0.6463710000
C                 -2.3302670000      0.9414330000     -1.2978280000
H                 -5.4661460000      0.3097110000     -1.9561310000
H                 -5.4739590000      1.7249810000     -0.9096710000
H                 -4.5702530000      1.7582670000     -2.4344390000
H                 -4.7227700000     -0.5068250000      0.5997440000
H                 -2.4642750000     -2.6036560000      2.0124860000
H                 -2.4282840000     -1.2159100000      3.0459240000
H                 -3.9821020000     -1.6963880000      2.2989290000
H                  2.1673450000     -1.5921440000      2.1513290000
H                  5.4820870000     -1.7158870000      0.9008870000
H                  4.5705590000     -1.7833890000      2.4155800000
H                  5.4579940000     -0.3157080000      1.9672030000
H                  4.7228750000      0.4956680000     -0.6081220000
H                  3.9812170000      1.7827880000     -2.2341310000
H                  2.4138810000      2.6141040000     -1.9980330000
H                  2.4784010000      1.2333760000     -3.0394640000
H                 -2.1673030000      1.5896910000     -2.1531580000
$end

$rem
BASIS  =  6-311++G(d,p)
GUI  =  2
JOB_TYPE  =  SP
METHOD  =  B3LYP
SCF_CONVERGENCE  = 8
SOLVENT_METHOD = sm12
$end

$smx
solvent dimethylformamide
charges CM5
$end

--------------------------------------------------------------

             Standard Nuclear Orientation (Angstroms)
    I     Atom           X                Y                Z
 ----------------------------------------------------------------
    1      C      -4.8343240000     1.1252120000    -1.5815710000
    2      C      -3.5990510000     0.6094170000    -0.8837880000
    3      C      -3.7257950000    -0.2325300000     0.2559280000
    4      C      -2.6282210000    -0.7233780000     0.9432870000
    5      C      -2.8979050000    -1.6096240000     2.1425260000
    6      C      -1.2967360000    -0.3978800000     0.5073360000
    7      C      -0.1166000000    -0.9058830000     1.1833790000
    8      O      -0.1685850000    -1.6857960000     2.2001830000
    9      C       1.1629770000    -0.4744840000     0.6401560000
   10      C       2.3303720000    -0.9508530000     1.2907760000
   11      C       3.5992640000    -0.6296650000     0.8686130000
   12      C       4.8344620000    -1.1376220000     1.5722460000
   13      C       3.7258170000     0.2295130000    -0.2581980000
   14      C       2.6280730000     0.7369640000    -0.9331080000
   15      C       2.8975600000     1.6428170000    -2.1176500000
   16      C       1.2967770000     0.3923870000    -0.5114480000
   17      C       0.1168240000     0.8834820000    -1.2001450000
   18      O       0.1689870000     1.6416560000    -2.2332560000
   19      C      -1.1628960000     0.4661570000    -0.6463710000
   20      C      -2.3302670000     0.9414330000    -1.2978280000
   21      H      -5.4661460000     0.3097110000    -1.9561310000
   22      H      -5.4739590000     1.7249810000    -0.9096710000
   23      H      -4.5702530000     1.7582670000    -2.4344390000
   24      H      -4.7227700000    -0.5068250000     0.5997440000
   25      H      -2.4642750000    -2.6036560000     2.0124860000
   26      H      -2.4282840000    -1.2159100000     3.0459240000
   27      H      -3.9821020000    -1.6963880000     2.2989290000
   28      H       2.1673450000    -1.5921440000     2.1513290000
   29      H       5.4820870000    -1.7158870000     0.9008870000
   30      H       4.5705590000    -1.7833890000     2.4155800000
   31      H       5.4579940000    -0.3157080000     1.9672030000
   32      H       4.7228750000     0.4956680000    -0.6081220000
   33      H       3.9812170000     1.7827880000    -2.2341310000
   34      H       2.4138810000     2.6141040000    -1.9980330000
   35      H       2.4784010000     1.2333760000    -3.0394640000
   36      H      -2.1673030000     1.5896910000    -2.1531580000
 ----------------------------------------------------------------

   17    -846.2084409172      8.22e-09  Convergence criterion met
 Total energy in the final basis set =     -846.4881437893

                    Orbital Energies (a.u.)
 --------------------------------------------------------------

 Alpha MOs
 -- Occupied --
-19.0200 -19.0200 -10.1831 -10.1831 -10.1777 -10.1777 -10.1735 -10.1735
-10.1682 -10.1682 -10.1611 -10.1611 -10.1586 -10.1586 -10.1524 -10.1524
-10.1512 -10.1512 -10.1440 -10.1440  -0.9442  -0.9414  -0.8436  -0.8426
 -0.7794  -0.7730  -0.7682  -0.7378  -0.6966  -0.6841  -0.6786  -0.6765
 -0.6273  -0.6086  -0.5800  -0.5534  -0.5238  -0.5199  -0.4857  -0.4646
 -0.4494  -0.4477  -0.4263  -0.4237  -0.4206  -0.4100  -0.4085  -0.4075
 -0.4022  -0.3968  -0.3921  -0.3905  -0.3875  -0.3715  -0.3690  -0.3616
 -0.3554  -0.3502  -0.3349  -0.3296  -0.3262  -0.3206  -0.3098  -0.3015
 -0.2376  -0.2322  -0.2256  -0.2231  -0.1993  -0.1931  -0.1084

          Ground-State Mulliken Net Atomic Charges

     Atom                 Charge (a.u.)
  ----------------------------------------
      1 C                     2.366668
      2 C                     0.970085
      3 C                     0.672053
      4 C                    -0.782949
      5 C                     0.846592
      6 C                    -1.414800
      7 C                    -2.215958
      8 O                    -0.292168
      9 C                    -2.081302
     10 C                    -0.656282
     11 C                     0.970558
     12 C                     2.366670
     13 C                     0.674996
     14 C                    -0.785074
     15 C                     0.847224
     16 C                    -1.414062
     17 C                    -2.214039
     18 O                    -0.292297
     19 C                    -2.081313
     20 C                    -0.657766
     21 H                     0.286438
     22 H                     0.281318
     23 H                     0.342719
     24 H                     0.184649
     25 H                     0.118818
     26 H                     0.119523
     27 H                     0.300998
     28 H                    -0.047868
     29 H                     0.286878
     30 H                     0.342761
     31 H                     0.280941
     32 H                     0.184552
     33 H                     0.300911
     34 H                     0.119411
     35 H                     0.118875
     36 H                    -0.047759
  ----------------------------------------
  Sum of atomic charges =    -2.000000

                    Cartesian Multipole Moments
 -----------------------------------------------------------------
    Charge (ESU x 10^10)
                -9.6064
    Dipole Moment (Debye)
         X      -0.0033      Y       0.1083      Z       0.0813
       Tot       0.1354
    Quadrupole Moments (Debye-Ang)
        XX    -169.7078     XY      -1.4188     YY    -150.5537
        XZ       1.3332     YZ      22.7334     ZZ    -163.7870

 Total job time:  1348.68s(wall), 10420.27s(cpu)
        *  Thank you very much for using Q-Chem.  Have a nice day.  *
