 Gaussian 16, Revision A.03,
 Gaussian 16:  ES64L-G16RevA.03 25-Dec-2016

 ----------------------------------------------------------------------
 #P UB3LYP/6-311++G(d,p) nosym opt freq SCRF=(PCM,Solvent=n,n-DiMethylF
 ormamide)
 ----------------------------------------------------------------------

 -------
 Radical
 -------
 Symbolic Z-matrix:
 Charge = -1 Multiplicity = 2

 SCF Done:  E(UB3LYP) =  -649.968761890     A.U. after   19 cycles
 SCF Done:  E(UB3LYP) =  -649.969181853     A.U. after   15 cycles
 SCF Done:  E(UB3LYP) =  -649.969264367     A.U. after   16 cycles
 SCF Done:  E(UB3LYP) =  -649.969269898     A.U. after   14 cycles
 SCF Done:  E(UB3LYP) =  -649.969271244     A.U. after   10 cycles
 SCF Done:  E(UB3LYP) =  -649.969271999     A.U. after   10 cycles
 Optimization completed.
    -- Stationary point found.
 Normal termination of Gaussian 16 at Sun Feb 11 01:28:00 2024.

 ----------------------------------------------------------------------
 #P Geom=AllCheck Guess=TCheck SCRF=Check GenChk UB3LYP/6-311++G(d,p) F
 req
 ----------------------------------------------------------------------

 Structure from the checkpoint file:  "257-rad.chk"
 -------
 Radical
 -------
 Charge = -1 Multiplicity = 2

                          Input orientation:
 ---------------------------------------------------------------------
 Center     Atomic      Atomic             Coordinates (Angstroms)
 Number     Number       Type             X           Y           Z
 ---------------------------------------------------------------------
      1          6           0        3.924622    0.600604   -0.105287
      2          8           0        2.671420    1.280027   -0.157248
      3          6           0        1.525363    0.544324   -0.099572
      4          6           0        1.504214   -0.833647    0.009882
      5          6           0        0.291793   -1.592014    0.070661
      6          8           0        0.296506   -2.855631    0.171142
      7          6           0       -0.963960   -0.828698    0.010677
      8          6           0       -2.203052   -1.495787    0.064754
      9          6           0       -3.396306   -0.796352    0.010431
     10          6           0       -3.378522    0.607376   -0.100734
     11          6           0       -2.172792    1.282749   -0.155879
     12          6           0       -0.943541    0.589372   -0.102251
     13          6           0        0.312545    1.340163   -0.163587
     14          8           0        0.340957    2.602069   -0.266328
     15          1           0        4.039289    0.049247    0.832919
     16          1           0        4.685798    1.376630   -0.165580
     17          1           0        4.038366   -0.088218   -0.947891
     18          1           0        2.424838   -1.401641    0.054679
     19          1           0       -2.196493   -2.575944    0.150703
     20          1           0       -4.341993   -1.325803    0.053411
     21          1           0       -4.311815    1.158847   -0.143191
     22          1           0       -2.147239    2.362327   -0.241809
 ---------------------------------------------------------------------

 SCF Done:  E(UB3LYP) =  -649.969271999     A.U. after    1 cycles

 Alpha  occ. eigenvalues --  -19.15481 -19.07600 -19.07199 -10.22831 -10.22289
 Alpha  occ. eigenvalues --  -10.22094 -10.21835 -10.17376 -10.17211 -10.17173
 Alpha  occ. eigenvalues --  -10.17116 -10.16965 -10.16928 -10.15677  -1.06909
 Alpha  occ. eigenvalues --   -0.99481  -0.99257  -0.85713  -0.80307  -0.74956
 Alpha  occ. eigenvalues --   -0.74479  -0.71546  -0.66268  -0.61951  -0.60014
 Alpha  occ. eigenvalues --   -0.56211  -0.52168  -0.51737  -0.49013  -0.47038
 Alpha  occ. eigenvalues --   -0.46210  -0.44718  -0.42867  -0.42000  -0.41500
 Alpha  occ. eigenvalues --   -0.40944  -0.40177  -0.39570  -0.37758  -0.35686
 Alpha  occ. eigenvalues --   -0.35588  -0.34351  -0.33183  -0.32976  -0.26532
 Alpha  occ. eigenvalues --   -0.25614  -0.24446  -0.23836  -0.23683  -0.14928
 Alpha virt. eigenvalues --   -0.03335  -0.00986  -0.00256   0.00520   0.01473
 Alpha virt. eigenvalues --    0.02276   0.02697   0.03594   0.04307   0.04705
 Alpha virt. eigenvalues --    0.05035   0.05455   0.06058   0.06470   0.06768

  Beta  occ. eigenvalues --  -19.15393 -19.06920 -19.06658 -10.22671 -10.22148
  Beta  occ. eigenvalues --  -10.21869 -10.21839 -10.17344 -10.17196 -10.17089
  Beta  occ. eigenvalues --  -10.17055 -10.16974 -10.16898 -10.15623  -1.06697
  Beta  occ. eigenvalues --   -0.98426  -0.98166  -0.85492  -0.79835  -0.74748
  Beta  occ. eigenvalues --   -0.74298  -0.71327  -0.65497  -0.61778  -0.59737
  Beta  occ. eigenvalues --   -0.55971  -0.51976  -0.51566  -0.48752  -0.46686
  Beta  occ. eigenvalues --   -0.45999  -0.44651  -0.42719  -0.41852  -0.40533
  Beta  occ. eigenvalues --   -0.40190  -0.39855  -0.39241  -0.35826  -0.35460
  Beta  occ. eigenvalues --   -0.34720  -0.34281  -0.33012  -0.31517  -0.24935
  Beta  occ. eigenvalues --   -0.24489  -0.23854  -0.23290  -0.22763
  Beta virt. eigenvalues --   -0.08327  -0.02580  -0.00237   0.00144   0.00521
  Beta virt. eigenvalues --    0.01492   0.02306   0.02703   0.03645   0.04329
  Beta virt. eigenvalues --    0.05047   0.05428   0.05484   0.06473   0.06769

 Mulliken charges and spin densities:
               1          2
     1  C   -0.325498  -0.000636
     2  O   -0.213723   0.019521
     3  C   -0.429124   0.125989
     4  C    0.309193   0.023714
     5  C   -0.310058   0.076140
     6  O   -0.507640   0.193114
     7  C    0.372903   0.046537
     8  C    0.210457   0.008331
     9  C   -0.372992   0.052270
    10  C   -0.397374   0.008139
    11  C    0.162065   0.067657
    12  C    0.189895  -0.000378
    13  C   -0.574174   0.136194
    14  O   -0.502783   0.255674
    15  H    0.160807   0.001331
    16  H    0.189436  -0.000139
    17  H    0.161067   0.001346
    18  H    0.196080  -0.005255
    19  H    0.159801  -0.000885
    20  H    0.179128  -0.003759
    21  H    0.181289  -0.001215
    22  H    0.161247  -0.003690
 Sum of Mulliken charges =  -1.00000   1.00000

 Dipole moment (field-independent basis, Debye):
    X=              0.2030    Y=             -0.2920    Z=              0.2983  Tot=              0.4642
 Quadrupole moment (field-independent basis, Debye-Ang):
   XX=            -71.1830   YY=           -125.7348   ZZ=            -87.0819
   XY=             -2.7435   XZ=              0.1925   YZ=              3.1358

  Exact polarizability: 298.618   8.820 288.473  -0.848 -14.137 112.592
 Approx polarizability: 309.184  12.081 344.215  -1.103 -17.446 127.006

                      1                      2                      3
                      A                      A                      A
 Frequencies --     57.1289               112.8971               132.3067
 Red. masses --      4.4541                 4.8530                 4.2317
 Frc consts  --      0.0086                 0.0364                 0.0436
 IR Inten    --     19.7903                 0.4834                 0.8208

                      4                      5                      6
                      A                      A                      A
 Frequencies --    175.1198               206.1097               209.0839
 Red. masses --      4.4428                 3.7226                 2.2249
 Frc consts  --      0.0803                 0.0932                 0.0573
 IR Inten    --      7.2257                12.8986                 0.2547

                      7                      8                      9
                      A                      A                      A
 Frequencies --    267.9395               277.7826               344.5723
 Red. masses --      1.6460                 6.3274                 5.9373
 Frc consts  --      0.0696                 0.2877                 0.4153
 IR Inten    --      2.0457                 3.0059                 4.1673

                     10                     11                     12
                      A                      A                      A
 Frequencies --    369.3109               406.4249               446.6349
 Red. masses --     10.5211                 4.7087                 4.0300
 Frc consts  --      0.8455                 0.4583                 0.4736
 IR Inten    --     22.6082                 0.0168                 4.5816

                     13                     14                     15
                      A                      A                      A
 Frequencies --    458.6365               471.6445               515.7048
 Red. masses --      6.4803                 9.4082                 3.7725
 Frc consts  --      0.8031                 1.2331                 0.5911
 IR Inten    --      8.1630                 3.7348                 5.6575

                     16                     17                     18
                      A                      A                      A
 Frequencies --    544.4707               646.7166               659.2851
 Red. masses --      7.3322                 7.1611                 3.2152
 Frc consts  --      1.2807                 1.7646                 0.8234
 IR Inten    --      0.9519                25.3976                 1.9960

                     19                     20                     21
                      A                      A                      A
 Frequencies --    693.3330               718.7851               723.8978
 Red. masses --      5.5588                 3.1571                 6.3896
 Frc consts  --      1.5744                 0.9610                 1.9728
 IR Inten    --      2.8040                41.6428                17.5767

                     22                     23                     24
                      A                      A                      A
 Frequencies --    774.8359               789.6698               835.4456
 Red. masses --      2.1335                 2.5650                 1.7161
 Frc consts  --      0.7547                 0.9424                 0.7057
 IR Inten    --     62.0825                36.6559                41.0345

                     25                     26                     27
                      A                      A                      A
 Frequencies --    840.5648               884.9298               931.0642
 Red. masses --      4.5884                 1.4210                 6.0509
 Frc consts  --      1.9101                 0.6556                 3.0905
 IR Inten    --     14.8305                 0.0080                81.6495

                     28                     29                     30
                      A                      A                      A
 Frequencies --    985.1656               999.9043              1037.4241
 Red. masses --      1.3667                 1.2821                 2.4870
 Frc consts  --      0.7815                 0.7553                 1.5770
 IR Inten    --      2.8397                 0.0029                68.8651

                     31                     32                     33
                      A                      A                      A
 Frequencies --   1072.6605              1103.6437              1141.5009
 Red. masses --      4.6354                 2.7603                 1.7549
 Frc consts  --      3.1424                 1.9809                 1.3473
 IR Inten    --    104.4483                32.2412                22.4545

                     34                     35                     36
                      A                      A                      A
 Frequencies --   1160.9024              1165.2698              1185.5975
 Red. masses --      1.3943                 1.2764                 1.7384
 Frc consts  --      1.1072                 1.0212                 1.4397
 IR Inten    --      2.2445                 1.2830               201.7814

                     37                     38                     39
                      A                      A                      A
 Frequencies --   1223.7439              1231.4384              1247.7540
 Red. masses --      2.0293                 2.5122                 2.5403
 Frc consts  --      1.7905                 2.2446                 2.3302
 IR Inten    --    224.8958               293.0939               100.2943

                     40                     41                     42
                      A                      A                      A
 Frequencies --   1300.9993              1352.1315              1406.4396
 Red. masses --      1.9819                 9.9751                 3.4212
 Frc consts  --      1.9765                10.7449                 3.9872
 IR Inten    --     29.9835                26.6551               165.7414

                     43                     44                     45
                      A                      A                      A
 Frequencies --   1449.9257              1464.8481              1471.1446
 Red. masses --      2.9865                 1.9497                 2.0868
 Frc consts  --      3.6991                 2.4649                 2.6610
 IR Inten    --    629.0928               267.9081               104.1188

                     46                     47                     48
                      A                      A                      A
 Frequencies --   1482.4421              1494.0524              1507.0060
 Red. masses --      1.0449                 1.1229                 3.7748
 Frc consts  --      1.3530                 1.4768                 5.0510
 IR Inten    --     12.6191               116.4090               151.1864

                     49                     50                     51
                      A                      A                      A
 Frequencies --   1516.7897              1548.1433              1612.3852
 Red. masses --      3.9398                 4.4577                 7.6386
 Frc consts  --      5.3404                 6.2948                11.7004
 IR Inten    --    955.4834                90.9572                45.4214

                     52                     53                     54
                      A                      A                      A
 Frequencies --   1627.2563              3013.1283              3074.9071
 Red. masses --      5.9143                 1.0331                 1.1064
 Frc consts  --      9.2272                 5.5261                 6.1635
 IR Inten    --     17.1687                83.6324                53.2252

                     55                     56                     57
                      A                      A                      A
 Frequencies --   3134.1117              3158.1082              3172.4273
 Red. masses --      1.1009                 1.0860                 1.0904
 Frc consts  --      6.3710                 6.3815                 6.4659
 IR Inten    --     33.8143                10.9826                23.1253

                     58                     59                     60
                      A                      A                      A
 Frequencies --   3188.8575              3190.8289              3193.0812
 Red. masses --      1.0918                 1.0888                 1.0935
 Frc consts  --      6.5413                 6.5316                 6.5686
 IR Inten    --     20.6391                20.4310                26.2458

 - Thermochemistry -
 -------------------
 Temperature   298.150 Kelvin.  Pressure   1.00000 Atm.
 Atom     1 has atomic number  6 and mass  12.00000

 Molecular mass:   188.04734 amu.
 Principal axes and moments of inertia in atomic units:
                           1         2         3
     Eigenvalues --  1450.943503220.608194660.06824
           X            0.97851  -0.20620   0.00059
           Y            0.20550   0.97542   0.07954
           Z           -0.01697  -0.07771   0.99683
 This molecule is an asymmetric top.
 Rotational symmetry number  1.
 Warning -- assumption of classical behavior for rotation
           may cause significant error
 Rotational temperatures (Kelvin)      0.05969     0.02689     0.01859
 Rotational constants (GHZ):           1.24384     0.56037     0.38728
 Zero-point vibrational energy     427116.6 (Joules/Mol)
                                  102.08331 (Kcal/Mol)
 Warning -- explicit consideration of  16 degrees of freedom as
           vibrations may cause significant error
 Vibrational temperatures:     82.20   162.43   190.36   251.96   296.55
          (Kelvin)            300.83   385.51   399.67   495.76   531.36
                              584.75   642.61   659.88   678.59   741.98
                              783.37   930.48   948.56   997.55  1034.17
                             1041.53  1114.82  1136.16  1202.02  1209.39
                             1273.22  1339.59  1417.43  1438.64  1492.62
                             1543.32  1587.90  1642.37  1670.28  1676.56
                             1705.81  1760.69  1771.77  1795.24  1871.85
                             1945.42  2023.55  2086.12  2107.59  2116.65
                             2132.90  2149.61  2168.25  2182.32  2227.43
                             2319.86  2341.26  4335.22  4424.11  4509.29
                             4543.81  4564.42  4588.05  4590.89  4594.13

 Zero-point correction=                           0.162680 (Hartree/Particle)
 Thermal correction to Energy=                    0.173868
 Thermal correction to Enthalpy=                  0.174812
 Thermal correction to Gibbs Free Energy=         0.124899
 Sum of electronic and zero-point Energies=           -649.806592
 Sum of electronic and thermal Energies=              -649.795404
 Sum of electronic and thermal Enthalpies=            -649.794460
 Sum of electronic and thermal Free Energies=         -649.844373

                     E (Thermal)             CV                S
                      KCal/Mol        Cal/Mol-Kelvin    Cal/Mol-Kelvin
 Total                  109.104             43.783            105.050
 Electronic               0.000              0.000              1.377
 Translational            0.889              2.981             41.600
 Rotational               0.889              2.981             31.455
 Vibrational            107.326             37.821             30.618
 Vibration     1          0.596              1.975              4.554
 Vibration     2          0.607              1.939              3.218
 Vibration     3          0.612              1.921              2.912
 Vibration     4          0.627              1.873              2.380
 Vibration     5          0.641              1.831              2.078
 Vibration     6          0.642              1.827              2.052
 Vibration     7          0.673              1.732              1.609
 Vibration     8          0.679              1.715              1.547
 Vibration     9          0.723              1.586              1.191
 Vibration    10          0.742              1.535              1.083
 Vibration    11          0.771              1.456              0.939
 Vibration    12          0.806              1.368              0.806
 Vibration    13          0.817              1.342              0.770
 Vibration    14          0.829              1.313              0.733
 Vibration    15          0.871              1.215              0.620
 Vibration    16          0.900              1.152              0.556

 Optimization completed.
    -- Stationary point found.
 Normal termination of Gaussian 16 at Sun Feb 11 01:57:04 2024.
