 Q-Chem 5.4, Q-Chem, Inc., Pleasanton, CA (2021)
 Q-Chem 5.4.0 for Intel X86 EM64T Linux

User input:
--------------------------------------------------------------
$molecule
0 1
C                 -1.8186380000      2.8111510000     -0.7528290000
C                 -2.9172350000      1.9849110000     -0.5315540000
C                 -2.7206600000      0.6533920000     -0.1688140000
C                 -0.5229380000      2.3140590000     -0.6136330000
C                 -0.3240120000      0.9673870000     -0.2467900000
C                 -1.4313810000      0.1437100000     -0.0261820000
C                  0.6394960000      3.2176600000     -0.8556580000
C                  2.0667950000      2.6137600000     -0.6872010000
C                  2.1512460000      1.2145550000     -0.3063700000
C                  1.0467670000      0.4554920000     -0.1032890000
O                  0.5088560000      4.3772190000     -1.1713050000
O                  3.0395800000      3.3174050000     -0.8755600000
H                 -1.9427450000      3.8495300000     -1.0355680000
H                 -3.9216950000      2.3768090000     -0.6412470000
H                 -3.5730450000      0.0065600000      0.0044640000
H                 -1.2792310000     -0.8896000000      0.2553490000
H                  3.1482960000      0.8002740000     -0.1906140000
O                  1.1060900000     -0.8483430000      0.2516090000
H                  2.0264060000     -1.1275640000      0.3306320000
$end

$rem
BASIS  =  6-311++G(d,p)
GUI  =  2
JOB_TYPE  =  SP
METHOD  =  B3LYP
SCF_CONVERGENCE  = 8
SOLVENT_METHOD = sm12
$end

$smx
solvent dimethylformamide
charges CM5
$end

--------------------------------------------------------------

             Standard Nuclear Orientation (Angstroms)
    I     Atom           X                Y                Z
 ----------------------------------------------------------------
    1      C      -1.8186380000     2.8111510000    -0.7528290000
    2      C      -2.9172350000     1.9849110000    -0.5315540000
    3      C      -2.7206600000     0.6533920000    -0.1688140000
    4      C      -0.5229380000     2.3140590000    -0.6136330000
    5      C      -0.3240120000     0.9673870000    -0.2467900000
    6      C      -1.4313810000     0.1437100000    -0.0261820000
    7      C       0.6394960000     3.2176600000    -0.8556580000
    8      C       2.0667950000     2.6137600000    -0.6872010000
    9      C       2.1512460000     1.2145550000    -0.3063700000
   10      C       1.0467670000     0.4554920000    -0.1032890000
   11      O       0.5088560000     4.3772190000    -1.1713050000
   12      O       3.0395800000     3.3174050000    -0.8755600000
   13      H      -1.9427450000     3.8495300000    -1.0355680000
   14      H      -3.9216950000     2.3768090000    -0.6412470000
   15      H      -3.5730450000     0.0065600000     0.0044640000
   16      H      -1.2792310000    -0.8896000000     0.2553490000
   17      H       3.1482960000     0.8002740000    -0.1906140000
   18      O       1.1060900000    -0.8483430000     0.2516090000
   19      H       2.0264060000    -1.1275640000     0.3306320000
 ----------------------------------------------------------------

   15    -610.4987727045      6.00e-09  Convergence criterion met
 Total energy in the final basis set =     -610.5249816303

                    Orbital Energies (a.u.)
 --------------------------------------------------------------

 Alpha MOs
 -- Occupied --
-19.1931 -19.1410 -19.1249 -10.2863 -10.2826 -10.2736 -10.2201 -10.2105
-10.2015 -10.2015 -10.2007 -10.1979 -10.1909  -1.1073  -1.0802  -1.0501
 -0.8965  -0.8340  -0.7859  -0.7683  -0.7105  -0.6590  -0.6279  -0.6236
 -0.5620  -0.5526  -0.5306  -0.4837  -0.4805  -0.4658  -0.4622  -0.4588
 -0.4494  -0.4345  -0.4311  -0.4140  -0.4008  -0.3802  -0.3786  -0.3725
 -0.3097  -0.3040  -0.2826  -0.2591  -0.2556

          Ground-State Mulliken Net Atomic Charges

     Atom                 Charge (a.u.)
  ----------------------------------------
      1 C                     0.069539
      2 C                     0.366979
      3 C                     0.263079
      4 C                    -1.906582
      5 C                     0.595989
      6 C                     0.928205
      7 C                    -1.494874
      8 C                    -1.274856
      9 C                     0.417657
     10 C                     1.133681
     11 O                    -0.305162
     12 O                    -0.377214
     13 H                     0.183639
     14 H                     0.305716
     15 H                     0.331745
     16 H                     0.229902
     17 H                     0.304611
     18 O                    -0.098510
     19 H                     0.326459
  ----------------------------------------
  Sum of atomic charges =     0.000000

                    Cartesian Multipole Moments
 -----------------------------------------------------------------
    Charge (ESU x 10^10)
                 0.0000
    Dipole Moment (Debye)
         X      -4.0349      Y      -6.7925      Z       1.8351
       Tot       8.1109
    Quadrupole Moments (Debye-Ang)
        XX     -68.4421     XY     -22.4930     YY    -102.5676
        XZ       6.0736     YZ       7.1146     ZZ     -77.6093

 Total job time:  250.86s(wall), 1664.51s(cpu)
        *  Thank you very much for using Q-Chem.  Have a nice day.  *
