 Gaussian 16, Revision A.03,
 Gaussian 16:  ES64L-G16RevA.03 25-Dec-2016

 ----------------------------------------------------------------------
 #P UB3LYP/6-311++G(d,p) nosym opt freq SCRF=(PCM,Solvent=n,n-DiMethylF
 ormamide)
 ----------------------------------------------------------------------

 -------
 Reduced
 -------
 Symbolic Z-matrix:
 Charge = -2 Multiplicity = 1

 SCF Done:  E(UB3LYP) =  -6109.13502276     A.U. after   16 cycles
 SCF Done:  E(UB3LYP) =  -6109.13659958     A.U. after   13 cycles
 SCF Done:  E(UB3LYP) =  -6109.13640148     A.U. after   13 cycles
 SCF Done:  E(UB3LYP) =  -6109.13690454     A.U. after   13 cycles
 SCF Done:  E(UB3LYP) =  -6109.13692645     A.U. after   11 cycles
 SCF Done:  E(UB3LYP) =  -6109.13693176     A.U. after   10 cycles
 SCF Done:  E(UB3LYP) =  -6109.13693230     A.U. after   10 cycles
 SCF Done:  E(UB3LYP) =  -6109.13693240     A.U. after    9 cycles
 SCF Done:  E(UB3LYP) =  -6109.13693244     A.U. after    9 cycles
 Optimization completed.
    -- Stationary point found.
 Normal termination of Gaussian 16 at Sat Feb 10 12:49:04 2024.

 ----------------------------------------------------------------------
 #P Geom=AllCheck Guess=TCheck SCRF=Check GenChk UB3LYP/6-311++G(d,p) F
 req
 ----------------------------------------------------------------------

 Structure from the checkpoint file:  "025-an.chk"
 -------
 Reduced
 -------
 Charge = -2 Multiplicity = 1

                          Input orientation:
 ---------------------------------------------------------------------
 Center     Atomic      Atomic             Coordinates (Angstroms)
 Number     Number       Type             X           Y           Z
 ---------------------------------------------------------------------
      1          6           0       -1.852522   -0.201657    1.381466
      2          6           0       -2.729876    0.660837    0.635166
      3          6           0       -2.209279    1.484757   -0.371343
      4          6           0       -0.836397    1.605510   -0.713714
      5          6           0        0.040953    0.742999    0.032566
      6          6           0       -0.479642   -0.080929    1.039073
      7          8           0       -0.354261    2.404757   -1.626366
      8          8           0       -2.334662   -1.000979    2.294051
      9         35           0        0.747343   -1.104898    2.169531
     10         35           0       -3.436278    2.508724   -1.501785
     11          7           0        1.426067    0.862823   -0.281041
     12          7           0       -4.115002    0.541011    0.948718
     13          6           0       -4.807523    1.693783    1.569068
     14          6           0       -6.309521    1.391351    1.658457
     15          6           0       -7.096532    2.559074    2.273066
     16          6           0       -6.534522    2.971119    3.641007
     17          6           0       -5.031103    3.269689    3.557119
     18          6           0       -4.259614    2.085460    2.955101
     19          6           0        2.118492   -0.289857   -0.901668
     20          6           0        3.620495    0.012534   -0.991121
     21          6           0        1.570444   -0.681207   -2.287738
     22          6           0        2.341837   -1.865325   -2.890094
     23          6           0        4.407405   -1.155082   -1.606061
     24          6           0        3.845259   -1.566793   -2.974047
     25          1           0        1.458324    1.641873   -0.941347
     26          1           0       -4.147280   -0.237932    1.609151
     27          1           0       -4.678814    2.549745    0.901483
     28          1           0       -6.454194    0.490072    2.270790
     29          1           0       -6.691061    1.157432    0.659490
     30          1           0       -8.154749    2.291079    2.362196
     31          1           0       -7.050236    3.419532    1.592661
     32          1           0       -6.699546    2.157002    4.359094
     33          1           0       -7.075938    3.842295    4.025457
     34          1           0       -4.635946    3.511011    4.549877
     35          1           0       -4.873911    4.160639    2.934783
     36          1           0       -4.343509    1.220061    3.625474
     37          1           0       -3.193775    2.321089    2.874668
     38          1           0        1.989800   -1.145952   -0.234254
     39          1           0        4.002133    0.246214    0.007865
     40          1           0        3.765151    0.913945   -1.603264
     41          1           0        1.654300    0.184343   -2.957923
     42          1           0        0.504605   -0.916820   -2.207256
     43          1           0        1.946583   -2.106407   -3.882872
     44          1           0        2.184668   -2.756412   -2.267948
     45          1           0        4.361133   -2.015692   -0.925848
     46          1           0        5.465625   -0.887109   -1.695223
     47          1           0        4.386609   -2.437902   -3.358744
     48          1           0        4.010251   -0.752518   -3.691963
 ---------------------------------------------------------------------

 SCF Done:  E(UB3LYP) =  -6109.13693244     A.U. after    2 cycles

 Alpha  occ. eigenvalues -- -482.80149-482.80149 -62.45430 -62.45430 -56.27430
 Alpha  occ. eigenvalues --  -56.27430 -56.27105 -56.27105 -56.27076 -56.27076
 Alpha  occ. eigenvalues --  -19.02233 -19.02233 -14.28200 -14.28199 -10.18056
 Alpha  occ. eigenvalues --  -10.18055 -10.17984 -10.17984 -10.17845 -10.17844
 Alpha  occ. eigenvalues --  -10.16657 -10.16656 -10.15615 -10.15615 -10.15529
 Alpha  occ. eigenvalues --  -10.15529 -10.15488 -10.15487 -10.15206 -10.15206
 Alpha  occ. eigenvalues --  -10.14805 -10.14805  -8.66393  -8.66392  -6.49414
 Alpha  occ. eigenvalues --   -6.49414  -6.48335  -6.48335  -6.48249  -6.48249
 Alpha  occ. eigenvalues --   -2.60529  -2.60529  -2.60235  -2.60235  -2.60169
 Alpha  occ. eigenvalues --   -2.60169  -2.59312  -2.59312  -2.59310  -2.59310
 Alpha  occ. eigenvalues --   -0.94387  -0.93734  -0.88918  -0.88692  -0.81694
 Alpha  occ. eigenvalues --   -0.81274  -0.79477  -0.77600  -0.74390  -0.73236
 Alpha  occ. eigenvalues --   -0.73163  -0.72396  -0.71009  -0.65692  -0.64371
 Alpha  occ. eigenvalues --   -0.60345  -0.60054  -0.59668  -0.58671  -0.55440
 Alpha  occ. eigenvalues --   -0.54997  -0.54040  -0.52575  -0.48761  -0.47119
 Alpha  occ. eigenvalues --   -0.46205  -0.45258  -0.45241  -0.43739  -0.43204
 Alpha  occ. eigenvalues --   -0.43003  -0.42986  -0.40990  -0.40494  -0.39439
 Alpha  occ. eigenvalues --   -0.38973  -0.38117  -0.37977  -0.37238  -0.36975
 Alpha  occ. eigenvalues --   -0.36947  -0.36156  -0.35986  -0.35779  -0.33775
 Alpha  occ. eigenvalues --   -0.33534  -0.33492  -0.33378  -0.33302  -0.32201
 Alpha  occ. eigenvalues --   -0.31431  -0.31256  -0.30576  -0.30560  -0.30389
 Alpha  occ. eigenvalues --   -0.29707  -0.29115  -0.27903  -0.26414  -0.26302
 Alpha  occ. eigenvalues --   -0.24702  -0.24668  -0.21074  -0.20771  -0.20376
 Alpha  occ. eigenvalues --   -0.17918  -0.12014
 Alpha virt. eigenvalues --   -0.00773  -0.00126   0.00288   0.00446   0.01264
 Alpha virt. eigenvalues --    0.01424   0.01560   0.01741   0.02212   0.02498
 Alpha virt. eigenvalues --    0.03048   0.03411   0.03558   0.03914   0.04287

  Beta  occ. eigenvalues -- -482.80149-482.80149 -62.45430 -62.45430 -56.27430
  Beta  occ. eigenvalues --  -56.27430 -56.27105 -56.27105 -56.27076 -56.27076
  Beta  occ. eigenvalues --  -19.02233 -19.02233 -14.28200 -14.28199 -10.18056
  Beta  occ. eigenvalues --  -10.18055 -10.17984 -10.17984 -10.17845 -10.17844
  Beta  occ. eigenvalues --  -10.16657 -10.16656 -10.15615 -10.15615 -10.15529
  Beta  occ. eigenvalues --  -10.15529 -10.15488 -10.15487 -10.15206 -10.15206
  Beta  occ. eigenvalues --  -10.14805 -10.14805  -8.66393  -8.66392  -6.49414
  Beta  occ. eigenvalues --   -6.49414  -6.48335  -6.48335  -6.48249  -6.48249
  Beta  occ. eigenvalues --   -2.60529  -2.60529  -2.60235  -2.60235  -2.60169
  Beta  occ. eigenvalues --   -2.60169  -2.59312  -2.59312  -2.59310  -2.59310
  Beta  occ. eigenvalues --   -0.94387  -0.93734  -0.88918  -0.88692  -0.81694
  Beta  occ. eigenvalues --   -0.81274  -0.79477  -0.77600  -0.74390  -0.73236
  Beta  occ. eigenvalues --   -0.73163  -0.72396  -0.71009  -0.65692  -0.64371
  Beta  occ. eigenvalues --   -0.60345  -0.60054  -0.59668  -0.58671  -0.55440
  Beta  occ. eigenvalues --   -0.54997  -0.54040  -0.52575  -0.48761  -0.47119
  Beta  occ. eigenvalues --   -0.46205  -0.45258  -0.45241  -0.43739  -0.43204
  Beta  occ. eigenvalues --   -0.43003  -0.42986  -0.40990  -0.40494  -0.39439
  Beta  occ. eigenvalues --   -0.38973  -0.38117  -0.37977  -0.37238  -0.36975
  Beta  occ. eigenvalues --   -0.36947  -0.36156  -0.35986  -0.35779  -0.33775
  Beta  occ. eigenvalues --   -0.33534  -0.33492  -0.33378  -0.33302  -0.32201
  Beta  occ. eigenvalues --   -0.31431  -0.31256  -0.30576  -0.30560  -0.30389
  Beta  occ. eigenvalues --   -0.29707  -0.29115  -0.27903  -0.26414  -0.26302
  Beta  occ. eigenvalues --   -0.24702  -0.24668  -0.21074  -0.20771  -0.20376
  Beta  occ. eigenvalues --   -0.17918  -0.12014
  Beta virt. eigenvalues --   -0.00773  -0.00126   0.00288   0.00446   0.01264
  Beta virt. eigenvalues --    0.01424   0.01560   0.01741   0.02212   0.02498
  Beta virt. eigenvalues --    0.03048   0.03411   0.03558   0.03914   0.04287

 Mulliken charges and spin densities:
               1          2
     1  C   -0.641281  -0.000000
     2  C   -0.335528  -0.000000
     3  C    0.793251   0.000000
     4  C   -0.641078  -0.000000
     5  C   -0.335588   0.000000
     6  C    0.793037   0.000000
     7  O   -0.626053   0.000000
     8  O   -0.626060   0.000000
     9  Br  -0.150711   0.000000
    10  Br  -0.150700  -0.000000
    11  N    0.241963  -0.000000
    12  N    0.241880   0.000000
    13  C   -0.619394  -0.000000
    14  C   -0.178049   0.000000
    15  C   -0.317482   0.000000
    16  C   -0.430944  -0.000000
    17  C   -0.443438   0.000000
    18  C   -0.096204   0.000000
    19  C   -0.619645   0.000000
    20  C   -0.177977   0.000000
    21  C   -0.096055  -0.000000
    22  C   -0.443544   0.000000
    23  C   -0.317528   0.000000
    24  C   -0.430891   0.000000
    25  H    0.260556  -0.000000
    26  H    0.260584   0.000000
    27  H    0.045600  -0.000000
    28  H    0.123547  -0.000000
    29  H    0.162628   0.000000
    30  H    0.173957   0.000000
    31  H    0.132263   0.000000
    32  H    0.121547   0.000000
    33  H    0.167064  -0.000000
    34  H    0.165607  -0.000000
    35  H    0.138295   0.000000
    36  H    0.153117   0.000000
    37  H    0.159766  -0.000000
    38  H    0.045708   0.000000
    39  H    0.162628  -0.000000
    40  H    0.123545   0.000000
    41  H    0.153125   0.000000
    42  H    0.159759  -0.000000
    43  H    0.165609  -0.000000
    44  H    0.138291   0.000000
    45  H    0.132258   0.000000
    46  H    0.173957  -0.000000
    47  H    0.167065   0.000000
    48  H    0.121543  -0.000000
 Sum of Mulliken charges =  -2.00000   0.00000

 Dipole moment (field-independent basis, Debye):
    X=             12.9150    Y=             -6.7423    Z=             -3.2074  Tot=             14.9179
 Quadrupole moment (field-independent basis, Debye-Ang):
   XX=           -221.7462   YY=           -213.1218   ZZ=           -215.6238
   XY=              2.8968   XZ=              1.6763   YZ=             27.5818

  Exact polarizability: 502.076 -40.891 387.576 -14.015 -58.898 411.723
 Approx polarizability: 507.865 -20.678 422.628 -11.260 -81.209 439.363

                      1                      2                      3
                      A                      A                      A
 Frequencies --     23.1483                29.5257                30.8608
 Red. masses --      5.3478                 2.7757                 3.0465
 Frc consts  --      0.0017                 0.0014                 0.0017
 IR Inten    --      6.1627                 0.0293                 0.0000

                      4                      5                      6
                      A                      A                      A
 Frequencies --     40.9222                54.5964                67.0620
 Red. masses --      4.7607                 6.4242                 5.2574
 Frc consts  --      0.0047                 0.0113                 0.0139
 IR Inten    --      7.3814                 0.0000                 0.0000

                      7                      8                      9
                      A                      A                      A
 Frequencies --     74.3514               138.0179               138.0679
 Red. masses --      9.6465                 9.1172                 5.2847
 Frc consts  --      0.0314                 0.1023                 0.0594
 IR Inten    --      2.2483                 3.7705                 0.1799

                     10                     11                     12
                      A                      A                      A
 Frequencies --    140.9738               150.8147               157.6492
 Red. masses --      5.4207                 5.4698                 4.2489
 Frc consts  --      0.0635                 0.0733                 0.0622
 IR Inten    --     24.7542                 0.0000                12.6754

                     13                     14                     15
                      A                      A                      A
 Frequencies --    190.2267               197.7907               205.2193
 Red. masses --      7.5833                 8.1864                 7.1394
 Frc consts  --      0.1617                 0.1887                 0.1772
 IR Inten    --      0.0000                 0.0000                 1.7174

                     16                     17                     18
                      A                      A                      A
 Frequencies --    226.8333               232.7684               236.9520
 Red. masses --      4.3773                 1.9227                 1.9546
 Frc consts  --      0.1327                 0.0614                 0.0647
 IR Inten    --      0.0000                 0.5106                 0.0000

                     19                     20                     21
                      A                      A                      A
 Frequencies --    257.5192               298.5641               316.4523
 Red. masses --      5.1742                 5.9754                 4.9437
 Frc consts  --      0.2022                 0.3138                 0.2917
 IR Inten    --     11.8558                14.1204                 0.0000

                     22                     23                     24
                      A                      A                      A
 Frequencies --    321.1751               325.7744               348.2361
 Red. masses --      2.7318                 2.4343                 7.0642
 Frc consts  --      0.1660                 0.1522                 0.5047
 IR Inten    --      0.0000                 6.6628                 0.0000

                     25                     26                     27
                      A                      A                      A
 Frequencies --    356.0541               368.7717               429.0166
 Red. masses --      2.9595                 3.4491                 2.6537
 Frc consts  --      0.2211                 0.2764                 0.2878
 IR Inten    --      7.0358                 0.0000                 7.6096

                     28                     29                     30
                      A                      A                      A
 Frequencies --    432.4174               433.2456               451.8497
 Red. masses --      2.7643                 3.9920                 3.0157
 Frc consts  --      0.3045                 0.4415                 0.3628
 IR Inten    --      0.0000                15.1410                 0.0002

                     31                     32                     33
                      A                      A                      A
 Frequencies --    452.2942               464.1594               493.0624
 Red. masses --      2.6445                 2.2836                10.6933
 Frc consts  --      0.3187                 0.2899                 1.5317
 IR Inten    --      3.4599                 0.0000                 0.0000

                     34                     35                     36
                      A                      A                      A
 Frequencies --    504.7326               538.1330               553.3511
 Red. masses --      3.8415                 2.2417                 2.1450
 Frc consts  --      0.5766                 0.3825                 0.3870
 IR Inten    --     18.9707                39.6754                 0.0000

                     37                     38                     39
                      A                      A                      A
 Frequencies --    596.4179               598.3694               715.2233
 Red. masses --      6.5179                 5.7335                 6.7882
 Frc consts  --      1.3660                 1.2095                 2.0459
 IR Inten    --     10.4290                 0.0000                74.8313

                     40                     41                     42
                      A                      A                      A
 Frequencies --    722.8790               740.2508               744.3570
 Red. masses --      4.9655                 7.9494                 9.2694
 Frc consts  --      1.5288                 2.5665                 3.0260
 IR Inten    --      0.0000                 0.0000               364.4033

                     43                     44                     45
                      A                      A                      A
 Frequencies --    787.3356               787.7283               794.0124
 Red. masses --      2.2855                 2.1992                 1.5613
 Frc consts  --      0.8348                 0.8040                 0.5799
 IR Inten    --      0.0001                30.3708                 0.2354

                     46                     47                     48
                      A                      A                      A
 Frequencies --    794.1334               817.8309               837.8079
 Red. masses --      1.5734                 6.1451                 2.4704
 Frc consts  --      0.5846                 2.4216                 1.0216
 IR Inten    --     23.4420                 0.0000               155.0380

                     49                     50                     51
                      A                      A                      A
 Frequencies --    848.3884               855.7823               871.8552
 Red. masses --      2.5427                 1.5780                 1.6079
 Frc consts  --      1.0783                 0.6809                 0.7201
 IR Inten    --      0.0000               100.3191                 0.0000

                     52                     53                     54
                      A                      A                      A
 Frequencies --    898.3967               899.8296               901.1373
 Red. masses --      1.9128                 1.6936                 1.8173
 Frc consts  --      0.9096                 0.8080                 0.8695
 IR Inten    --     18.7582                 0.0000               116.1260

                     55                     56                     57
                      A                      A                      A
 Frequencies --    921.4768               929.1536               929.3430
 Red. masses --      2.2890                 1.6280                 1.6388
 Frc consts  --      1.1451                 0.8281                 0.8339
 IR Inten    --      0.0000                 5.9515                 0.0056

                     58                     59                     60
                      A                      A                      A
 Frequencies --    980.8826               985.4063              1030.2743
 Red. masses --      2.0034                 1.9067                 1.7691
 Frc consts  --      1.1357                 1.0908                 1.1064
 IR Inten    --     71.0451                 0.0000                 2.6099

                     61                     62                     63
                      A                      A                      A
 Frequencies --   1030.3664              1032.2856              1060.2449
 Red. masses --      1.7619                 4.5310                 1.4287
 Frc consts  --      1.1021                 2.8448                 0.9462
 IR Inten    --      0.0015               288.5326                31.3886

                     64                     65                     66
                      A                      A                      A
 Frequencies --   1060.5307              1085.8598              1086.6555
 Red. masses --      1.4056                 4.4686                 1.1629
 Frc consts  --      0.9314                 3.1044                 0.8090
 IR Inten    --      0.0004               101.7900                 0.0003

                     67                     68                     69
                      A                      A                      A
 Frequencies --   1086.9368              1093.6191              1094.4976
 Red. masses --      1.1401                 2.5606                 2.6412
 Frc consts  --      0.7936                 1.8044                 1.8641
 IR Inten    --      1.2217                 0.0013                74.7888

                     70                     71                     72
                      A                      A                      A
 Frequencies --   1097.6983              1125.2654              1154.8314
 Red. masses --      3.2242                 5.5947                 3.1620
 Frc consts  --      2.2889                 4.1739                 2.4846
 IR Inten    --      0.0000               874.7535               127.5836

                     73                     74                     75
                      A                      A                      A
 Frequencies --   1155.0197              1170.5685              1191.3550
 Red. masses --      6.7166                 2.4566                 3.1025
 Frc consts  --      5.2793                 1.9833                 2.5944
 IR Inten    --      0.0175                 0.0000                15.6709

                     76                     77                     78
                      A                      A                      A
 Frequencies --   1201.7135              1203.0365              1264.8738
 Red. masses --      1.5100                 1.5914                 1.3513
 Frc consts  --      1.2848                 1.3570                 1.2738
 IR Inten    --      0.0000                 0.2603                 0.0000

                     79                     80                     81
                      A                      A                      A
 Frequencies --   1270.0175              1277.8591              1279.7525
 Red. masses --      1.3462                 1.2749                 1.3080
 Frc consts  --      1.2793                 1.2266                 1.2621
 IR Inten    --     18.6028                 0.0000                 4.1587

                     82                     83                     84
                      A                      A                      A
 Frequencies --   1282.6234              1283.0299              1327.8963
 Red. masses --      1.2629                 1.2780                 1.3429
 Frc consts  --      1.2241                 1.2395                 1.3952
 IR Inten    --      0.0072                10.8850                 0.0000

                     85                     86                     87
                      A                      A                      A
 Frequencies --   1330.8921              1332.4986              1341.6357
 Red. masses --      1.3172                 1.3377                 1.2614
 Frc consts  --      1.3746                 1.3994                 1.3378
 IR Inten    --      2.6337                 0.0000                20.2164

                     88                     89                     90
                      A                      A                      A
 Frequencies --   1362.6304              1362.6337              1369.8296
 Red. masses --      1.3681                 1.3684                 1.4740
 Frc consts  --      1.4967                 1.4970                 1.6296
 IR Inten    --      2.0448                 0.8241                 0.0000

                     91                     92                     93
                      A                      A                      A
 Frequencies --   1369.9223              1371.9707              1372.7707
 Red. masses --      1.4482                 1.5363                 1.4386
 Frc consts  --      1.6013                 1.7038                 1.5973
 IR Inten    --      0.0526                 0.0009                37.6872

                     94                     95                     96
                      A                      A                      A
 Frequencies --   1374.2537              1374.8404              1378.6586
 Red. masses --      1.4841                 1.3850                 2.1589
 Frc consts  --      1.6513                 1.5424                 2.4177
 IR Inten    --      0.0001                 4.3497                 0.0000

                     97                     98                     99
                      A                      A                      A
 Frequencies --   1387.0029              1388.6719              1397.1863
 Red. masses --      2.4918                 2.0985                 3.1686
 Frc consts  --      2.8243                 2.3843                 3.6444
 IR Inten    --      0.0002               541.6508               984.8038

                    100                    101                    102
                      A                      A                      A
 Frequencies --   1412.2039              1440.4716              1477.6181
 Red. masses --      2.7343                 6.9704                 1.0896
 Frc consts  --      3.2129                 8.5216                 1.4016
 IR Inten    --      0.0002               216.5618                 0.0983

                    103                    104                    105
                      A                      A                      A
 Frequencies --   1477.6393              1479.8068              1479.8194
 Red. masses --      1.0896                 1.0933                 1.0933
 Frc consts  --      1.4017                 1.4105                 1.4106
 IR Inten    --      0.0296                 0.0158                 5.7710

                    106                    107                    108
                      A                      A                      A
 Frequencies --   1482.0033              1482.0297              1484.4128
 Red. masses --      1.0983                 1.0988                 1.0859
 Frc consts  --      1.4213                 1.4219                 1.4098
 IR Inten    --      0.2553                15.5759                26.8158

                    109                    110                    111
                      A                      A                      A
 Frequencies --   1484.4536              1497.6774              1497.6847
 Red. masses --      1.0864                 1.0994                 1.0993
 Frc consts  --      1.4104                 1.4529                 1.4529
 IR Inten    --      0.5128                 2.0167                 1.7655

                    112                    113                    114
                      A                      A                      A
 Frequencies --   1526.2256              1527.5438              1590.2680
 Red. masses --      1.2571                 1.5771                 5.7238
 Frc consts  --      1.7253                 2.1682                 8.5286
 IR Inten    --    225.3412                 0.0688                 0.0000

                    115                    116                    117
                      A                      A                      A
 Frequencies --   2986.9346              2986.9480              2993.2588
 Red. masses --      1.0688                 1.0688                 1.0711
 Frc consts  --      5.6181                 5.6182                 5.6543
 IR Inten    --    101.8907                 0.7121                59.2018

                    118                    119                    120
                      A                      A                      A
 Frequencies --   2993.2783              2995.4761              2995.4859
 Red. masses --      1.0712                 1.0639                 1.0639
 Frc consts  --      5.6545                 5.6245                 5.6245
 IR Inten    --      0.0117                51.4714                 0.1992

                    121                    122                    123
                      A                      A                      A
 Frequencies --   2998.5590              2998.5607              3003.1580
 Red. masses --      1.0605                 1.0605                 1.0635
 Frc consts  --      5.6180                 5.6180                 5.6512
 IR Inten    --      0.1773               155.5635                46.7494

                    124                    125                    126
                      A                      A                      A
 Frequencies --   3003.1814              3037.2536              3037.2609
 Red. masses --      1.0635                 1.0955                 1.0956
 Frc consts  --      5.6513                 5.9544                 5.9548
 IR Inten    --     41.1773               262.4376                 0.0103

                    127                    128                    129
                      A                      A                      A
 Frequencies --   3038.8406              3038.8870              3043.1820
 Red. masses --      1.0930                 1.0929                 1.1029
 Frc consts  --      5.9468                 5.9466                 6.0181
 IR Inten    --    296.1598                 0.0373               244.2566

                    130                    131                    132
                      A                      A                      A
 Frequencies --   3043.1894              3044.2852              3044.2942
 Red. masses --      1.1029                 1.0852                 1.0852
 Frc consts  --      6.0180                 5.9258                 5.9258
 IR Inten    --      0.0521                 9.9197                 5.9386

                    133                    134                    135
                      A                      A                      A
 Frequencies --   3049.6032              3049.6136              3063.5629
 Red. masses --      1.0970                 1.0970                 1.0923
 Frc consts  --      6.0109                 6.0110                 6.0402
 IR Inten    --     72.0684                66.6580               223.4243

                    136                    137                    138
                      A                      A                      A
 Frequencies --   3063.5842              3416.0143              3416.5229
 Red. masses --      1.0923                 1.0717                 1.0716
 Frc consts  --      6.0403                 7.3684                 7.3698
 IR Inten    --      8.4688               144.0696                 0.0000

 - Thermochemistry -
 -------------------
 Temperature   298.150 Kelvin.  Pressure   1.00000 Atm.
 Atom     1 has atomic number  6 and mass  12.00000

 Molecular mass:   458.02045 amu.
 Principal axes and moments of inertia in atomic units:
                           1         2         3
     Eigenvalues --  6544.05273********************
           X            0.88818   0.11009   0.44612
           Y           -0.36384  -0.42446   0.82913
           Z           -0.28064   0.89873   0.33694
 This molecule is an asymmetric top.
 Rotational symmetry number  1.
 Warning -- assumption of classical behavior for rotation
           may cause significant error
 Rotational temperatures (Kelvin)      0.01324     0.00425     0.00347
 Rotational constants (GHZ):           0.27578     0.08855     0.07224
 Zero-point vibrational energy    1039444.7 (Joules/Mol)
                                  248.43325 (Kcal/Mol)
 Warning -- explicit consideration of  38 degrees of freedom as
           vibrations may cause significant error
 Vibrational temperatures:     33.31    42.48    44.40    58.88    78.55
          (Kelvin)             96.49   106.98   198.58   198.65   202.83
                              216.99   226.82   273.69   284.58   295.26
                              326.36   334.90   340.92   370.51   429.57
                              455.30   462.10   468.72   501.03   512.28
                              530.58   617.26   622.15   623.34   650.11
                              650.75   667.82   709.41   726.20   774.25
                              796.15   858.11   860.92  1029.05  1040.06
                             1065.06  1070.96  1132.80  1133.37  1142.41
                             1142.58  1176.68  1205.42  1220.64  1231.28
                             1254.41  1292.59  1294.65  1296.54  1325.80
                             1336.84  1337.12  1411.27  1417.78  1482.33
                             1482.47  1485.23  1525.46  1525.87  1562.31
                             1563.45  1563.86  1573.47  1574.74  1579.34
                             1619.01  1661.54  1661.82  1684.19  1714.09
                             1729.00  1730.90  1819.87  1827.27  1838.55
                             1841.28  1845.41  1845.99  1910.55  1914.86
                             1917.17  1930.31  1960.52  1960.53  1970.88
                             1971.01  1973.96  1975.11  1977.24  1978.09
                             1983.58  1995.59  1997.99  2010.24  2031.85
                             2072.52  2125.96  2125.99  2129.11  2129.13
                             2132.27  2132.31  2135.74  2135.80  2154.82
                             2154.83  2195.90  2197.79  2288.04  4297.53
                             4297.55  4306.63  4306.66  4309.82  4309.84
                             4314.26  4314.26  4320.87  4320.91  4369.93
                             4369.94  4372.21  4372.28  4378.46  4378.47
                             4380.05  4380.06  4387.70  4387.71  4407.78
                             4407.81  4914.88  4915.61

 Zero-point correction=                           0.395904 (Hartree/Particle)
 Thermal correction to Energy=                    0.419229
 Thermal correction to Enthalpy=                  0.420173
 Thermal correction to Gibbs Free Energy=         0.340908
 Sum of electronic and zero-point Energies=          -6108.741029
 Sum of electronic and thermal Energies=             -6108.717704
 Sum of electronic and thermal Enthalpies=           -6108.716759
 Sum of electronic and thermal Free Energies=        -6108.796024

                     E (Thermal)             CV                S
                      KCal/Mol        Cal/Mol-Kelvin    Cal/Mol-Kelvin
 Total                  263.070             89.721            166.827
 Electronic               0.000              0.000              0.000
 Translational            0.889              2.981             44.254
 Rotational               0.889              2.981             36.453
 Vibrational            261.293             83.759             86.120
 Vibration     1          0.593              1.985              6.344
 Vibration     2          0.593              1.984              5.861
 Vibration     3          0.594              1.984              5.773
 Vibration     4          0.594              1.981              5.214
 Vibration     5          0.596              1.976              4.644
 Vibration     6          0.598              1.970              4.238
 Vibration     7          0.599              1.966              4.035
 Vibration     8          0.614              1.915              2.831
 Vibration     9          0.614              1.915              2.830
 Vibration    10          0.615              1.912              2.791
 Vibration    11          0.618              1.902              2.662
 Vibration    12          0.621              1.894              2.578
 Vibration    13          0.634              1.853              2.226
 Vibration    14          0.637              1.843              2.154
 Vibration    15          0.640              1.832              2.086
 Vibration    16          0.650              1.800              1.904
 Vibration    17          0.654              1.791              1.857
 Vibration    18          0.656              1.784              1.826
 Vibration    19          0.667              1.750              1.679
 Vibration    20          0.692              1.676              1.425
 Vibration    21          0.703              1.642              1.328
 Vibration    22          0.707              1.633              1.304
 Vibration    23          0.710              1.624              1.281
 Vibration    24          0.726              1.579              1.174
 Vibration    25          0.732              1.563              1.139
 Vibration    26          0.741              1.536              1.085
 Vibration    27          0.790              1.407              0.862
 Vibration    28          0.793              1.400              0.851
 Vibration    29          0.794              1.398              0.848
 Vibration    30          0.811              1.357              0.790
 Vibration    31          0.811              1.356              0.789
 Vibration    32          0.822              1.330              0.754
 Vibration    33          0.849              1.265              0.676
 Vibration    34          0.860              1.240              0.646
 Vibration    35          0.893              1.166              0.569
 Vibration    36          0.909              1.132              0.537
 Vibration    37          0.954              1.039              0.456
 Vibration    38          0.956              1.035              0.452

 Optimization completed.
    -- Stationary point found.
 Normal termination of Gaussian 16 at Sat Feb 10 18:14:36 2024.
