 Gaussian 16, Revision A.03,
 Gaussian 16:  ES64L-G16RevA.03 25-Dec-2016

 ----------------------------------------------------------------------
 #P UB3LYP/6-311++G(d,p) nosym opt freq SCRF=(PCM,Solvent=n,n-DiMethylF
 ormamide)
 ----------------------------------------------------------------------

 -------
 Radical
 -------
 Symbolic Z-matrix:
 Charge = -1 Multiplicity = 2

 SCF Done:  E(UB3LYP) =  -939.837200519     A.U. after   19 cycles
 SCF Done:  E(UB3LYP) =  -939.837320165     A.U. after   15 cycles
 SCF Done:  E(UB3LYP) =  -939.837585663     A.U. after   15 cycles
 SCF Done:  E(UB3LYP) =  -939.837580525     A.U. after   14 cycles
 SCF Done:  E(UB3LYP) =  -939.837608183     A.U. after   15 cycles
 SCF Done:  E(UB3LYP) =  -939.837639575     A.U. after   14 cycles
 SCF Done:  E(UB3LYP) =  -939.837665359     A.U. after   13 cycles
 SCF Done:  E(UB3LYP) =  -939.837752699     A.U. after   16 cycles
 SCF Done:  E(UB3LYP) =  -939.830815563     A.U. after   19 cycles
 SCF Done:  E(UB3LYP) =  -939.837766610     A.U. after   18 cycles
 SCF Done:  E(UB3LYP) =  -939.842821824     A.U. after   16 cycles
 SCF Done:  E(UB3LYP) =  -939.842984119     A.U. after   15 cycles
 SCF Done:  E(UB3LYP) =  -939.843842421     A.U. after   15 cycles
 SCF Done:  E(UB3LYP) =  -939.843911038     A.U. after   15 cycles
 SCF Done:  E(UB3LYP) =  -939.844023308     A.U. after   14 cycles
 SCF Done:  E(UB3LYP) =  -939.844046547     A.U. after   11 cycles
 SCF Done:  E(UB3LYP) =  -939.844051635     A.U. after   11 cycles
 SCF Done:  E(UB3LYP) =  -939.844052391     A.U. after   11 cycles
 SCF Done:  E(UB3LYP) =  -939.844052532     A.U. after    8 cycles
 Optimization completed.
    -- Stationary point found.
 Normal termination of Gaussian 16 at Sun Feb 11 09:46:11 2024.

 ----------------------------------------------------------------------
 #P Geom=AllCheck Guess=TCheck SCRF=Check GenChk UB3LYP/6-311++G(d,p) F
 req
 ----------------------------------------------------------------------

 Structure from the checkpoint file:  "212-rad.chk"
 -------
 Radical
 -------
 Charge = -1 Multiplicity = 2

                          Input orientation:
 ---------------------------------------------------------------------
 Center     Atomic      Atomic             Coordinates (Angstroms)
 Number     Number       Type             X           Y           Z
 ---------------------------------------------------------------------
      1          8           0        3.790266   -2.536135    0.257918
      2          6           0        2.985848   -1.558080    0.171114
      3          6           0        3.385696   -0.212201    0.547187
      4          6           0        4.671592    0.026136    1.088295
      5          6           0        5.086109    1.302831    1.410491
      6          6           0        4.223799    2.398794    1.191307
      7          6           0        2.966890    2.188090    0.655636
      8          6           0        2.513393    0.890091    0.334460
      9          6           0        1.162207    0.718270   -0.218826
     10          8           0        0.509571    1.730258   -0.590799
     11          6           0        0.670518   -0.653160   -0.356853
     12          6           0       -0.704089   -0.960328   -0.696838
     13          6           0       -0.991390   -2.229357   -1.228747
     14          6           0       -0.016628   -3.233390   -1.284156
     15          6           0        1.251366   -3.013318   -0.786377
     16          6           0        1.617513   -1.735034   -0.315063
     17          7           0       -1.734616   -0.055343   -0.494500
     18          6           0       -1.765825    0.792380    0.711943
     19          6           0       -3.120538    0.688572    1.418833
     20          6           0       -4.265142    1.191426    0.515368
     21          6           0       -3.940734    0.925737   -0.970578
     22          6           0       -3.034310   -0.294640   -1.133218
     23          1           0        5.325080   -0.824480    1.240522
     24          1           0        6.073536    1.466029    1.829338
     25          1           0        4.547290    3.402705    1.444627
     26          1           0        2.295718    3.019582    0.477764
     27          1           0       -1.998260   -2.471143   -1.537411
     28          1           0       -0.287097   -4.207639   -1.679272
     29          1           0        1.994081   -3.799858   -0.765230
     30          1           0       -1.544661    1.831620    0.453488
     31          1           0       -0.968650    0.462594    1.379987
     32          1           0       -3.078989    1.264361    2.347957
     33          1           0       -3.295549   -0.354081    1.704571
     34          1           0       -4.424653    2.262934    0.668413
     35          1           0       -5.198781    0.693349    0.793803
     36          1           0       -4.856146    0.767843   -1.546827
     37          1           0       -3.437629    1.792972   -1.409564
     38          1           0       -2.867077   -0.498572   -2.194206
     39          1           0       -3.539709   -1.179812   -0.713356
 ---------------------------------------------------------------------

 SCF Done:  E(UB3LYP) =  -939.844052532     A.U. after    1 cycles

 Alpha  occ. eigenvalues --  -19.06834 -19.06708 -14.32083 -10.22265 -10.21469
 Alpha  occ. eigenvalues --  -10.21258 -10.19543 -10.18746 -10.17029 -10.16989
 Alpha  occ. eigenvalues --  -10.16899 -10.16851 -10.16823 -10.16743 -10.16714
 Alpha  occ. eigenvalues --  -10.16675 -10.16649 -10.16477 -10.16249 -10.16217
 Alpha  occ. eigenvalues --  -10.15859 -10.15377  -0.99614  -0.98852  -0.94143
 Alpha  occ. eigenvalues --   -0.85481  -0.84168  -0.79736  -0.77882  -0.75433
 Alpha  occ. eigenvalues --   -0.74649  -0.73288  -0.73136  -0.66517  -0.65295
 Alpha  occ. eigenvalues --   -0.63796  -0.62490  -0.60548  -0.57902  -0.55568
 Alpha  occ. eigenvalues --   -0.53528  -0.52621  -0.52391  -0.49674  -0.48806
 Alpha  occ. eigenvalues --   -0.46687  -0.46224  -0.45312  -0.45078  -0.42941
 Alpha  occ. eigenvalues --   -0.42424  -0.42110  -0.41982  -0.41597  -0.40579
 Alpha  occ. eigenvalues --   -0.40213  -0.39738  -0.39484  -0.38297  -0.37311
 Alpha  occ. eigenvalues --   -0.36867  -0.36256  -0.36107  -0.35019  -0.34241
 Alpha  occ. eigenvalues --   -0.33789  -0.33182  -0.32690  -0.31872  -0.31385
 Alpha  occ. eigenvalues --   -0.27398  -0.26108  -0.25327  -0.24348  -0.23764
 Alpha  occ. eigenvalues --   -0.23097  -0.19592  -0.13346
 Alpha virt. eigenvalues --   -0.04546  -0.01838  -0.00758   0.00149   0.00293
 Alpha virt. eigenvalues --    0.00739   0.01384   0.01638   0.01857   0.02420
 Alpha virt. eigenvalues --    0.03095   0.03820   0.03881   0.04085   0.04486

  Beta  occ. eigenvalues --  -19.06355 -19.06140 -14.32069 -10.22132 -10.21274
  Beta  occ. eigenvalues --  -10.21243 -10.19543 -10.18741 -10.16982 -10.16969
  Beta  occ. eigenvalues --  -10.16827 -10.16762 -10.16757 -10.16721 -10.16687
  Beta  occ. eigenvalues --  -10.16641 -10.16626 -10.16477 -10.16248 -10.16216
  Beta  occ. eigenvalues --  -10.15754 -10.15332  -0.98791  -0.97829  -0.94097
  Beta  occ. eigenvalues --   -0.85233  -0.84042  -0.79674  -0.77520  -0.75408
  Beta  occ. eigenvalues --   -0.74439  -0.73111  -0.72969  -0.66008  -0.65082
  Beta  occ. eigenvalues --   -0.63650  -0.62357  -0.60318  -0.57838  -0.55404
  Beta  occ. eigenvalues --   -0.53391  -0.52507  -0.52239  -0.49652  -0.48640
  Beta  occ. eigenvalues --   -0.46460  -0.46115  -0.45160  -0.45010  -0.42890
  Beta  occ. eigenvalues --   -0.42359  -0.42042  -0.41872  -0.40649  -0.40314
  Beta  occ. eigenvalues --   -0.39889  -0.39590  -0.39180  -0.38037  -0.36984
  Beta  occ. eigenvalues --   -0.36529  -0.35829  -0.34947  -0.34815  -0.34054
  Beta  occ. eigenvalues --   -0.33312  -0.33027  -0.32204  -0.31781  -0.31203
  Beta  occ. eigenvalues --   -0.27006  -0.24624  -0.24167  -0.23781  -0.23274
  Beta  occ. eigenvalues --   -0.22605  -0.18953
  Beta virt. eigenvalues --   -0.07674  -0.03624  -0.00899  -0.00701   0.00183
  Beta virt. eigenvalues --    0.00450   0.00848   0.01398   0.01657   0.01865
  Beta virt. eigenvalues --    0.02425   0.03098   0.03840   0.03933   0.04096

 Mulliken charges and spin densities:
               1          2
     1  O   -0.484132   0.212792
     2  C   -0.590748   0.134455
     3  C    0.337864   0.006786
     4  C    0.068947   0.047304
     5  C   -0.543612   0.012380
     6  C   -0.527318   0.064100
     7  C    0.009130   0.005617
     8  C    0.054954   0.052154
     9  C   -0.313640   0.065990
    10  O   -0.441111   0.176700
    11  C    0.106585   0.033423
    12  C   -0.138311   0.007205
    13  C   -0.139496   0.092502
    14  C   -0.476760   0.012289
    15  C   -0.020249   0.059189
    16  C    0.472374   0.026081
    17  N    0.451380   0.005971
    18  C   -0.230461   0.002229
    19  C   -0.505475   0.000883
    20  C   -0.470312   0.000099
    21  C   -0.447203   0.000080
    22  C   -0.064837  -0.000850
    23  H    0.167891  -0.003035
    24  H    0.177787  -0.001551
    25  H    0.179306  -0.004783
    26  H    0.168954   0.000626
    27  H    0.161389  -0.004857
    28  H    0.190995  -0.001749
    29  H    0.159302  -0.004072
    30  H    0.203449  -0.000002
    31  H    0.158190  -0.000703
    32  H    0.177232   0.000085
    33  H    0.167101   0.000188
    34  H    0.150802   0.000066
    35  H    0.148282   0.000063
    36  H    0.175758  -0.000056
    37  H    0.174423  -0.000021
    38  H    0.185647   0.001113
    39  H    0.145923   0.001307
 Sum of Mulliken charges =  -1.00000   1.00000

 Dipole moment (field-independent basis, Debye):
    X=            -13.7345    Y=              3.7091    Z=              1.3534  Tot=             14.2908
 Quadrupole moment (field-independent basis, Debye-Ang):
   XX=           -163.9038   YY=           -156.5202   ZZ=           -137.4593
   XY=             22.5640   XZ=              0.8750   YZ=              6.2913

  Exact polarizability: 530.191  19.621 463.283  91.441  59.082 253.295
 Approx polarizability: 535.107  -0.504 525.281  93.595  52.438 279.017

                      1                      2                      3
                      A                      A                      A
 Frequencies --     42.0555                46.3937                70.3290
 Red. masses --      4.7651                 4.5670                 3.7262
 Frc consts  --      0.0050                 0.0058                 0.0109
 IR Inten    --      3.8101                 4.4895                 1.1238

                      4                      5                      6
                      A                      A                      A
 Frequencies --     88.5584               119.6718               131.1073
 Red. masses --      3.2851                 4.1592                 2.4183
 Frc consts  --      0.0152                 0.0351                 0.0245
 IR Inten    --      2.3185                 3.1559                12.2102

                      7                      8                      9
                      A                      A                      A
 Frequencies --    163.1874               183.4505               204.3827
 Red. masses --      5.6067                 6.8327                 4.5052
 Frc consts  --      0.0880                 0.1355                 0.1109
 IR Inten    --      2.8570                11.0978                 6.1346

                     10                     11                     12
                      A                      A                      A
 Frequencies --    222.2526               256.5280               270.4431
 Red. masses --      3.6618                 3.9754                 4.1275
 Frc consts  --      0.1066                 0.1541                 0.1779
 IR Inten    --      4.0600                 1.9625                 1.5316

                     13                     14                     15
                      A                      A                      A
 Frequencies --    291.9505               311.1706               336.5122
 Red. masses --      2.0527                 5.4702                 2.8881
 Frc consts  --      0.1031                 0.3121                 0.1927
 IR Inten    --      0.8491                 0.8756                14.9711

                     16                     17                     18
                      A                      A                      A
 Frequencies --    353.4425               382.7338               420.3471
 Red. masses --      5.9652                 9.9289                 6.5744
 Frc consts  --      0.4390                 0.8569                 0.6844
 IR Inten    --     13.5628                19.8341                 5.9073

                     19                     20                     21
                      A                      A                      A
 Frequencies --    423.6076               440.8268               467.4881
 Red. masses --      6.4824                 3.4509                 3.3201
 Frc consts  --      0.6853                 0.3951                 0.4275
 IR Inten    --     18.2168                 0.5841                 2.1028

                     22                     23                     24
                      A                      A                      A
 Frequencies --    483.8953               496.1806               513.2181
 Red. masses --      5.1022                 5.4219                 5.2063
 Frc consts  --      0.7039                 0.7865                 0.8080
 IR Inten    --     11.1153                 9.2910                 9.7446

                     25                     26                     27
                      A                      A                      A
 Frequencies --    541.3931               574.8386               606.5537
 Red. masses --      3.4861                 4.0301                 2.4344
 Frc consts  --      0.6020                 0.7846                 0.5277
 IR Inten    --      0.8006                23.3866                 1.0424

                     28                     29                     30
                      A                      A                      A
 Frequencies --    617.0787               657.2069               660.1400
 Red. masses --      5.0478                 4.4310                 5.5352
 Frc consts  --      1.1325                 1.1276                 1.4212
 IR Inten    --     27.8989                11.2071                12.8877

                     31                     32                     33
                      A                      A                      A
 Frequencies --    688.7966               708.2154               739.7626
 Red. masses --      6.4764                 2.4280                 2.1438
 Frc consts  --      1.8104                 0.7175                 0.6912
 IR Inten    --      0.7460               125.1848                 4.5494

                     34                     35                     36
                      A                      A                      A
 Frequencies --    761.0686               772.3246               776.8100
 Red. masses --      5.0538                 2.0808                 1.3142
 Frc consts  --      1.7247                 0.7313                 0.4672
 IR Inten    --      5.7285                12.5235                 3.8531

                     37                     38                     39
                      A                      A                      A
 Frequencies --    789.1626               814.2638               821.7602
 Red. masses --      1.9073                 5.3424                 4.6082
 Frc consts  --      0.6998                 2.0870                 1.8334
 IR Inten    --     79.6327                 4.4913                15.4701

                     40                     41                     42
                      A                      A                      A
 Frequencies --    849.3937               870.4423               883.5738
 Red. masses --      3.4847                 1.4673                 1.5064
 Frc consts  --      1.4813                 0.6550                 0.6929
 IR Inten    --      8.0396                11.7309                 0.7005

                     43                     44                     45
                      A                      A                      A
 Frequencies --    888.3911               912.2336               916.8888
 Red. masses --      1.4876                 4.4393                 2.4199
 Frc consts  --      0.6917                 2.1766                 1.1986
 IR Inten    --      2.1362                77.3775                13.3657

                     46                     47                     48
                      A                      A                      A
 Frequencies --    931.8134               978.6492               986.6037
 Red. masses --      5.7538                 1.2929                 1.3620
 Frc consts  --      2.9435                 0.7296                 0.7811
 IR Inten    --     16.1214                 1.6475                 3.5002

                     49                     50                     51
                      A                      A                      A
 Frequencies --    993.8487               997.3901              1006.3635
 Red. masses --      1.5049                 1.2782                 2.6682
 Frc consts  --      0.8758                 0.7491                 1.5921
 IR Inten    --      6.8194                 0.4596                88.4242

                     52                     53                     54
                      A                      A                      A
 Frequencies --   1034.6068              1036.8103              1077.1080
 Red. masses --      2.0334                 2.0017                 2.3734
 Frc consts  --      1.2824                 1.2678                 1.6223
 IR Inten    --     43.8040                10.0652                29.7392

                     55                     56                     57
                      A                      A                      A
 Frequencies --   1091.1958              1096.9415              1110.5306
 Red. masses --      1.9106                 2.2374                 2.1341
 Frc consts  --      1.3404                 1.5862                 1.5507
 IR Inten    --     42.5786                 6.7906                30.0811

                     58                     59                     60
                      A                      A                      A
 Frequencies --   1131.0659              1143.3937              1146.4227
 Red. masses --      2.2385                 1.6129                 1.9443
 Frc consts  --      1.6873                 1.2424                 1.5056
 IR Inten    --     44.1809                12.4836                88.2765

                     61                     62                     63
                      A                      A                      A
 Frequencies --   1167.4955              1188.6067              1196.1751
 Red. masses --      2.0950                 1.4173                 1.4513
 Frc consts  --      1.6825                 1.1798                 1.2235
 IR Inten    --     15.7822                31.4853                10.8268

                     64                     65                     66
                      A                      A                      A
 Frequencies --   1199.0693              1230.6913              1240.5522
 Red. masses --      1.6938                 2.6033                 1.8810
 Frc consts  --      1.4348                 2.3231                 1.7055
 IR Inten    --      8.5660                78.6550                37.8476

                     67                     68                     69
                      A                      A                      A
 Frequencies --   1255.5176              1258.2049              1268.2671
 Red. masses --      1.6602                 1.5694                 1.4273
 Frc consts  --      1.5419                 1.4638                 1.3527
 IR Inten    --    171.1234                69.6667               124.3542

                     70                     71                     72
                      A                      A                      A
 Frequencies --   1290.7792              1319.2101              1350.8079
 Red. masses --      1.1726                 4.5883                 1.4197
 Frc consts  --      1.1511                 4.7047                 1.5263
 IR Inten    --     29.2223                85.0709                 7.3596

                     73                     74                     75
                      A                      A                      A
 Frequencies --   1357.7388              1359.1056              1361.5550
 Red. masses --      2.3920                 1.3901                 5.3981
 Frc consts  --      2.5980                 1.5128                 5.8960
 IR Inten    --     15.5836                10.9305                13.0427

                     76                     77                     78
                      A                      A                      A
 Frequencies --   1372.5384              1381.7394              1386.7544
 Red. masses --      1.7360                 1.5725                 1.8487
 Frc consts  --      1.9269                 1.7689                 2.0946
 IR Inten    --     22.3337                 6.4906                54.6721

                     79                     80                     81
                      A                      A                      A
 Frequencies --   1401.6326              1405.7127              1430.7151
 Red. masses --      2.1812                 2.3177                 2.8287
 Frc consts  --      2.5248                 2.6983                 3.4115
 IR Inten    --    141.2235               919.2588               342.9613

                     82                     83                     84
                      A                      A                      A
 Frequencies --   1471.4417              1475.9162              1479.6747
 Red. masses --      2.8347                 2.1343                 1.2427
 Frc consts  --      3.6161                 2.7392                 1.6030
 IR Inten    --    106.1775               418.0472                67.1239

                     85                     86                     87
                      A                      A                      A
 Frequencies --   1485.8504              1495.0032              1500.2049
 Red. masses --      1.0867                 1.3047                 1.9908
 Frc consts  --      1.4136                 1.7181                 2.6399
 IR Inten    --     12.8695               273.2021               726.4810

                     88                     89                     90
                      A                      A                      A
 Frequencies --   1507.6184              1518.4918              1525.0527
 Red. masses --      1.1696                 1.2918                 4.6736
 Frc consts  --      1.5663                 1.7550                 6.4043
 IR Inten    --     21.7952                68.1357               278.8059

                     91                     92                     93
                      A                      A                      A
 Frequencies --   1561.4533              1592.4273              1603.2726
 Red. masses --      4.8309                 4.9518                 7.3577
 Frc consts  --      6.9396                 7.3983                11.1431
 IR Inten    --    307.0488                90.4840                52.6208

                     94                     95                     96
                      A                      A                      A
 Frequencies --   1623.6020              2933.1084              3019.0110
 Red. masses --      6.0567                 1.0731                 1.0641
 Frc consts  --      9.4068                 5.4394                 5.7145
 IR Inten    --     21.6021               180.5600                31.6764

                     97                     98                     99
                      A                      A                      A
 Frequencies --   3023.8346              3033.8305              3035.0286
 Red. masses --      1.0637                 1.0654                 1.0637
 Frc consts  --      5.7304                 5.7778                 5.7728
 IR Inten    --     61.2232                55.9160                44.5175

                    100                    101                    102
                      A                      A                      A
 Frequencies --   3050.7583              3052.0855              3067.0035
 Red. masses --      1.0990                 1.0874                 1.0989
 Frc consts  --      6.0263                 5.9678                 6.0901
 IR Inten    --      9.3051               105.6038                74.1341

                    103                    104                    105
                      A                      A                      A
 Frequencies --   3076.5862              3082.8126              3154.8571
 Red. masses --      1.1028                 1.1013                 1.0883
 Frc consts  --      6.1499                 6.1664                 6.3819
 IR Inten    --    134.4594                41.3597                42.9571

                    106                    107                    108
                      A                      A                      A
 Frequencies --   3156.3450              3170.7239              3186.6038
 Red. masses --      1.0858                 1.0902                 1.0924
 Frc consts  --      6.3735                 6.4574                 6.5355
 IR Inten    --     13.9879                22.9107                25.5915

                    109                    110                    111
                      A                      A                      A
 Frequencies --   3191.4473              3199.2512              3212.0663
 Red. masses --      1.0937                 1.0911                 1.0902
 Frc consts  --      6.5632                 6.5796                 6.6272
 IR Inten    --     46.6467                17.0668                27.5466

 - Thermochemistry -
 -------------------
 Temperature   298.150 Kelvin.  Pressure   1.00000 Atm.
 Atom     1 has atomic number  8 and mass  15.99491

 Molecular mass:   291.12593 amu.
 Principal axes and moments of inertia in atomic units:
                           1         2         3
     Eigenvalues --  3516.996648981.60913**********
           X            0.99033  -0.03546  -0.13412
           Y           -0.00730   0.95211  -0.30566
           Z            0.13854   0.30368   0.94265
 This molecule is an asymmetric top.
 Rotational symmetry number  1.
 Warning -- assumption of classical behavior for rotation
           may cause significant error
 Rotational temperatures (Kelvin)      0.02463     0.00964     0.00740
 Rotational constants (GHZ):           0.51315     0.20094     0.15410
 Zero-point vibrational energy     826864.9 (Joules/Mol)
                                  197.62544 (Kcal/Mol)
 Warning -- explicit consideration of  28 degrees of freedom as
           vibrations may cause significant error
 Vibrational temperatures:     60.51    66.75   101.19   127.42   172.18
          (Kelvin)            188.63   234.79   263.94   294.06   319.77
                              369.09   389.11   420.05   447.71   484.17
                              508.52   550.67   604.79   609.48   634.25
                              672.61   696.22   713.89   738.41   778.94
                              827.06   872.70   887.84   945.57   949.79
                              991.02  1018.96  1064.35  1095.01  1111.20
                             1117.66  1135.43  1171.54  1182.33  1222.09
                             1252.37  1271.27  1278.20  1312.50  1319.20
                             1340.67  1408.06  1419.50  1429.93  1435.02
                             1447.93  1488.57  1491.74  1549.72  1569.99
                             1578.25  1597.81  1627.35  1645.09  1649.45
                             1679.77  1710.14  1721.03  1725.19  1770.69
                             1784.88  1806.41  1810.28  1824.75  1857.14
                             1898.05  1943.51  1953.48  1955.45  1958.97
                             1974.78  1988.01  1995.23  2016.64  2022.51
                             2058.48  2117.08  2123.51  2128.92  2137.81
                             2150.98  2158.46  2169.13  2184.77  2194.21
                             2246.58  2291.15  2306.75  2336.00  4220.09
                             4343.68  4350.62  4365.01  4366.73  4389.36
                             4391.27  4412.73  4426.52  4435.48  4539.14
                             4541.28  4561.96  4584.81  4591.78  4603.01
                             4621.45

 Zero-point correction=                           0.314936 (Hartree/Particle)
 Thermal correction to Energy=                    0.332147
 Thermal correction to Enthalpy=                  0.333091
 Thermal correction to Gibbs Free Energy=         0.269500
 Sum of electronic and zero-point Energies=           -939.529116
 Sum of electronic and thermal Energies=              -939.511906
 Sum of electronic and thermal Enthalpies=            -939.510962
 Sum of electronic and thermal Free Energies=         -939.574553

                     E (Thermal)             CV                S
                      KCal/Mol        Cal/Mol-Kelvin    Cal/Mol-Kelvin
 Total                  208.425             70.532            133.839
 Electronic               0.000              0.000              1.377
 Translational            0.889              2.981             42.903
 Rotational               0.889              2.981             34.269
 Vibrational            206.648             64.570             55.289
 Vibration     1          0.595              1.980              5.160
 Vibration     2          0.595              1.979              4.965
 Vibration     3          0.598              1.968              4.144
 Vibration     4          0.601              1.957              3.692
 Vibration     5          0.609              1.933              3.106
 Vibration     6          0.612              1.922              2.930
 Vibration     7          0.623              1.888              2.513
 Vibration     8          0.631              1.862              2.293
 Vibration     9          0.640              1.834              2.093
 Vibration    10          0.648              1.807              1.941
 Vibration    11          0.666              1.752              1.685
 Vibration    12          0.674              1.728              1.593
 Vibration    13          0.687              1.689              1.463
 Vibration    14          0.700              1.652              1.356
 Vibration    15          0.717              1.603              1.229
 Vibration    16          0.730              1.568              1.151
 Vibration    17          0.752              1.507              1.028
 Vibration    18          0.783              1.426              0.891
 Vibration    19          0.786              1.419              0.880
 Vibration    20          0.801              1.381              0.824
 Vibration    21          0.825              1.322              0.745
 Vibration    22          0.840              1.286              0.700
 Vibration    23          0.852              1.258              0.668
 Vibration    24          0.868              1.221              0.626
 Vibration    25          0.896              1.159              0.562
 Vibration    26          0.931              1.086              0.495
 Vibration    27          0.965              1.018              0.439
 Vibration    28          0.977              0.996              0.421

 Optimization completed.
    -- Stationary point found.
 Normal termination of Gaussian 16 at Sun Feb 11 12:32:33 2024.
