 Q-Chem 5.4, Q-Chem, Inc., Pleasanton, CA (2021)
 Q-Chem 5.4.0 for Intel X86 EM64T Linux

User input:
--------------------------------------------------------------
$molecule
-1 2
C                  5.8491260000     -5.2149870000      1.1747280000
C                  6.7562100000     -5.1200450000      0.1389640000
C                  6.5693510000     -4.1540670000     -0.8732560000
C                  4.7342760000     -4.3605580000      1.2402270000
C                  4.5469080000     -3.3913720000      0.2248700000
C                  5.4802850000     -3.3078420000     -0.8234760000
C                  3.7890570000     -4.4900380000      2.3572980000
C                  2.6655620000     -3.5735400000      2.3545390000
C                  2.4818180000     -2.6225910000      1.3584510000
C                  3.3995080000     -2.4742470000      0.2457810000
O                  3.9644570000     -5.3559950000      3.2562820000
O                  3.2414660000     -1.6147770000     -0.6625990000
H                  5.9710420000     -5.9475300000      1.9623010000
H                  5.3156360000     -2.5591980000     -1.5877840000
Br                 8.2547150000     -6.3314270000      0.1297870000
Br                 7.7972290000     -3.9686950000     -2.3465530000
C                  1.6871870000     -3.6963110000      3.4963230000
C                  1.2989470000     -1.6868280000      1.3917100000
H                  2.0084210000     -4.4951550000      4.1645500000
H                  0.6750220000     -3.9222990000      3.1387030000
H                  1.6168760000     -2.7641520000      4.0704000000
H                  0.3490590000     -2.2352430000      1.3723020000
H                  1.3372760000     -1.0232600000      0.5279490000
H                  1.2913730000     -1.0772750000      2.3037500000
$end
$rem
MAX_SCF_CYCLES=200
BASIS  =  6-311++G(d,p)
GUI  =  2
JOB_TYPE  =  SP
METHOD  =  B3LYP
SOLVENT_METHOD = PCM
$end
$pcm
theory = CPCM
$end
$solvent
dielectric 37.219
opticaldielectric 1.43
$end

--------------------------------------------------------------

             Standard Nuclear Orientation (Angstroms)
    I     Atom           X                Y                Z
 ----------------------------------------------------------------
    1      C       5.8491260000    -5.2149870000     1.1747280000
    2      C       6.7562100000    -5.1200450000     0.1389640000
    3      C       6.5693510000    -4.1540670000    -0.8732560000
    4      C       4.7342760000    -4.3605580000     1.2402270000
    5      C       4.5469080000    -3.3913720000     0.2248700000
    6      C       5.4802850000    -3.3078420000    -0.8234760000
    7      C       3.7890570000    -4.4900380000     2.3572980000
    8      C       2.6655620000    -3.5735400000     2.3545390000
    9      C       2.4818180000    -2.6225910000     1.3584510000
   10      C       3.3995080000    -2.4742470000     0.2457810000
   11      O       3.9644570000    -5.3559950000     3.2562820000
   12      O       3.2414660000    -1.6147770000    -0.6625990000
   13      H       5.9710420000    -5.9475300000     1.9623010000
   14      H       5.3156360000    -2.5591980000    -1.5877840000
   15      Br      8.2547150000    -6.3314270000     0.1297870000
   16      Br      7.7972290000    -3.9686950000    -2.3465530000
   17      C       1.6871870000    -3.6963110000     3.4963230000
   18      C       1.2989470000    -1.6868280000     1.3917100000
   19      H       2.0084210000    -4.4951550000     4.1645500000
   20      H       0.6750220000    -3.9222990000     3.1387030000
   21      H       1.6168760000    -2.7641520000     4.0704000000
   22      H       0.3490590000    -2.2352430000     1.3723020000
   23      H       1.3372760000    -1.0232600000     0.5279490000
   24      H       1.2913730000    -1.0772750000     2.3037500000
 ----------------------------------------------------------------

    9   -5761.1452572310      4.05e-06  Convergence criterion met
 Total energy in the final basis set =    -5761.1452572310

                    Orbital Energies (a.u.)
 --------------------------------------------------------------

 Alpha MOs
 -- Occupied --
********-482.8370 -62.4898 -62.4898 -56.3103 -56.3103 -56.3065 -56.3065
-56.3063 -56.3063 -19.0795 -19.0795 -10.2429 -10.2424 -10.2247 -10.2247
-10.1882 -10.1882 -10.1831 -10.1826 -10.1722 -10.1717 -10.1522 -10.1521
 -8.6985  -8.6985  -6.5300  -6.5300  -6.5171  -6.5171  -6.5167  -6.5166
 -2.6409  -2.6408  -2.6373  -2.6372  -2.6371  -2.6369  -2.6267  -2.6267
 -2.6266  -2.6266  -1.0061  -1.0035  -0.8916  -0.8335  -0.8122  -0.8041
 -0.7507  -0.7419  -0.7249  -0.6728  -0.6562  -0.6155  -0.5861  -0.5583
 -0.5165  -0.4839  -0.4834  -0.4516  -0.4415  -0.4395  -0.4273  -0.4174
 -0.4114  -0.3974  -0.3887  -0.3879  -0.3819  -0.3799  -0.3715  -0.3683
 -0.3473  -0.3461  -0.3238  -0.3145  -0.3139  -0.2860  -0.2658  -0.2607
 -0.2522  -0.2413  -0.2397  -0.1555

 Beta MOs
 -- Occupied --
********-482.8370 -62.4898 -62.4898 -56.3103 -56.3103 -56.3065 -56.3065
-56.3063 -56.3063 -19.0734 -19.0734 -10.2424 -10.2419 -10.2229 -10.2229
-10.1882 -10.1882 -10.1824 -10.1819 -10.1710 -10.1705 -10.1523 -10.1522
 -8.6985  -8.6985  -6.5300  -6.5300  -6.5171  -6.5171  -6.5167  -6.5166
 -2.6409  -2.6408  -2.6372  -2.6371  -2.6371  -2.6369  -2.6267  -2.6266
 -2.6266  -2.6266  -0.9955  -0.9926  -0.8903  -0.8294  -0.8115  -0.8025
 -0.7490  -0.7401  -0.7217  -0.6712  -0.6495  -0.6148  -0.5825  -0.5549
 -0.5150  -0.4815  -0.4811  -0.4501  -0.4411  -0.4312  -0.4244  -0.4114
 -0.4086  -0.3903  -0.3872  -0.3868  -0.3813  -0.3680  -0.3679  -0.3517
 -0.3451  -0.3444  -0.3215  -0.3144  -0.3055  -0.2859  -0.2551  -0.2466
 -0.2461  -0.2343  -0.2330

          Ground-State Mulliken Net Atomic Charges

     Atom                 Charge (a.u.)    Spin (a.u.)
  --------------------------------------------------------
      1 C                    -0.188090       0.020112
      2 C                     0.022572       0.027732
      3 C                     0.030927       0.027710
      4 C                     0.588370       0.043610
      5 C                     0.580844       0.043270
      6 C                    -0.189587       0.020171
      7 C                    -1.261724       0.069549
      8 C                     0.900943       0.111282
      9 C                     0.897975       0.110989
     10 C                    -1.257619       0.069775
     11 O                    -0.478278       0.223742
     12 O                    -0.479053       0.223677
     13 H                     0.213283      -0.002144
     14 H                     0.213805      -0.002135
     15 Br                   -0.238314       0.001803
     16 Br                   -0.240934       0.001803
     17 C                    -0.565371      -0.002298
     18 C                    -0.564070      -0.002295
     19 H                     0.182299      -0.001325
     20 H                     0.162703       0.004067
     21 H                     0.162539       0.004092
     22 H                     0.162768       0.004078
     23 H                     0.181262      -0.001338
     24 H                     0.162751       0.004075
  --------------------------------------------------------
  Sum of atomic charges =    -1.000000

                    Cartesian Multipole Moments
 -----------------------------------------------------------------
    Charge (ESU x 10^10)
                -4.8032
    Dipole Moment (Debye)
         X     -22.0923      Y      18.5410      Z      -3.6235
       Tot      29.0684
    Quadrupole Moments (Debye-Ang)
        XX    -234.5720     XY      92.1402     YY    -212.8705
        XZ     -14.9852     YZ      29.9347     ZZ    -147.1270

 Total job time:  60.33s(wall), 417.87s(cpu)
        *  Thank you very much for using Q-Chem.  Have a nice day.  *
