 Q-Chem 5.4, Q-Chem, Inc., Pleasanton, CA (2021)
 Q-Chem 5.4.0 for Intel X86 EM64T Linux

User input:
--------------------------------------------------------------
$molecule
-2 1
C                  4.6170820000      1.3055920000     -0.5064440000
C                  3.3046060000      0.6141260000     -0.2277920000
C                  3.3039920000     -0.6636420000      0.3908020000
C                  2.1134000000     -1.3280020000      0.6674470000
O                  2.2008350000     -2.5480220000      1.3138870000
C                  0.8437420000     -0.7925010000      0.3125530000
C                 -0.4079710000     -1.5249570000      0.5449210000
O                 -0.4359640000     -2.7183730000      0.9381260000
C                 -1.6369680000     -0.7642230000      0.2576330000
C                 -2.9307670000     -1.2758440000      0.5451670000
O                 -3.0769810000     -2.5013160000      1.1665370000
C                 -4.1001470000     -0.5792590000      0.2377060000
C                 -4.0103560000      0.6882720000     -0.3693660000
O                 -5.2194100000      1.3387620000     -0.6547540000
C                 -2.7952500000      1.2405530000     -0.6583980000
C                 -1.5872290000      0.5478970000     -0.3528380000
C                 -0.3521440000      1.2165960000     -0.6742190000
O                 -0.3402260000      2.3770280000     -1.2366820000
C                  0.8551410000      0.5221390000     -0.3004950000
C                  2.0936500000      1.1798850000     -0.5468070000
H                  5.2136390000      1.4461920000      0.4116760000
H                  4.4582940000      2.2909050000     -0.9551310000
H                  5.2464520000      0.7257700000     -1.1922380000
H                  4.2487880000     -1.1474490000      0.6406810000
H                  3.1165970000     -2.6171200000      1.6094840000
H                 -4.0135070000     -2.5749040000      1.3823240000
H                 -5.0749890000     -1.0098300000      0.4539230000
H                 -4.9776990000      2.1713330000     -1.0732720000
H                 -2.6868990000      2.2189040000     -1.1204030000
H                  2.0302880000      2.1614910000     -1.0040260000
$end

$rem
BASIS  =  6-311++G(d,p)
GUI  =  2
JOB_TYPE  =  SP
METHOD  =  B3LYP
SCF_CONVERGENCE  = 8
SOLVENT_METHOD = sm12
$end

$smx
solvent dimethylformamide
charges CM5
$end

--------------------------------------------------------------

             Standard Nuclear Orientation (Angstroms)
    I     Atom           X                Y                Z
 ----------------------------------------------------------------
    1      C       4.6170820000     1.3055920000    -0.5064440000
    2      C       3.3046060000     0.6141260000    -0.2277920000
    3      C       3.3039920000    -0.6636420000     0.3908020000
    4      C       2.1134000000    -1.3280020000     0.6674470000
    5      O       2.2008350000    -2.5480220000     1.3138870000
    6      C       0.8437420000    -0.7925010000     0.3125530000
    7      C      -0.4079710000    -1.5249570000     0.5449210000
    8      O      -0.4359640000    -2.7183730000     0.9381260000
    9      C      -1.6369680000    -0.7642230000     0.2576330000
   10      C      -2.9307670000    -1.2758440000     0.5451670000
   11      O      -3.0769810000    -2.5013160000     1.1665370000
   12      C      -4.1001470000    -0.5792590000     0.2377060000
   13      C      -4.0103560000     0.6882720000    -0.3693660000
   14      O      -5.2194100000     1.3387620000    -0.6547540000
   15      C      -2.7952500000     1.2405530000    -0.6583980000
   16      C      -1.5872290000     0.5478970000    -0.3528380000
   17      C      -0.3521440000     1.2165960000    -0.6742190000
   18      O      -0.3402260000     2.3770280000    -1.2366820000
   19      C       0.8551410000     0.5221390000    -0.3004950000
   20      C       2.0936500000     1.1798850000    -0.5468070000
   21      H       5.2136390000     1.4461920000     0.4116760000
   22      H       4.4582940000     2.2909050000    -0.9551310000
   23      H       5.2464520000     0.7257700000    -1.1922380000
   24      H       4.2487880000    -1.1474490000     0.6406810000
   25      H       3.1165970000    -2.6171200000     1.6094840000
   26      H      -4.0135070000    -2.5749040000     1.3823240000
   27      H      -5.0749890000    -1.0098300000     0.4539230000
   28      H      -4.9776990000     2.1713330000    -1.0732720000
   29      H      -2.6868990000     2.2189040000    -1.1204030000
   30      H       2.0302880000     2.1614910000    -1.0040260000
 ----------------------------------------------------------------

   18    -953.9546645910      9.79e-09  Convergence criterion met
 Total energy in the final basis set =     -954.2471756018

                    Orbital Energies (a.u.)
 --------------------------------------------------------------

 Alpha MOs
 -- Occupied --
-19.1495 -19.1426 -19.1404 -19.0238 -19.0101 -10.2315 -10.2269 -10.2223
-10.1966 -10.1738 -10.1708 -10.1669 -10.1565 -10.1526 -10.1493 -10.1472
-10.1471 -10.1447 -10.1439 -10.1426  -1.0522  -1.0499  -1.0487  -0.9538
 -0.9282  -0.8356  -0.8293  -0.7719  -0.7397  -0.7256  -0.7203  -0.6884
 -0.6447  -0.6247  -0.6038  -0.5864  -0.5601  -0.5429  -0.5276  -0.4889
 -0.4865  -0.4817  -0.4514  -0.4448  -0.4373  -0.4222  -0.4171  -0.4132
 -0.4035  -0.3970  -0.3935  -0.3920  -0.3804  -0.3713  -0.3630  -0.3582
 -0.3553  -0.3517  -0.3414  -0.3285  -0.3229  -0.3178  -0.3062  -0.2783
 -0.2247  -0.2215  -0.2133  -0.2106  -0.1935  -0.1874  -0.1040

          Ground-State Mulliken Net Atomic Charges

     Atom                 Charge (a.u.)
  ----------------------------------------
      1 C                     2.644384
      2 C                     1.979022
      3 C                     3.357748
      4 C                     0.033895
      5 O                    -0.034952
      6 C                    -2.307135
      7 C                    -3.275476
      8 O                    -0.218514
      9 C                    -1.561368
     10 C                     0.387575
     11 O                    -0.048368
     12 C                     3.338963
     13 C                     2.006395
     14 O                    -0.064995
     15 C                     0.041081
     16 C                    -2.082290
     17 C                    -2.985382
     18 O                    -0.399013
     19 C                    -3.420499
     20 C                    -2.012050
     21 H                     0.266783
     22 H                     0.383063
     23 H                     0.284015
     24 H                     0.279733
     25 H                     0.385515
     26 H                     0.375113
     27 H                     0.360387
     28 H                     0.374929
     29 H                     0.063328
     30 H                    -0.151888
  ----------------------------------------
  Sum of atomic charges =    -2.000000

                    Cartesian Multipole Moments
 -----------------------------------------------------------------
    Charge (ESU x 10^10)
                -9.6064
    Dipole Moment (Debye)
         X       3.6955      Y       0.4887      Z       1.4399
       Tot       3.9961
    Quadrupole Moments (Debye-Ang)
        XX    -157.6446     XY      -2.6383     YY    -168.4768
        XZ       0.4675     YZ      14.6108     ZZ    -135.6186

 Total job time:  899.09s(wall), 7043.51s(cpu)
        *  Thank you very much for using Q-Chem.  Have a nice day.  *
