 Gaussian 16, Revision A.03,
 Gaussian 16:  ES64L-G16RevA.03 25-Dec-2016

 --------------------------------------
 #P UB3LYP/6-311++G(d,p) nosym opt freq
 --------------------------------------

 --------
 Oxidized
 --------
 Symbolic Z-matrix:
 Charge =  0 Multiplicity = 1

 SCF Done:  E(UB3LYP) =  -799.629423151     A.U. after   17 cycles
 SCF Done:  E(UB3LYP) =  -799.659863427     A.U. after   15 cycles
 SCF Done:  E(UB3LYP) =  -799.678595431     A.U. after   15 cycles
 SCF Done:  E(UB3LYP) =  -799.697600820     A.U. after   15 cycles
 SCF Done:  E(UB3LYP) =  -799.711479978     A.U. after   15 cycles
 SCF Done:  E(UB3LYP) =  -799.715996867     A.U. after   14 cycles
 SCF Done:  E(UB3LYP) =  -799.717811683     A.U. after   14 cycles
 SCF Done:  E(UB3LYP) =  -799.718635083     A.U. after   12 cycles
 SCF Done:  E(UB3LYP) =  -799.718790684     A.U. after   13 cycles
 SCF Done:  E(UB3LYP) =  -799.719084075     A.U. after   12 cycles
 SCF Done:  E(UB3LYP) =  -799.719168823     A.U. after   13 cycles
 SCF Done:  E(UB3LYP) =  -799.719192906     A.U. after   12 cycles
 SCF Done:  E(UB3LYP) =  -799.719223263     A.U. after   11 cycles
 SCF Done:  E(UB3LYP) =  -799.719229310     A.U. after   11 cycles
 SCF Done:  E(UB3LYP) =  -799.719230376     A.U. after   10 cycles
 SCF Done:  E(UB3LYP) =  -799.719230538     A.U. after    8 cycles
 Optimization completed.
    -- Stationary point found.
 Normal termination of Gaussian 16 at Thu Dec 21 07:25:31 2023.

 ----------------------------------------------------------------------
 #P Geom=AllCheck Guess=TCheck SCRF=Check GenChk UB3LYP/6-311++G(d,p) F
 req
 ----------------------------------------------------------------------

 Structure from the checkpoint file:  "166.chk"
 --------
 Oxidized
 --------
 Charge =  0 Multiplicity = 1

                          Input orientation:
 ---------------------------------------------------------------------
 Center     Atomic      Atomic             Coordinates (Angstroms)
 Number     Number       Type             X           Y           Z
 ---------------------------------------------------------------------
      1          7           0       -2.045686    2.880166   -0.088353
      2          6           0       -2.037760    1.525713    0.052231
      3          6           0       -3.284370    0.842739    0.111452
      4          6           0       -3.353298   -0.514516    0.221345
      5          6           0       -2.182308   -1.320098    0.282676
      6          7           0       -2.327797   -2.671975    0.360278
      7          6           0       -0.924306   -0.675552    0.240758
      8          6           0        0.296938   -1.480052    0.331985
      9          8           0        0.276424   -2.716281    0.436340
     10          6           0        1.606416   -0.779568    0.301596
     11          6           0        2.785952   -1.530167    0.387160
     12          6           0        4.020198   -0.896177    0.359767
     13          6           0        4.091011    0.497013    0.246229
     14          6           0        2.927190    1.248191    0.160787
     15          6           0        1.677347    0.616345    0.187895
     16          6           0        0.445347    1.440839    0.094548
     17          8           0        0.550381    2.673464   -0.001777
     18          6           0       -0.851359    0.759366    0.124410
     19          1           0       -1.154344    3.362127   -0.061612
     20          1           0       -2.913461    3.383161   -0.019168
     21          1           0       -4.198774    1.425422    0.060762
     22          1           0       -4.322110   -1.002709    0.257305
     23          1           0       -3.240845   -3.066793    0.506425
     24          1           0       -1.489398   -3.230281    0.473727
     25          1           0        2.705486   -2.606281    0.473744
     26          1           0        4.930605   -1.481366    0.426194
     27          1           0        5.056246    0.990535    0.224707
     28          1           0        2.956273    2.326735    0.071915
 ---------------------------------------------------------------------

 SCF Done:  E(UB3LYP) =  -799.719230538     A.U. after    1 cycles

 Alpha  occ. eigenvalues --  -19.10741 -19.10740 -14.33190 -14.33185 -10.26120
 Alpha  occ. eigenvalues --  -10.26118 -10.24033 -10.24028 -10.20113 -10.20044
 Alpha  occ. eigenvalues --  -10.19331 -10.19329 -10.19291 -10.19279 -10.18890
 Alpha  occ. eigenvalues --  -10.18837 -10.18444 -10.18443  -1.04096  -1.03873
 Alpha  occ. eigenvalues --   -0.94516  -0.93520  -0.87704  -0.84843  -0.80411
 Alpha  occ. eigenvalues --   -0.76551  -0.76345  -0.74048  -0.68166  -0.66099
 Alpha  occ. eigenvalues --   -0.64701  -0.60981  -0.58410  -0.57166  -0.56632
 Alpha  occ. eigenvalues --   -0.53744  -0.52303  -0.50539  -0.49655  -0.48213
 Alpha  occ. eigenvalues --   -0.47266  -0.46122  -0.44526  -0.43819  -0.43489
 Alpha  occ. eigenvalues --   -0.43468  -0.42761  -0.40670  -0.40391  -0.40176
 Alpha  occ. eigenvalues --   -0.39390  -0.36949  -0.36137  -0.36061  -0.35614
 Alpha  occ. eigenvalues --   -0.28961  -0.27976  -0.26870  -0.26565  -0.26541
 Alpha  occ. eigenvalues --   -0.25867  -0.19901
 Alpha virt. eigenvalues --   -0.10217  -0.05449  -0.03068  -0.01643  -0.00548
 Alpha virt. eigenvalues --   -0.00263  -0.00097   0.01296   0.01940   0.02590
 Alpha virt. eigenvalues --    0.03661   0.03907   0.04261   0.04910   0.05502

  Beta  occ. eigenvalues --  -19.10741 -19.10740 -14.33190 -14.33185 -10.26120
  Beta  occ. eigenvalues --  -10.26118 -10.24033 -10.24028 -10.20113 -10.20044
  Beta  occ. eigenvalues --  -10.19331 -10.19329 -10.19291 -10.19279 -10.18890
  Beta  occ. eigenvalues --  -10.18837 -10.18444 -10.18443  -1.04096  -1.03873
  Beta  occ. eigenvalues --   -0.94516  -0.93520  -0.87704  -0.84843  -0.80411
  Beta  occ. eigenvalues --   -0.76551  -0.76345  -0.74048  -0.68166  -0.66099
  Beta  occ. eigenvalues --   -0.64701  -0.60981  -0.58410  -0.57166  -0.56632
  Beta  occ. eigenvalues --   -0.53744  -0.52303  -0.50539  -0.49655  -0.48213
  Beta  occ. eigenvalues --   -0.47266  -0.46122  -0.44526  -0.43819  -0.43489
  Beta  occ. eigenvalues --   -0.43468  -0.42761  -0.40670  -0.40391  -0.40176
  Beta  occ. eigenvalues --   -0.39390  -0.36949  -0.36137  -0.36061  -0.35614
  Beta  occ. eigenvalues --   -0.28961  -0.27976  -0.26870  -0.26565  -0.26541
  Beta  occ. eigenvalues --   -0.25867  -0.19901
  Beta virt. eigenvalues --   -0.10217  -0.05449  -0.03068  -0.01643  -0.00548
  Beta virt. eigenvalues --   -0.00263  -0.00097   0.01296   0.01940   0.02590
  Beta virt. eigenvalues --    0.03661   0.03907   0.04261   0.04910   0.05502

 Mulliken charges and spin densities:
               1          2
     1  N   -0.395889  -0.000000
     2  C   -0.027925   0.000000
     3  C   -0.275950   0.000000
     4  C   -0.276273   0.000000
     5  C   -0.028657   0.000000
     6  N   -0.394391  -0.000000
     7  C    0.483852  -0.000000
     8  C   -0.420703   0.000000
     9  O   -0.284831   0.000000
    10  C    0.192672   0.000000
    11  C    0.144290  -0.000000
    12  C   -0.509399  -0.000000
    13  C   -0.509574  -0.000000
    14  C    0.144080  -0.000000
    15  C    0.193308   0.000000
    16  C   -0.420576   0.000000
    17  O   -0.284978  -0.000000
    18  C    0.483059  -0.000000
    19  H    0.327751  -0.000000
    20  H    0.257785   0.000000
    21  H    0.154253  -0.000000
    22  H    0.154274   0.000000
    23  H    0.257244   0.000000
    24  H    0.327307  -0.000000
    25  H    0.187273  -0.000000
    26  H    0.167361   0.000000
    27  H    0.167361  -0.000000
    28  H    0.187279  -0.000000
 Sum of Mulliken charges =  -0.00000  -0.00000

 Dipole moment (field-independent basis, Debye):
    X=             -3.1012    Y=              0.1977    Z=              0.4558  Tot=              3.1407
 Quadrupole moment (field-independent basis, Debye-Ang):
   XX=            -74.3765   YY=           -102.4304   ZZ=           -109.0147
   XY=             -1.5048   XZ=             -1.4769   YZ=             -0.4940

  Exact polarizability: 306.019  -3.926 221.735   3.835 -10.822  91.354
 Approx polarizability: 497.035  -3.498 415.513   6.601 -22.197 147.607

                      1                      2                      3
                      A                      A                      A
 Frequencies --     45.3261                75.1838               123.8651
 Red. masses --      6.3300                 6.8563                 7.4200
 Frc consts  --      0.0077                 0.0228                 0.0671
 IR Inten    --      9.8790                 1.0625                24.9632

                      4                      5                      6
                      A                      A                      A
 Frequencies --    130.9071               163.8854               211.3198
 Red. masses --      5.8090                 3.5404                 1.9125
 Frc consts  --      0.0587                 0.0560                 0.0503
 IR Inten    --      0.7381                39.6443                24.0084

                      7                      8                      9
                      A                      A                      A
 Frequencies --    221.7928               224.9047               262.4776
 Red. masses --      2.1167                 1.8134                 2.2077
 Frc consts  --      0.0613                 0.0540                 0.0896
 IR Inten    --     76.0904                37.8525               160.3965

                     10                     11                     12
                      A                      A                      A
 Frequencies --    325.9825               346.7255               351.6038
 Red. masses --      4.4779                 4.4017                 4.9687
 Frc consts  --      0.2804                 0.3118                 0.3619
 IR Inten    --      4.5246                 0.0215                 4.5798

                     13                     14                     15
                      A                      A                      A
 Frequencies --    391.3238               408.5969               431.2062
 Red. masses --     11.2547                 4.6402                 3.3549
 Frc consts  --      1.0154                 0.4564                 0.3675
 IR Inten    --      0.0318                 3.0425                 1.1759

                     16                     17                     18
                      A                      A                      A
 Frequencies --    433.9286               441.6229               461.9019
 Red. masses --      6.1073                10.5502                 6.9694
 Frc consts  --      0.6775                 1.2123                 0.8761
 IR Inten    --      0.0012                38.9130                 3.8305

                     19                     20                     21
                      A                      A                      A
 Frequencies --    484.2808               497.8838               515.2586
 Red. masses --      3.4505                 4.7188                 7.2710
 Frc consts  --      0.4768                 0.6892                 1.1373
 IR Inten    --      1.0284                 0.2427                 0.3371

                     22                     23                     24
                      A                      A                      A
 Frequencies --    579.9704               605.5991               654.4640
 Red. masses --      2.3215                 5.2832                 1.4014
 Frc consts  --      0.4601                 1.1416                 0.3537
 IR Inten    --     59.6541                 2.6779                 2.8602

                     25                     26                     27
                      A                      A                      A
 Frequencies --    660.7800               666.6631               677.3052
 Red. masses --      1.2399                 5.7634                 2.3701
 Frc consts  --      0.3190                 1.5092                 0.6406
 IR Inten    --     16.6424                 9.1181                 0.9373

                     28                     29                     30
                      A                      A                      A
 Frequencies --    713.5096               738.0085               747.5864
 Red. masses --      6.5064                 5.8068                 1.7964
 Frc consts  --      1.9516                 1.8634                 0.5915
 IR Inten    --      1.1902                 0.0478                69.2567

                     31                     32                     33
                      A                      A                      A
 Frequencies --    773.6685               810.1239               816.5670
 Red. masses --      6.4735                 5.9996                 2.1732
 Frc consts  --      2.2829                 2.3199                 0.8538
 IR Inten    --      0.5792                 0.0065                17.5215

                     34                     35                     36
                      A                      A                      A
 Frequencies --    833.6230               878.4666               911.4660
 Red. masses --      1.8051                 7.2040                 6.0808
 Frc consts  --      0.7391                 3.2755                 2.9764
 IR Inten    --     20.9538                16.6929                 5.2048

                     37                     38                     39
                      A                      A                      A
 Frequencies --    912.3173               957.6569               975.1631
 Red. masses --      1.4440                 1.3106                 4.4008
 Frc consts  --      0.7081                 0.7082                 2.4657
 IR Inten    --      0.1689                 0.0038                 7.9467

                     40                     41                     42
                      A                      A                      A
 Frequencies --   1001.2051              1014.6107              1020.3840
 Red. masses --      1.3782                 1.3158                 2.2101
 Frc consts  --      0.8140                 0.7980                 1.3558
 IR Inten    --      1.7727                 0.0000                59.8659

                     43                     44                     45
                      A                      A                      A
 Frequencies --   1054.9148              1096.4353              1114.7365
 Red. masses --      1.9583                 1.5988                 2.2163
 Frc consts  --      1.2840                 1.1324                 1.6226
 IR Inten    --      4.7186                15.4297                 1.3798

                     46                     47                     48
                      A                      A                      A
 Frequencies --   1140.8995              1181.8790              1196.6314
 Red. masses --      2.2264                 1.1384                 2.3721
 Frc consts  --      1.7075                 0.9369                 2.0013
 IR Inten    --     26.6571                 5.5310                 2.6067

                     49                     50                     51
                      A                      A                      A
 Frequencies --   1200.8060              1265.7258              1279.7277
 Red. masses --      1.2127                 1.7998                 5.8044
 Frc consts  --      1.0303                 1.6988                 5.6007
 IR Inten    --    113.4831                 0.9148               674.6689

                     52                     53                     54
                      A                      A                      A
 Frequencies --   1315.7920              1325.2246              1357.8588
 Red. masses --      4.5579                 2.0880                 7.8065
 Frc consts  --      4.6493                 2.1605                 8.4804
 IR Inten    --     77.0505                31.2275                 2.5993

                     55                     56                     57
                      A                      A                      A
 Frequencies --   1372.5374              1428.9441              1443.9478
 Red. masses --      3.1283                 5.2578                 5.3144
 Frc consts  --      3.4722                 6.3254                 6.5284
 IR Inten    --      1.4137                98.2562                38.9050

                     58                     59                     60
                      A                      A                      A
 Frequencies --   1467.2324              1484.9009              1506.5134
 Red. masses --      2.2267                 2.5117                 2.6056
 Frc consts  --      2.8242                 3.2629                 3.4842
 IR Inten    --      7.7226                 5.8485                 0.1223

                     61                     62                     63
                      A                      A                      A
 Frequencies --   1559.7970              1574.2504              1601.2429
 Red. masses --      2.2793                 5.1269                 1.7726
 Frc consts  --      3.2672                 7.4860                 2.6777
 IR Inten    --      4.7995               164.9942               638.0429

                     64                     65                     66
                      A                      A                      A
 Frequencies --   1608.9990              1626.2460              1640.9237
 Red. masses --      4.1402                 4.3940                 2.7841
 Frc consts  --      6.3151                 6.8467                 4.4169
 IR Inten    --     29.5288                54.4220               227.6205

                     67                     68                     69
                      A                      A                      A
 Frequencies --   1665.3502              1689.3489              3152.7760
 Red. masses --      6.5732                 7.9947                 1.0864
 Frc consts  --     10.7409                13.4429                 6.3622
 IR Inten    --    167.2756                26.5274                 9.4008

                     70                     71                     72
                      A                      A                      A
 Frequencies --   3166.4243              3170.3152              3181.7302
 Red. masses --      1.0869                 1.0957                 1.0924
 Frc consts  --      6.4205                 6.4884                 6.5156
 IR Inten    --      4.1855                21.6591                17.7702

                     73                     74                     75
                      A                      A                      A
 Frequencies --   3202.7623              3204.9165              3490.1983
 Red. masses --      1.0921                 1.0939                 1.0545
 Frc consts  --      6.6005                 6.6203                 7.5684
 IR Inten    --      0.5948                12.4578                 8.1899

                     76                     77                     78
                      A                      A                      A
 Frequencies --   3492.4094              3696.2379              3696.8270
 Red. masses --      1.0542                 1.0961                 1.0961
 Frc consts  --      7.5757                 8.8230                 8.8261
 IR Inten    --     94.4522                39.2839               104.7368

 - Thermochemistry -
 -------------------
 Temperature   298.150 Kelvin.  Pressure   1.00000 Atm.
 Atom     1 has atomic number  7 and mass  14.00307

 Molecular mass:   238.07423 amu.
 Principal axes and moments of inertia in atomic units:
                           1         2         3
     Eigenvalues --  2530.713904702.456747232.69219
           X            0.99858   0.05059  -0.01679
           Y           -0.04906   0.99545   0.08170
           Z            0.02085  -0.08076   0.99652
 This molecule is an asymmetric top.
 Rotational symmetry number  1.
 Warning -- assumption of classical behavior for rotation
           may cause significant error
 Rotational temperatures (Kelvin)      0.03423     0.01842     0.01198
 Rotational constants (GHZ):           0.71314     0.38379     0.24953
 Zero-point vibrational energy     557188.1 (Joules/Mol)
                                  133.17116 (Kcal/Mol)
 Warning -- explicit consideration of  23 degrees of freedom as
           vibrations may cause significant error
 Vibrational temperatures:     65.21   108.17   178.21   188.35   235.79
          (Kelvin)            304.04   319.11   323.59   377.65   469.02
                              498.86   505.88   563.03   587.88   620.41
                              624.33   635.40   664.57   696.77   716.34
                              741.34   834.45   871.32   941.63   950.71
                              959.18   974.49  1026.58  1061.83  1075.61
                             1113.14  1165.59  1174.86  1199.40  1263.92
                             1311.40  1312.62  1377.85  1403.04  1440.51
                             1459.80  1468.10  1517.79  1577.53  1603.86
                             1641.50  1700.46  1721.69  1727.69  1821.10
                             1841.24  1893.13  1906.70  1953.66  1974.78
                             2055.93  2077.52  2111.02  2136.44  2167.54
                             2244.20  2265.00  2303.83  2314.99  2339.81
                             2360.92  2396.07  2430.60  4536.14  4555.78
                             4561.38  4577.80  4608.06  4611.16  5021.62
                             5024.80  5318.06  5318.91

 Zero-point correction=                           0.212222 (Hartree/Particle)
 Thermal correction to Energy=                    0.226283
 Thermal correction to Enthalpy=                  0.227228
 Thermal correction to Gibbs Free Energy=         0.171886
 Sum of electronic and zero-point Energies=           -799.507009
 Sum of electronic and thermal Energies=              -799.492947
 Sum of electronic and thermal Enthalpies=            -799.492003
 Sum of electronic and thermal Free Energies=         -799.547345

                     E (Thermal)             CV                S
                      KCal/Mol        Cal/Mol-Kelvin    Cal/Mol-Kelvin
 Total                  141.995             57.173            116.477
 Electronic               0.000              0.000              0.000
 Translational            0.889              2.981             42.304
 Rotational               0.889              2.981             32.820
 Vibrational            140.218             51.211             41.353
 Vibration     1          0.595              1.979              5.012
 Vibration     2          0.599              1.966              4.013
 Vibration     3          0.610              1.929              3.039
 Vibration     4          0.612              1.922              2.933
 Vibration     5          0.623              1.887              2.504
 Vibration     6          0.643              1.824              2.032
 Vibration     7          0.648              1.808              1.944
 Vibration     8          0.650              1.803              1.919
 Vibration     9          0.670              1.742              1.645
 Vibration    10          0.710              1.624              1.280
 Vibration    11          0.725              1.582              1.181
 Vibration    12          0.728              1.572              1.159
 Vibration    13          0.759              1.489              0.995
 Vibration    14          0.773              1.452              0.932
 Vibration    15          0.792              1.402              0.855
 Vibration    16          0.795              1.396              0.846
 Vibration    17          0.801              1.379              0.822
 Vibration    18          0.820              1.335              0.761
 Vibration    19          0.840              1.285              0.699
 Vibration    20          0.853              1.255              0.663
 Vibration    21          0.870              1.216              0.621
 Vibration    22          0.937              1.075              0.485
 Vibration    23          0.964              1.020              0.440

                           ! Non-Optimized Parameters !
 Normal termination of Gaussian 16 at Thu Dec 21 08:46:56 2023.
