 Gaussian 16, Revision A.03,
 Gaussian 16:  ES64L-G16RevA.03 25-Dec-2016

 ----------------------------------------------------------------------
 #P UB3LYP/6-311++G(d,p) nosym opt freq SCRF=(PCM,Solvent=n,n-DiMethylF
 ormamide)
 ----------------------------------------------------------------------

 -------
 Reduced
 -------
 Symbolic Z-matrix:
 Charge = -2 Multiplicity = 1

 SCF Done:  E(UB3LYP) =  -728.505967985     A.U. after   17 cycles
 SCF Done:  E(UB3LYP) =  -728.506630042     A.U. after   14 cycles
 SCF Done:  E(UB3LYP) =  -728.506807849     A.U. after   13 cycles
 SCF Done:  E(UB3LYP) =  -728.506826337     A.U. after   11 cycles
 SCF Done:  E(UB3LYP) =  -728.506827382     A.U. after   11 cycles
 Optimization completed.
    -- Stationary point found.
 Normal termination of Gaussian 16 at Sat Feb 10 17:51:45 2024.

 ----------------------------------------------------------------------
 #P Geom=AllCheck Guess=TCheck SCRF=Check GenChk UB3LYP/6-311++G(d,p) F
 req
 ----------------------------------------------------------------------

 Structure from the checkpoint file:  "123-an.chk"
 -------
 Reduced
 -------
 Charge = -2 Multiplicity = 1

                          Input orientation:
 ---------------------------------------------------------------------
 Center     Atomic      Atomic             Coordinates (Angstroms)
 Number     Number       Type             X           Y           Z
 ---------------------------------------------------------------------
      1          6           0       -2.910290   -1.923869   -0.142404
      2          6           0       -2.394377   -0.501255   -0.050735
      3          6           0       -3.347002    0.495901    0.050351
      4          6           0       -2.992794    1.868162    0.138465
      5          6           0       -1.669748    2.221929    0.123507
      6          6           0       -0.628893    1.251739    0.024072
      7          6           0        0.727612    1.728351    0.018625
      8          8           0        1.022575    2.999802    0.102637
      9          6           0        1.739740    0.719497   -0.084549
     10          6           0        3.117439    1.087686   -0.101721
     11          6           0        4.125902    0.157582   -0.199463
     12          6           0        3.800834   -1.225715   -0.285565
     13          6           0        2.480561   -1.616413   -0.271295
     14          6           0        1.407320   -0.685790   -0.173681
     15          6           0        0.046502   -1.172898   -0.167179
     16          8           0       -0.196463   -2.447139   -0.247568
     17          6           0       -0.985755   -0.165413   -0.066685
     18          1           0       -4.004885   -1.917897   -0.112142
     19          1           0       -2.538275   -2.545945    0.672968
     20          1           0       -2.585889   -2.417833   -1.059685
     21          1           0       -4.397538    0.218996    0.061267
     22          1           0       -3.769625    2.623482    0.216054
     23          1           0       -1.368444    3.261051    0.186483
     24          1           0        3.346109    2.145581   -0.035318
     25          1           0        5.165135    0.473023   -0.211095
     26          1           0        4.591532   -1.966116   -0.362617
     27          1           0        2.218718   -2.666502   -0.335351
 ---------------------------------------------------------------------

 SCF Done:  E(UB3LYP) =  -728.506827382     A.U. after    1 cycles

 Alpha  occ. eigenvalues --  -19.01293 -19.01180 -10.17319 -10.16682 -10.15901
 Alpha  occ. eigenvalues --  -10.14791 -10.14654 -10.14437 -10.14434 -10.14407
 Alpha  occ. eigenvalues --  -10.13966 -10.13933 -10.13931 -10.13897 -10.13395
 Alpha  occ. eigenvalues --  -10.13390 -10.13343  -0.92794  -0.92180  -0.82426
 Alpha  occ. eigenvalues --   -0.81915  -0.75217  -0.74193  -0.72033  -0.70234
 Alpha  occ. eigenvalues --   -0.66190  -0.63061  -0.60096  -0.58528  -0.54717
 Alpha  occ. eigenvalues --   -0.51535  -0.50365  -0.48696  -0.43735  -0.43611
 Alpha  occ. eigenvalues --   -0.43018  -0.42288  -0.39725  -0.39654  -0.38469
 Alpha  occ. eigenvalues --   -0.37444  -0.36936  -0.36763  -0.36021  -0.34679
 Alpha  occ. eigenvalues --   -0.34253  -0.33173  -0.31518  -0.31450  -0.31028
 Alpha  occ. eigenvalues --   -0.29725  -0.29373  -0.22914  -0.22072  -0.21573
 Alpha  occ. eigenvalues --   -0.21324  -0.19449  -0.18781  -0.10402
 Alpha virt. eigenvalues --   -0.02366   0.00025   0.00411   0.00751   0.01303
 Alpha virt. eigenvalues --    0.02055   0.02315   0.02503   0.04176   0.04372
 Alpha virt. eigenvalues --    0.04473   0.04895   0.05831   0.06418   0.06690

  Beta  occ. eigenvalues --  -19.01293 -19.01180 -10.17319 -10.16682 -10.15901
  Beta  occ. eigenvalues --  -10.14791 -10.14654 -10.14437 -10.14434 -10.14407
  Beta  occ. eigenvalues --  -10.13966 -10.13933 -10.13931 -10.13897 -10.13395
  Beta  occ. eigenvalues --  -10.13390 -10.13343  -0.92794  -0.92180  -0.82426
  Beta  occ. eigenvalues --   -0.81915  -0.75217  -0.74193  -0.72033  -0.70234
  Beta  occ. eigenvalues --   -0.66190  -0.63061  -0.60096  -0.58528  -0.54717
  Beta  occ. eigenvalues --   -0.51535  -0.50365  -0.48696  -0.43735  -0.43611
  Beta  occ. eigenvalues --   -0.43018  -0.42288  -0.39725  -0.39654  -0.38469
  Beta  occ. eigenvalues --   -0.37444  -0.36936  -0.36763  -0.36021  -0.34679
  Beta  occ. eigenvalues --   -0.34253  -0.33173  -0.31518  -0.31450  -0.31028
  Beta  occ. eigenvalues --   -0.29725  -0.29373  -0.22914  -0.22072  -0.21573
  Beta  occ. eigenvalues --   -0.21324  -0.19449  -0.18781  -0.10402
  Beta virt. eigenvalues --   -0.02366   0.00025   0.00411   0.00751   0.01303
  Beta virt. eigenvalues --    0.02055   0.02315   0.02503   0.04176   0.04372
  Beta virt. eigenvalues --    0.04473   0.04895   0.05831   0.06418   0.06690

 Mulliken charges and spin densities:
               1          2
     1  C   -0.528664   0.000000
     2  C    0.727137   0.000000
     3  C   -0.469125   0.000000
     4  C   -0.405890   0.000000
     5  C   -0.131203   0.000000
     6  C    0.427513  -0.000000
     7  C   -0.571276  -0.000000
     8  O   -0.685841   0.000000
     9  C    0.129531  -0.000000
    10  C   -0.063161   0.000000
    11  C   -0.483889   0.000000
    12  C   -0.514717  -0.000000
    13  C    0.027394   0.000000
    14  C    0.124588   0.000000
    15  C   -0.697661  -0.000000
    16  O   -0.627955   0.000000
    17  C    0.317459   0.000000
    18  H    0.125329  -0.000000
    19  H    0.149291  -0.000000
    20  H    0.149100  -0.000000
    21  H    0.096480   0.000000
    22  H    0.166194   0.000000
    23  H    0.138136   0.000000
    24  H    0.143885  -0.000000
    25  H    0.154201   0.000000
    26  H    0.154308  -0.000000
    27  H    0.148838  -0.000000
 Sum of Mulliken charges =  -2.00000  -0.00000

 Dipole moment (field-independent basis, Debye):
    X=             -3.9499    Y=             -3.7585    Z=              0.6270  Tot=              5.4883
 Quadrupole moment (field-independent basis, Debye-Ang):
   XX=           -129.2273   YY=           -162.4147   ZZ=           -112.7891
   XY=             -8.5728   XZ=              0.2047   YZ=             -2.9873

  Exact polarizability: 554.205 -36.636 394.875 -14.311  17.503 165.732
 Approx polarizability: 608.319 -37.902 463.315 -15.549  21.209 182.929

                      1                      2                      3
                      A                      A                      A
 Frequencies --     56.1078                78.7405               133.3090
 Red. masses --      4.3617                 4.4749                 4.0605
 Frc consts  --      0.0081                 0.0163                 0.0425
 IR Inten    --     18.1888                 3.9268                 0.2275

                      4                      5                      6
                      A                      A                      A
 Frequencies --    173.0314               215.1116               218.3667
 Red. masses --      7.9675                 3.2169                 4.0177
 Frc consts  --      0.1405                 0.0877                 0.1129
 IR Inten    --      6.6295                11.9498                18.9098

                      7                      8                      9
                      A                      A                      A
 Frequencies --    246.4764               266.8121               306.8511
 Red. masses --      1.2188                 3.8220                 6.1262
 Frc consts  --      0.0436                 0.1603                 0.3399
 IR Inten    --      0.3005                 2.4895                 0.8024

                     10                     11                     12
                      A                      A                      A
 Frequencies --    342.5456               373.9380               387.3020
 Red. masses --      4.8946                11.5590                 6.3620
 Frc consts  --      0.3384                 0.9523                 0.5623
 IR Inten    --      5.1667                 2.3681                 0.6671

                     13                     14                     15
                      A                      A                      A
 Frequencies --    396.1179               446.0822               449.4640
 Red. masses --      7.4361                 3.2612                 4.3666
 Frc consts  --      0.6875                 0.3824                 0.5197
 IR Inten    --      0.1472                 2.6215                 1.7072

                     16                     17                     18
                      A                      A                      A
 Frequencies --    498.0147               503.1756               543.8706
 Red. masses --     10.7259                 3.9373                 3.4171
 Frc consts  --      1.5674                 0.5873                 0.5955
 IR Inten    --      0.1990                 0.1310                10.7941

                     19                     20                     21
                      A                      A                      A
 Frequencies --    545.9548               600.0069               632.2746
 Red. masses --      5.2132                 6.3562                 4.0856
 Frc consts  --      0.9155                 1.3482                 0.9623
 IR Inten    --      7.0870                70.5240                 0.7227

                     22                     23                     24
                      A                      A                      A
 Frequencies --    653.6586               686.3308               696.9768
 Red. masses --      6.3266                 6.9092                 1.9752
 Frc consts  --      1.5927                 1.9175                 0.5653
 IR Inten    --      3.4617                 0.7095               166.7392

                     25                     26                     27
                      A                      A                      A
 Frequencies --    737.1560               763.7537               785.9878
 Red. masses --      3.4011                 1.4569                 2.2311
 Frc consts  --      1.0889                 0.5007                 0.8121
 IR Inten    --      0.4190                 0.4945                82.4132

                     28                     29                     30
                      A                      A                      A
 Frequencies --    791.9197               815.4237               851.3550
 Red. masses --      5.7952                 2.8143                 6.1818
 Frc consts  --      2.1413                 1.1025                 2.6399
 IR Inten    --      9.8284                 4.1850                57.7627

                     31                     32                     33
                      A                      A                      A
 Frequencies --    855.3056               867.0919               926.9849
 Red. masses --      1.9041                 1.4214                 5.2449
 Frc consts  --      0.8207                 0.6296                 2.6554
 IR Inten    --      1.5756                 0.0787                14.9244

                     34                     35                     36
                      A                      A                      A
 Frequencies --    968.9732               977.5063               979.3709
 Red. masses --      3.2136                 1.3222                 1.3145
 Frc consts  --      1.7777                 0.7444                 0.7428
 IR Inten    --     79.4162                 0.5695                 5.4854

                     37                     38                     39
                      A                      A                      A
 Frequencies --    984.0406              1011.9049              1024.5839
 Red. masses --      1.2634                 2.0212                 2.1944
 Frc consts  --      0.7208                 1.2194                 1.3573
 IR Inten    --      0.6547               138.5213               153.2951

                     40                     41                     42
                      A                      A                      A
 Frequencies --   1054.2769              1084.8154              1095.0963
 Red. masses --      1.5308                 1.9786                 2.5722
 Frc consts  --      1.0025                 1.3719                 1.8175
 IR Inten    --      4.3388               208.1025               349.5380

                     43                     44                     45
                      A                      A                      A
 Frequencies --   1113.1292              1146.4906              1164.3716
 Red. masses --      1.5780                 1.5889                 1.6937
 Frc consts  --      1.1520                 1.2305                 1.3529
 IR Inten    --    357.4488               120.0934               375.2726

                     46                     47                     48
                      A                      A                      A
 Frequencies --   1176.6305              1215.8771              1224.9319
 Red. masses --      1.9668                 2.5667                 2.6285
 Frc consts  --      1.6043                 2.2357                 2.3237
 IR Inten    --    145.4451               259.5762                85.2996

                     49                     50                     51
                      A                      A                      A
 Frequencies --   1243.1975              1294.4529              1335.3446
 Red. masses --      2.6490                 5.8840                 3.6434
 Frc consts  --      2.4122                 5.8089                 3.8278
 IR Inten    --    405.0895               158.4422              2259.5038

                     52                     53                     54
                      A                      A                      A
 Frequencies --   1341.7031              1364.9998              1406.9881
 Red. masses --      6.3811                 2.1774                 2.0080
 Frc consts  --      6.7680                 2.3903                 2.3420
 IR Inten    --    711.8727               179.9050                71.9513

                     55                     56                     57
                      A                      A                      A
 Frequencies --   1409.1949              1443.2880              1454.3611
 Red. masses --      1.4452                 5.3334                 1.0486
 Frc consts  --      1.6909                 6.5458                 1.3068
 IR Inten    --      7.0891                 8.3893                 5.9916

                     58                     59                     60
                      A                      A                      A
 Frequencies --   1460.7775              1475.9772              1480.6864
 Red. masses --      2.7664                 2.8545                 1.1693
 Frc consts  --      3.4780                 3.6638                 1.5105
 IR Inten    --    242.1176                10.7779                26.6147

                     61                     62                     63
                      A                      A                      A
 Frequencies --   1493.5935              1537.7570              1580.3725
 Red. masses --      5.1623                 5.7072                 7.2914
 Frc consts  --      6.7852                 7.9514                10.7295
 IR Inten    --     31.5827               121.6672                21.1508

                     64                     65                     66
                      A                      A                      A
 Frequencies --   1604.5346              1605.5469              3017.5592
 Red. masses --      5.1133                 5.0985                 1.0436
 Frc consts  --      7.7562                 7.7435                 5.5986
 IR Inten    --     31.0342                 7.0025               129.5135

                     67                     68                     69
                      A                      A                      A
 Frequencies --   3088.1449              3095.2501              3130.6846
 Red. masses --      1.0926                 1.0993                 1.0852
 Frc consts  --      6.1391                 6.2051                 6.2665
 IR Inten    --     37.7876                30.4293                55.4643

                     70                     71                     72
                      A                      A                      A
 Frequencies --   3135.9016              3148.5592              3151.3220
 Red. masses --      1.0845                 1.0908                 1.0888
 Frc consts  --      6.2833                 6.3715                 6.3708
 IR Inten    --     24.5821                77.4596                30.0073

                     73                     74                     75
                      A                      A                      A
 Frequencies --   3167.9936              3173.4509              3174.9052
 Red. masses --      1.0920                 1.0935                 1.0926
 Frc consts  --      6.4573                 6.4886                 6.4891
 IR Inten    --     47.8801               118.2654                29.9578

 - Thermochemistry -
 -------------------
 Temperature   298.150 Kelvin.  Pressure   1.00000 Atm.
 Atom     1 has atomic number  6 and mass  12.00000

 Molecular mass:   222.06808 amu.
 Principal axes and moments of inertia in atomic units:
                           1         2         3
     Eigenvalues --  2087.682144436.591266513.38714
           X            0.99697   0.07198   0.02950
           Y           -0.06973   0.99502  -0.07128
           Z           -0.03448   0.06900   0.99702
 This molecule is an asymmetric top.
 Rotational symmetry number  1.
 Warning -- assumption of classical behavior for rotation
           may cause significant error
 Rotational temperatures (Kelvin)      0.04149     0.01952     0.01330
 Rotational constants (GHZ):           0.86447     0.40679     0.27708
 Zero-point vibrational energy     531644.6 (Joules/Mol)
                                  127.06612 (Kcal/Mol)
 Warning -- explicit consideration of  20 degrees of freedom as
           vibrations may cause significant error
 Vibrational temperatures:     80.73   113.29   191.80   248.95   309.50
          (Kelvin)            314.18   354.62   383.88   441.49   492.85
                              538.01   557.24   569.93   641.81   646.68
                              716.53   723.96   782.51   785.51   863.28
                              909.70   940.47   987.48  1002.79  1060.60
                             1098.87  1130.86  1139.40  1173.21  1224.91
                             1230.59  1247.55  1333.72  1394.14  1406.41
                             1409.10  1415.81  1455.91  1474.15  1516.87
                             1560.81  1575.60  1601.54  1649.54  1675.27
                             1692.91  1749.38  1762.40  1788.68  1862.43
                             1921.26  1930.41  1963.93  2024.34  2027.52
                             2076.57  2092.50  2101.73  2123.60  2130.38
                             2148.95  2212.49  2273.80  2308.57  2310.02
                             4341.59  4443.15  4453.37  4504.36  4511.86
                             4530.07  4534.05  4558.04  4565.89  4567.98

 Zero-point correction=                           0.202493 (Hartree/Particle)
 Thermal correction to Energy=                    0.215213
 Thermal correction to Enthalpy=                  0.216158
 Thermal correction to Gibbs Free Energy=         0.163739
 Sum of electronic and zero-point Energies=           -728.304335
 Sum of electronic and thermal Energies=              -728.291614
 Sum of electronic and thermal Enthalpies=            -728.290670
 Sum of electronic and thermal Free Energies=         -728.343088

                     E (Thermal)             CV                S
                      KCal/Mol        Cal/Mol-Kelvin    Cal/Mol-Kelvin
 Total                  135.048             52.514            110.324
 Electronic               0.000              0.000              0.000
 Translational            0.889              2.981             42.096
 Rotational               0.889              2.981             32.467
 Vibrational            133.271             46.553             35.761
 Vibration     1          0.596              1.975              4.590
 Vibration     2          0.600              1.963              3.922
 Vibration     3          0.613              1.920              2.898
 Vibration     4          0.627              1.876              2.402
 Vibration     5          0.645              1.818              2.000
 Vibration     6          0.646              1.813              1.973
 Vibration     7          0.661              1.769              1.756
 Vibration     8          0.672              1.734              1.617
 Vibration     9          0.697              1.661              1.379
 Vibration    10          0.722              1.590              1.200
 Vibration    11          0.745              1.526              1.064
 Vibration    12          0.756              1.497              1.011
 Vibration    13          0.763              1.478              0.977
 Vibration    14          0.805              1.370              0.808
 Vibration    15          0.808              1.362              0.797
 Vibration    16          0.853              1.254              0.663
 Vibration    17          0.858              1.243              0.650
 Vibration    18          0.899              1.153              0.557
 Vibration    19          0.901              1.149              0.553
 Vibration    20          0.958              1.032              0.450

                           ! Non-Optimized Parameters !
 Normal termination of Gaussian 16 at Sat Feb 10 18:58:51 2024.
