 Q-Chem 5.4, Q-Chem, Inc., Pleasanton, CA (2021)
 Q-Chem 5.4.0 for Intel X86 EM64T Linux

User input:
--------------------------------------------------------------
$molecule
0 1
C                  3.4507230000      5.4901110000     -0.2766330000
C                  2.2402640000      4.6117650000     -0.2056050000
C                  2.2562720000      3.5179100000      0.5874160000
C                  3.4601330000      3.2248750000      1.4266970000
C                  4.6807400000      4.0831090000      1.3300930000
C                  4.6700050000      5.1626560000      0.5185360000
O                  3.4408990000      6.4792340000     -0.9949960000
O                  3.4347780000      2.2757310000      2.1997990000
C                  5.8245630000      6.1051600000      0.3425820000
C                  5.8594900000      3.6765810000      2.1756220000
C                  1.0925900000      5.0522200000     -1.0682600000
C                  1.1195020000      2.5349570000      0.7242630000
C                  0.2963700000      2.7545210000      2.0040070000
C                 -0.9348940000      1.8613330000      2.0617800000
O                 -1.3851240000      1.2513060000      1.1334150000
O                 -1.5550880000      1.8076920000      3.2735500000
H                  6.6847400000      5.8152000000      0.9428130000
H                  5.5305640000      7.1233180000      0.6127870000
H                  6.1240220000      6.1478840000     -0.7084000000
H                  5.6212330000      2.7807110000      2.7457350000
H                  6.1355250000      4.4691920000      2.8768740000
H                  6.7357720000      3.4691300000      1.5549450000
H                  0.8529130000      6.0991270000     -0.8672670000
H                  0.1996540000      4.4498000000     -0.9173070000
H                  1.3721770000      5.0064280000     -2.1251270000
H                  1.5310360000      1.5241610000      0.7534820000
H                  0.4568990000      2.5826460000     -0.1374790000
H                 -0.0540820000      3.7928110000      2.0627400000
H                  0.9222880000      2.5788920000      2.8841110000
H                 -1.0626030000      2.3152690000      3.9301470000
$end
$rem
MAX_SCF_CYCLES=200
BASIS  =  6-311++G(d,p)
GUI  =  2
JOB_TYPE  =  SP
METHOD  =  B3LYP
SOLVENT_METHOD = COSMO
$end
$solvent
dielectric 37.219
opticaldielectric 1.43
$end

--------------------------------------------------------------

             Standard Nuclear Orientation (Angstroms)
    I     Atom           X                Y                Z
 ----------------------------------------------------------------
    1      C       2.0877474230     1.2287980569     0.1266225197
    2      C       0.6221853773     1.3334513467    -0.1613414403
    3      C      -0.0915197964     0.2115783875    -0.4015149444
    4      C       0.5758072564    -1.1256716614    -0.3241823724
    5      C       2.0457522086    -1.2275768906    -0.0699058659
    6      C       2.7610263580    -0.1025427812     0.1465262791
    7      O       2.7373011321     2.2418417369     0.3418635506
    8      O      -0.0959077422    -2.1394728432    -0.4663443774
    9      C       4.2359643462    -0.0729940438     0.4221393751
   10      C       2.6341829978    -2.6144178051    -0.0623327845
   11      C       0.0805699660     2.7341570839    -0.1638011997
   12      C      -1.5626803009     0.1801778893    -0.7359854409
   13      C      -2.4370785756    -0.2004901027     0.4698416123
   14      C      -3.9243636129    -0.0837190245     0.1673828652
   15      O      -4.3901237835     0.4833468620    -0.7803540765
   16      O      -4.7492724618    -0.6560760814     1.0881636631
   17      H       4.6725679433    -1.0698063374     0.4211018522
   18      H       4.4342312349     0.4000064423     1.3880858788
   19      H       4.7501284323     0.5398516178    -0.3235949508
   20      H       1.8577623796    -3.3525830072    -0.2538045732
   21      H       3.0974959198    -2.8423873889     0.9018004486
   22      H       3.4069908081    -2.7179018261    -0.8292781182
   23      H       0.3545336305     3.2435160611     0.7632127483
   24      H      -1.0006468056     2.7651097505    -0.2780097366
   25      H       0.5354427661     3.3160408340    -0.9711026866
   26      H      -1.7280801863    -0.5581941154    -1.5229874722
   27      H      -1.8942387440     1.1399113470    -1.1270058239
   28      H      -2.2272146917     0.4596182763     1.3210327611
   29      H      -2.2040766725    -1.2199356991     0.7917775195
   30      H      -4.2364350568    -1.1048660789     1.7714504556
 ----------------------------------------------------------------

    9    -766.8287292465      6.52e-06  Convergence criterion met
 Total energy in the final basis set =     -766.8287292465
    5    -766.8546012971      4.62e-06  Convergence criterion met
 Total energy in the final basis set =     -766.8546012971

                    Orbital Energies (a.u.)
 --------------------------------------------------------------

 Alpha MOs
 -- Occupied --
-19.1799 -19.1367 -19.1360 -19.1316 -10.3231 -10.2812 -10.2795 -10.2126
-10.2099 -10.2090 -10.2079 -10.1970 -10.1860 -10.1723 -10.1707 -10.1691
 -1.1208  -1.0697  -1.0678  -1.0443  -0.8675  -0.8337  -0.7921  -0.7475
 -0.7338  -0.7046  -0.6615  -0.6519  -0.6241  -0.5788  -0.5748  -0.5447
 -0.5301  -0.4932  -0.4843  -0.4793  -0.4685  -0.4638  -0.4484  -0.4335
 -0.4329  -0.4252  -0.4219  -0.4191  -0.4087  -0.4059  -0.3981  -0.3917
 -0.3909  -0.3856  -0.3829  -0.3681  -0.3579  -0.3438  -0.3047  -0.2932
 -0.2906  -0.2718  -0.2665

          Ground-State Mulliken Net Atomic Charges

     Atom                 Charge (a.u.)
  ----------------------------------------
      1 C                    -0.674002
      2 C                     0.748210
      3 C                     0.785938
      4 C                    -1.131381
      5 C                     0.238430
      6 C                     0.547862
      7 O                    -0.277488
      8 O                    -0.280408
      9 C                    -0.464387
     10 C                    -0.574798
     11 C                    -0.497172
     12 C                    -0.341199
     13 C                    -0.395098
     14 C                    -0.013161
     15 O                    -0.351402
     16 O                    -0.227047
     17 H                     0.176653
     18 H                     0.194074
     19 H                     0.196448
     20 H                     0.195228
     21 H                     0.190642
     22 H                     0.191166
     23 H                     0.192705
     24 H                     0.143693
     25 H                     0.210962
     26 H                     0.228957
     27 H                     0.220481
     28 H                     0.233628
     29 H                     0.213980
     30 H                     0.318487
  ----------------------------------------
  Sum of atomic charges =     0.000000

                    Cartesian Multipole Moments
 -----------------------------------------------------------------
    Charge (ESU x 10^10)
                 0.0000
    Dipole Moment (Debye)
         X       4.4084      Y      -2.0200      Z       3.4490
       Tot       5.9506
    Quadrupole Moments (Debye-Ang)
        XX    -120.5060     XY      -6.8398     YY    -101.0289
        XZ     -13.9452     YZ      -4.5316     ZZ     -90.5645

 Total job time:  56.30s(wall), 415.21s(cpu)
        *  Thank you very much for using Q-Chem.  Have a nice day.  *
