 Gaussian 16, Revision A.03,
 Gaussian 16:  ES64L-G16RevA.03 25-Dec-2016

 --------------------------------------
 #P UB3LYP/6-311++G(d,p) nosym opt freq
 --------------------------------------

 --------
 Oxidized
 --------
 Symbolic Z-matrix:
 Charge =  0 Multiplicity = 1

 SCF Done:  E(UB3LYP) =  -766.828709590     A.U. after   15 cycles
 Optimization completed.
    -- Stationary point found.
 Normal termination of Gaussian 16 at Sat Jan  6 05:44:42 2024.

 ----------------------------------------------------------------------
 #P Geom=AllCheck Guess=TCheck SCRF=Check GenChk UB3LYP/6-311++G(d,p) F
 req
 ----------------------------------------------------------------------

 Structure from the checkpoint file:  "051.chk"
 --------
 Oxidized
 --------
 Charge =  0 Multiplicity = 1

                          Input orientation:
 ---------------------------------------------------------------------
 Center     Atomic      Atomic             Coordinates (Angstroms)
 Number     Number       Type             X           Y           Z
 ---------------------------------------------------------------------
      1          6           0        3.450723    5.490111   -0.276633
      2          6           0        2.240264    4.611765   -0.205605
      3          6           0        2.256272    3.517910    0.587416
      4          6           0        3.460133    3.224875    1.426697
      5          6           0        4.680740    4.083109    1.330093
      6          6           0        4.670005    5.162656    0.518536
      7          8           0        3.440899    6.479234   -0.994996
      8          8           0        3.434778    2.275731    2.199799
      9          6           0        5.824563    6.105160    0.342582
     10          6           0        5.859490    3.676581    2.175622
     11          6           0        1.092590    5.052220   -1.068260
     12          6           0        1.119502    2.534957    0.724263
     13          6           0        0.296370    2.754521    2.004007
     14          6           0       -0.934894    1.861333    2.061780
     15          8           0       -1.385124    1.251306    1.133415
     16          8           0       -1.555088    1.807692    3.273550
     17          1           0        6.684740    5.815200    0.942813
     18          1           0        5.530564    7.123318    0.612787
     19          1           0        6.124022    6.147884   -0.708400
     20          1           0        5.621233    2.780711    2.745735
     21          1           0        6.135525    4.469192    2.876874
     22          1           0        6.735772    3.469130    1.554945
     23          1           0        0.852913    6.099127   -0.867267
     24          1           0        0.199654    4.449800   -0.917307
     25          1           0        1.372177    5.006428   -2.125127
     26          1           0        1.531036    1.524161    0.753482
     27          1           0        0.456899    2.582646   -0.137479
     28          1           0       -0.054082    3.792811    2.062740
     29          1           0        0.922288    2.578892    2.884111
     30          1           0       -1.062603    2.315269    3.930147
 ---------------------------------------------------------------------

 SCF Done:  E(UB3LYP) =  -766.828709590     A.U. after    1 cycles

 Alpha  occ. eigenvalues --  -19.18182 -19.14014 -19.13782 -19.12244 -10.31778
 Alpha  occ. eigenvalues --  -10.28548 -10.28236 -10.22112 -10.21846 -10.21819
 Alpha  occ. eigenvalues --  -10.21752 -10.21016 -10.19556 -10.18498 -10.18488
 Alpha  occ. eigenvalues --  -10.18333  -1.11818  -1.07248  -1.06946  -1.03933
 Alpha  occ. eigenvalues --   -0.87644  -0.84410  -0.80210  -0.75892  -0.74443
 Alpha  occ. eigenvalues --   -0.71487  -0.67206  -0.65939  -0.62828  -0.58660
 Alpha  occ. eigenvalues --   -0.58362  -0.55246  -0.53512  -0.49831  -0.48728
 Alpha  occ. eigenvalues --   -0.47656  -0.46898  -0.46601  -0.45413  -0.44385
 Alpha  occ. eigenvalues --   -0.43826  -0.43411  -0.43020  -0.42830  -0.41890
 Alpha  occ. eigenvalues --   -0.41742  -0.40703  -0.40188  -0.39874  -0.39462
 Alpha  occ. eigenvalues --   -0.38983  -0.37669  -0.36813  -0.33753  -0.30141
 Alpha  occ. eigenvalues --   -0.29394  -0.29241  -0.27721  -0.27491
 Alpha virt. eigenvalues --   -0.13209  -0.02916  -0.02419  -0.01649  -0.01394
 Alpha virt. eigenvalues --   -0.00347  -0.00107   0.00961   0.01388   0.01736
 Alpha virt. eigenvalues --    0.02465   0.02888   0.03352   0.04115   0.04545

  Beta  occ. eigenvalues --  -19.18182 -19.14014 -19.13782 -19.12244 -10.31778
  Beta  occ. eigenvalues --  -10.28548 -10.28236 -10.22112 -10.21846 -10.21819
  Beta  occ. eigenvalues --  -10.21752 -10.21016 -10.19556 -10.18498 -10.18488
  Beta  occ. eigenvalues --  -10.18333  -1.11818  -1.07248  -1.06946  -1.03933
  Beta  occ. eigenvalues --   -0.87644  -0.84410  -0.80210  -0.75892  -0.74443
  Beta  occ. eigenvalues --   -0.71487  -0.67206  -0.65939  -0.62828  -0.58660
  Beta  occ. eigenvalues --   -0.58362  -0.55246  -0.53512  -0.49831  -0.48728
  Beta  occ. eigenvalues --   -0.47656  -0.46898  -0.46601  -0.45413  -0.44385
  Beta  occ. eigenvalues --   -0.43826  -0.43411  -0.43020  -0.42830  -0.41890
  Beta  occ. eigenvalues --   -0.41742  -0.40703  -0.40188  -0.39874  -0.39462
  Beta  occ. eigenvalues --   -0.38983  -0.37669  -0.36813  -0.33753  -0.30141
  Beta  occ. eigenvalues --   -0.29394  -0.29241  -0.27721  -0.27491
  Beta virt. eigenvalues --   -0.13209  -0.02916  -0.02419  -0.01649  -0.01394
  Beta virt. eigenvalues --   -0.00347  -0.00107   0.00961   0.01388   0.01736
  Beta virt. eigenvalues --    0.02465   0.02888   0.03352   0.04115   0.04545

 Mulliken charges and spin densities:
               1          2
     1  C   -0.807310   0.000000
     2  C    0.727509   0.000000
     3  C    0.769619  -0.000000
     4  C   -1.206364   0.000000
     5  C    0.288398  -0.000000
     6  C    0.536533  -0.000000
     7  O   -0.195612   0.000000
     8  O   -0.212049  -0.000000
     9  C   -0.406747   0.000000
    10  C   -0.548795   0.000000
    11  C   -0.440029  -0.000000
    12  C   -0.299243   0.000000
    13  C   -0.392803  -0.000000
    14  C   -0.066937   0.000000
    15  O   -0.248699   0.000000
    16  O   -0.154927   0.000000
    17  H    0.154914   0.000000
    18  H    0.184128   0.000000
    19  H    0.186857   0.000000
    20  H    0.208634   0.000000
    21  H    0.166290   0.000000
    22  H    0.168229   0.000000
    23  H    0.185801  -0.000000
    24  H    0.124991  -0.000000
    25  H    0.197115  -0.000000
    26  H    0.226579  -0.000000
    27  H    0.215840  -0.000000
    28  H    0.195703  -0.000000
    29  H    0.191378   0.000000
    30  H    0.250996   0.000000
 Sum of Mulliken charges =  -0.00000   0.00000

 Dipole moment (field-independent basis, Debye):
    X=              3.1655    Y=              2.7966    Z=              1.7893  Tot=              4.5873
 Quadrupole moment (field-independent basis, Debye-Ang):
   XX=            -87.9341   YY=            -91.1969   ZZ=            -88.2330
   XY=              6.1157   XZ=              5.8524   YZ=             16.3638

  Exact polarizability: 159.917  22.313 159.821   5.311 -39.575 146.142
 Approx polarizability: 194.042  14.327 288.487  10.679 -87.617 250.776

                      1                      2                      3
                      A                      A                      A
 Frequencies --     25.2372                26.4759                35.6602
 Red. masses --      6.5579                 1.1805                 5.9249
 Frc consts  --      0.0025                 0.0005                 0.0044
 IR Inten    --      7.3768                 0.0639                 1.6866

                      4                      5                      6
                      A                      A                      A
 Frequencies --     42.3213                53.8622                61.5449
 Red. masses --      2.6222                 1.1760                 2.6828
 Frc consts  --      0.0028                 0.0020                 0.0060
 IR Inten    --      0.7801                 0.0532                 5.6218

                      7                      8                      9
                      A                      A                      A
 Frequencies --     76.8796                88.2772               106.6843
 Red. masses --      1.3707                 2.2064                 2.9653
 Frc consts  --      0.0048                 0.0101                 0.0199
 IR Inten    --      4.1243                 3.5545                 0.4591

                     10                     11                     12
                      A                      A                      A
 Frequencies --    124.8700               181.9256               218.5574
 Red. masses --      4.8683                 8.1046                 4.0075
 Frc consts  --      0.0447                 0.1580                 0.1128
 IR Inten    --      5.8910                 7.4374                 0.1398

                     13                     14                     15
                      A                      A                      A
 Frequencies --    289.6159               322.0257               327.6318
 Red. masses --      2.7671                 2.6052                 4.0593
 Frc consts  --      0.1367                 0.1592                 0.2567
 IR Inten    --      1.9010                 0.2123                 1.3065

                     16                     17                     18
                      A                      A                      A
 Frequencies --    352.6201               355.1535               399.2371
 Red. masses --      2.8861                 3.8509                 4.2360
 Frc consts  --      0.2114                 0.2862                 0.3978
 IR Inten    --      0.4621                 0.5276                 2.1774

                     19                     20                     21
                      A                      A                      A
 Frequencies --    424.0220               431.0172               457.7051
 Red. masses --      5.4431                 8.5614                 1.4190
 Frc consts  --      0.5766                 0.9371                 0.1752
 IR Inten    --      3.6413                26.8874                74.3434

                     22                     23                     24
                      A                      A                      A
 Frequencies --    466.7964               471.5284               552.2237
 Red. masses --      4.1837                 3.9143                 5.5549
 Frc consts  --      0.5371                 0.5128                 0.9981
 IR Inten    --     11.3845                10.6500                 1.4319

                     25                     26                     27
                      A                      A                      A
 Frequencies --    561.6007               588.2553               617.6295
 Red. masses --      3.0504                 2.3670                 5.5979
 Frc consts  --      0.5668                 0.4826                 1.2581
 IR Inten    --      4.4773                 1.9308                10.4228

                     28                     29                     30
                      A                      A                      A
 Frequencies --    674.5102               678.6517               730.1332
 Red. masses --      2.9835                 5.4968                 5.4825
 Frc consts  --      0.7997                 1.4916                 1.7220
 IR Inten    --      2.2298                 9.8454                10.8047

                     31                     32                     33
                      A                      A                      A
 Frequencies --    777.7587               795.5203               843.1272
 Red. masses --      1.7266                 6.3171                 2.1518
 Frc consts  --      0.6153                 2.3554                 0.9012
 IR Inten    --      7.9560                 0.4710                 9.2706

                     34                     35                     36
                      A                      A                      A
 Frequencies --    871.2852               905.7319               986.3637
 Red. masses --      4.0774                 3.3892                 1.7618
 Frc consts  --      1.8237                 1.6381                 1.0099
 IR Inten    --     23.1022                14.9113                11.1082

                     37                     38                     39
                      A                      A                      A
 Frequencies --    996.3419              1022.4350              1039.5580
 Red. masses --      4.1668                 1.5030                 2.2316
 Frc consts  --      2.4371                 0.9257                 1.4209
 IR Inten    --      0.6876                 0.7282                 4.5384

                     40                     41                     42
                      A                      A                      A
 Frequencies --   1050.6433              1055.0291              1058.1469
 Red. masses --      1.8307                 2.0843                 1.5628
 Frc consts  --      1.1906                 1.3669                 1.0310
 IR Inten    --     21.1909                21.1217                 0.0114

                     43                     44                     45
                      A                      A                      A
 Frequencies --   1089.2560              1121.8486              1132.3286
 Red. masses --      2.1367                 2.1955                 2.3477
 Frc consts  --      1.4937                 1.6280                 1.7735
 IR Inten    --      7.8330                38.0962                 7.4736

                     46                     47                     48
                      A                      A                      A
 Frequencies --   1148.3968              1206.4934              1269.1154
 Red. masses --      3.1040                 1.3767                 1.4974
 Frc consts  --      2.4119                 1.1807                 1.4210
 IR Inten    --     18.2842                25.1735               304.8808

                     49                     50                     51
                      A                      A                      A
 Frequencies --   1274.7178              1294.0522              1311.4953
 Red. masses --      3.1017                 6.3072                 1.5346
 Frc consts  --      2.9694                 6.2229                 1.5551
 IR Inten    --     33.5589               148.1151               198.4583

                     52                     53                     54
                      A                      A                      A
 Frequencies --   1332.2618              1357.0938              1392.2711
 Red. masses --      1.5007                 2.6866                 1.6220
 Frc consts  --      1.5694                 2.9152                 1.8525
 IR Inten    --     30.9860                16.8854                33.7423

                     55                     56                     57
                      A                      A                      A
 Frequencies --   1406.0083              1415.9025              1417.7817
 Red. masses --      1.2783                 1.2524                 1.3240
 Frc consts  --      1.4889                 1.4794                 1.5681
 IR Inten    --     20.7055                25.0695                 7.6968

                     58                     59                     60
                      A                      A                      A
 Frequencies --   1463.0503              1470.5346              1470.8537
 Red. masses --      1.0808                 1.0718                 1.0960
 Frc consts  --      1.3630                 1.3656                 1.3970
 IR Inten    --      8.2980                 7.7128                 0.9443

                     61                     62                     63
                      A                      A                      A
 Frequencies --   1472.9157              1476.2053              1491.0721
 Red. masses --      1.0460                 1.0567                 1.0621
 Frc consts  --      1.3371                 1.3567                 1.3912
 IR Inten    --     13.8834                 3.4326                18.3046

                     64                     65                     66
                      A                      A                      A
 Frequencies --   1500.9117              1504.0092              1661.1455
 Red. masses --      1.0917                 1.0440                 7.8778
 Frc consts  --      1.4490                 1.3914                12.8076
 IR Inten    --     13.3386                 4.8103                62.7724

                     67                     68                     69
                      A                      A                      A
 Frequencies --   1691.7799              1698.4370              1706.2783
 Red. masses --     12.1648                10.7975                 9.4010
 Frc consts  --     20.5136                18.3516                16.1259
 IR Inten    --    158.5698               210.7296                89.3645

                     70                     71                     72
                      A                      A                      A
 Frequencies --   1843.4856              3017.8438              3032.9587
 Red. masses --     10.3155                 1.0641                 1.0400
 Frc consts  --     20.6548                 5.7096                 5.6365
 IR Inten    --    275.3646                12.5410                13.2727

                     73                     74                     75
                      A                      A                      A
 Frequencies --   3040.2528              3041.6981              3066.7766
 Red. masses --      1.0390                 1.0411                 1.0952
 Frc consts  --      5.6584                 5.6753                 6.0691
 IR Inten    --      8.6189                 5.3553                 5.5049

                     76                     77                     78
                      A                      A                      A
 Frequencies --   3076.6997              3080.5833              3084.0904
 Red. masses --      1.0659                 1.1000                 1.0985
 Frc consts  --      5.9448                 6.1502                 6.1561
 IR Inten    --      5.4170                15.1859                 2.0224

                     79                     80                     81
                      A                      A                      A
 Frequencies --   3087.7907              3130.4325              3140.0619
 Red. masses --      1.0961                 1.1002                 1.0975
 Frc consts  --      6.1574                 6.3521                 6.3758
 IR Inten    --      5.3679                 3.6019                10.1790

                     82                     83                     84
                      A                      A                      A
 Frequencies --   3142.4950              3148.8410              3806.5750
 Red. masses --      1.0988                 1.0973                 1.0661
 Frc consts  --      6.3929                 6.4101                 9.1019
 IR Inten    --      5.5088                11.1709                45.8286

 - Thermochemistry -
 -------------------
 Temperature   298.150 Kelvin.  Pressure   1.00000 Atm.
 Atom     1 has atomic number  6 and mass  12.00000

 Molecular mass:   222.08921 amu.
 Principal axes and moments of inertia in atomic units:
                           1         2         3
     Eigenvalues --  1918.218486305.496697762.52976
           X            0.82809   0.51174  -0.22889
           Y            0.50599  -0.50651   0.69816
           Z           -0.24134   0.69395   0.67837
 This molecule is an asymmetric top.
 Rotational symmetry number  1.
 Warning -- assumption of classical behavior for rotation
           may cause significant error
 Rotational temperatures (Kelvin)      0.04515     0.01374     0.01116
 Rotational constants (GHZ):           0.94084     0.28622     0.23249
 Zero-point vibrational energy     626014.2 (Joules/Mol)
                                  149.62098 (Kcal/Mol)
 Warning -- explicit consideration of  27 degrees of freedom as
           vibrations may cause significant error
 Vibrational temperatures:     36.31    38.09    51.31    60.89    77.50
          (Kelvin)             88.55   110.61   127.01   153.49   179.66
                              261.75   314.46   416.69   463.32   471.39
                              507.34   510.99   574.41   610.07   620.14
                              658.54   671.62   678.42   794.53   808.02
                              846.37   888.63   970.47   976.43  1050.50
                             1119.02  1144.58  1213.07  1253.59  1303.15
                             1419.16  1433.51  1471.06  1495.69  1511.64
                             1517.95  1522.44  1567.20  1614.09  1629.17
                             1652.29  1735.87  1825.97  1834.03  1861.85
                             1886.95  1916.83  1952.56  2003.17  2022.93
                             2037.17  2039.87  2105.00  2115.77  2116.23
                             2119.20  2123.93  2145.32  2159.48  2163.93
                             2390.02  2434.09  2443.67  2454.95  2652.36
                             4342.00  4363.75  4374.25  4376.33  4412.41
                             4426.68  4432.27  4437.32  4442.64  4503.99
                             4517.85  4521.35  4530.48  5476.81

 Zero-point correction=                           0.238436 (Hartree/Particle)
 Thermal correction to Energy=                    0.255887
 Thermal correction to Enthalpy=                  0.256831
 Thermal correction to Gibbs Free Energy=         0.189568
 Sum of electronic and zero-point Energies=           -766.590273
 Sum of electronic and thermal Energies=              -766.572823
 Sum of electronic and thermal Enthalpies=            -766.571878
 Sum of electronic and thermal Free Energies=         -766.639141

                     E (Thermal)             CV                S
                      KCal/Mol        Cal/Mol-Kelvin    Cal/Mol-Kelvin
 Total                  160.571             61.225            141.567
 Electronic               0.000              0.000              0.000
 Translational            0.889              2.981             42.096
 Rotational               0.889              2.981             32.907
 Vibrational            158.794             55.263             66.564
 Vibration     1          0.593              1.985              6.172
 Vibration     2          0.593              1.985              6.077
 Vibration     3          0.594              1.982              5.487
 Vibration     4          0.595              1.980              5.147
 Vibration     5          0.596              1.976              4.670
 Vibration     6          0.597              1.973              4.407
 Vibration     7          0.599              1.965              3.969
 Vibration     8          0.601              1.957              3.698
 Vibration     9          0.606              1.944              3.328
 Vibration    10          0.610              1.928              3.024
 Vibration    11          0.630              1.864              2.309
 Vibration    12          0.646              1.813              1.971
 Vibration    13          0.686              1.693              1.476
 Vibration    14          0.707              1.631              1.300
 Vibration    15          0.711              1.620              1.272
 Vibration    16          0.729              1.570              1.154
 Vibration    17          0.731              1.565              1.143
 Vibration    18          0.765              1.472              0.965
 Vibration    19          0.786              1.418              0.878
 Vibration    20          0.792              1.403              0.855
 Vibration    21          0.816              1.344              0.773
 Vibration    22          0.824              1.324              0.747
 Vibration    23          0.828              1.313              0.733
 Vibration    24          0.908              1.135              0.540
 Vibration    25          0.917              1.114              0.521
 Vibration    26          0.945              1.057              0.470
 Vibration    27          0.977              0.995              0.420

 Optimization completed on the basis of negligible forces.
    -- Stationary point found.
 Normal termination of Gaussian 16 at Sat Jan  6 06:45:55 2024.
