 Gaussian 16, Revision A.03,
 Gaussian 16:  ES64L-G16RevA.03 25-Dec-2016

 --------------------------------------
 #P UB3LYP/6-311++G(d,p) nosym opt freq
 --------------------------------------

 -------
 Reduced
 -------
 Symbolic Z-matrix:
 Charge = -2 Multiplicity = 1

 SCF Done:  E(UB3LYP) =  -706.162549371     A.U. after   32 cycles
 SCF Done:  E(UB3LYP) =  -706.186283236     A.U. after   18 cycles
 SCF Done:  E(UB3LYP) =  -706.188810578     A.U. after   16 cycles
 SCF Done:  E(UB3LYP) =  -706.188977872     A.U. after   16 cycles
 SCF Done:  E(UB3LYP) =  -706.189011792     A.U. after   16 cycles
 SCF Done:  E(UB3LYP) =  -706.189022797     A.U. after   16 cycles
 SCF Done:  E(UB3LYP) =  -706.189023598     A.U. after   16 cycles
 Optimization completed.
    -- Stationary point found.
 Normal termination of Gaussian 16 at Tue Dec 26 20:48:36 2023.

 ----------------------------------------------------------------------
 #P Geom=AllCheck Guess=TCheck SCRF=Check GenChk UB3LYP/6-311++G(d,p) F
 req
 ----------------------------------------------------------------------

 Structure from the checkpoint file:  "228-an.chk"
 -------
 Reduced
 -------
 Charge = -2 Multiplicity = 1

                          Input orientation:
 ---------------------------------------------------------------------
 Center     Atomic      Atomic             Coordinates (Angstroms)
 Number     Number       Type             X           Y           Z
 ---------------------------------------------------------------------
      1          6           0        5.772810   -5.131835    1.239760
      2          6           0        6.779114   -5.052475    0.308453
      3          6           0        6.684791   -4.084010   -0.756015
      4          6           0        4.623845   -4.295115    1.208598
      5          6           0        4.529568   -3.317659    0.133681
      6          6           0        5.560671   -3.247572   -0.807361
      7          6           0        3.606124   -4.428734    2.212957
      8          6           0        2.491790   -3.522032    2.069005
      9          6           0        2.390988   -2.572184    1.032330
     10          6           0        3.390625   -2.415610    0.017349
     11          8           0        3.680845   -5.296221    3.174381
     12          8           0        3.282377   -1.544277   -0.922520
     13          6           0        7.710833   -3.987740   -1.723857
     14          7           0        8.576064   -3.933712   -2.507984
     15          1           0        5.818970   -5.851963    2.051136
     16          1           0        7.645359   -5.706106    0.358812
     17          1           0        5.457726   -2.507593   -1.594848
     18          6           0        1.410152   -3.651469    3.120473
     19          6           0        1.210120   -1.636406    0.909892
     20          1           0        1.710853   -4.447174    3.806200
     21          1           0        0.430817   -3.907619    2.688504
     22          1           0        1.268194   -2.723802    3.695519
     23          1           0        0.468057   -1.784162    1.698732
     24          1           0        0.717031   -1.758346   -0.064934
     25          1           0        1.540976   -0.588315    0.929495
 ---------------------------------------------------------------------

 SCF Done:  E(UB3LYP) =  -706.189023598     A.U. after    1 cycles

 Alpha  occ. eigenvalues --  -18.78208 -18.76909 -14.07290  -9.97814  -9.95000
 Alpha  occ. eigenvalues --   -9.93942  -9.93237  -9.93151  -9.93040  -9.92434
 Alpha  occ. eigenvalues --   -9.92136  -9.91887  -9.90660  -9.90618  -9.90080
 Alpha  occ. eigenvalues --   -9.89907  -0.69863  -0.68386  -0.67279  -0.60212
 Alpha  occ. eigenvalues --   -0.55431  -0.51376  -0.50094  -0.47902  -0.43354
 Alpha  occ. eigenvalues --   -0.40453  -0.36137  -0.34211  -0.30178  -0.27426
 Alpha  occ. eigenvalues --   -0.24902  -0.21283  -0.20812  -0.18494  -0.17609
 Alpha  occ. eigenvalues --   -0.16465  -0.16279  -0.15679  -0.15252  -0.14354
 Alpha  occ. eigenvalues --   -0.14048  -0.13245  -0.11635  -0.11467  -0.11257
 Alpha  occ. eigenvalues --   -0.09707  -0.08287  -0.07412  -0.06774  -0.06668
 Alpha  occ. eigenvalues --   -0.00251   0.01547   0.02628   0.04120   0.05155
 Alpha  occ. eigenvalues --    0.12667
 Alpha virt. eigenvalues --    0.16592   0.17903   0.18460   0.19662   0.19998
 Alpha virt. eigenvalues --    0.20228   0.20547   0.21982   0.22354   0.22760
 Alpha virt. eigenvalues --    0.23235   0.23885   0.25003   0.25181   0.25663

  Beta  occ. eigenvalues --  -18.78208 -18.76909 -14.07290  -9.97814  -9.95000
  Beta  occ. eigenvalues --   -9.93942  -9.93237  -9.93151  -9.93040  -9.92434
  Beta  occ. eigenvalues --   -9.92136  -9.91887  -9.90660  -9.90618  -9.90080
  Beta  occ. eigenvalues --   -9.89907  -0.69863  -0.68386  -0.67279  -0.60212
  Beta  occ. eigenvalues --   -0.55431  -0.51376  -0.50094  -0.47902  -0.43354
  Beta  occ. eigenvalues --   -0.40453  -0.36137  -0.34211  -0.30178  -0.27426
  Beta  occ. eigenvalues --   -0.24902  -0.21283  -0.20812  -0.18494  -0.17609
  Beta  occ. eigenvalues --   -0.16465  -0.16279  -0.15679  -0.15252  -0.14354
  Beta  occ. eigenvalues --   -0.14048  -0.13245  -0.11635  -0.11467  -0.11257
  Beta  occ. eigenvalues --   -0.09707  -0.08287  -0.07412  -0.06774  -0.06668
  Beta  occ. eigenvalues --   -0.00251   0.01547   0.02628   0.04120   0.05155
  Beta  occ. eigenvalues --    0.12667
  Beta virt. eigenvalues --    0.16592   0.17903   0.18460   0.19662   0.19998
  Beta virt. eigenvalues --    0.20228   0.20547   0.21982   0.22354   0.22760
  Beta virt. eigenvalues --    0.23235   0.23885   0.25003   0.25181   0.25663

 Mulliken charges and spin densities:
               1          2
     1  C    0.121148  -0.000000
     2  C   -0.731123   0.000000
     3  C    1.492585  -0.000000
     4  C    0.477825  -0.000000
     5  C    0.107245   0.000000
     6  C    0.200529   0.000000
     7  C   -1.185193  -0.000000
     8  C    0.517132   0.000000
     9  C    0.696058  -0.000000
    10  C   -0.867695  -0.000000
    11  O   -0.537831   0.000000
    12  O   -0.494196  -0.000000
    13  C   -1.454878   0.000000
    14  N   -0.354792  -0.000000
    15  H    0.125910   0.000000
    16  H    0.098612   0.000000
    17  H    0.148415  -0.000000
    18  C   -0.589031   0.000000
    19  C   -0.500534   0.000000
    20  H    0.201031   0.000000
    21  H    0.083604  -0.000000
    22  H    0.083667  -0.000000
    23  H    0.107082  -0.000000
    24  H    0.127298  -0.000000
    25  H    0.127133  -0.000000
 Sum of Mulliken charges =  -2.00000  -0.00000

 Dipole moment (field-independent basis, Debye):
    X=            -44.3966    Y=             34.7400    Z=             -3.9266  Tot=             56.5096
 Quadrupole moment (field-independent basis, Debye-Ang):
   XX=           -366.3670   YY=           -254.4596   ZZ=           -157.8898
   XY=            171.6561   XZ=             16.2612   YZ=             34.1549

  Exact polarizability: 352.749 -74.648 190.837-103.104 -17.870 229.975
 Approx polarizability: 633.898-153.152 312.420-197.984 -30.213 379.272

 ******    1 imaginary frequencies (negative Signs) ******

                      1                      2                      3
                      A                      A                      A
 Frequencies --    -95.4711                54.1586                94.8082
 Red. masses --      1.0309                 5.9664                 6.1100
 Frc consts  --      0.0055                 0.0103                 0.0324
 IR Inten    --      0.3042                 0.2550                11.8299

                      4                      5                      6
                      A                      A                      A
 Frequencies --    105.2222               125.3952               151.3791
 Red. masses --      1.8442                 9.6411                 1.4531
 Frc consts  --      0.0120                 0.0893                 0.0196
 IR Inten    --      1.6231                 2.0140                 0.3794

                      7                      8                      9
                      A                      A                      A
 Frequencies --    162.5836               202.2315               259.8709
 Red. masses --      4.8693                 5.2802                 5.2664
 Frc consts  --      0.0758                 0.1272                 0.2095
 IR Inten    --      4.2301                 0.0433                13.1770

                     10                     11                     12
                      A                      A                      A
 Frequencies --    295.1842               317.9988               325.6028
 Red. masses --      4.4917                 4.3274                 4.9212
 Frc consts  --      0.2306                 0.2578                 0.3074
 IR Inten    --      0.2256                 6.9180                 0.0160

                     13                     14                     15
                      A                      A                      A
 Frequencies --    348.1785               377.4720               400.5594
 Red. masses --      3.4851                 6.8504                 7.6192
 Frc consts  --      0.2489                 0.5751                 0.7203
 IR Inten    --      0.0535                 0.0129                 0.0912

                     16                     17                     18
                      A                      A                      A
 Frequencies --    430.4456               451.5052               482.5361
 Red. masses --      6.2291                 3.2798                 5.4504
 Frc consts  --      0.6800                 0.3939                 0.7477
 IR Inten    --     14.1646                 1.5599                 1.6510

                     19                     20                     21
                      A                      A                      A
 Frequencies --    496.9984               556.5915               575.9572
 Red. masses --     10.3011                 6.1280                 6.6680
 Frc consts  --      1.4991                 1.1185                 1.3032
 IR Inten    --     10.2380                14.3988                 9.4461

                     22                     23                     24
                      A                      A                      A
 Frequencies --    587.4590               659.3319               666.3470
 Red. masses --      7.5148                 4.8482                 4.7428
 Frc consts  --      1.5280                 1.2418                 1.2408
 IR Inten    --      8.1535                 5.2910                 3.9457

                     25                     26                     27
                      A                      A                      A
 Frequencies --    681.1245               711.4635               729.7965
 Red. masses --      6.8569                 3.0751                 4.7063
 Frc consts  --      1.8743                 0.9171                 1.4768
 IR Inten    --     12.3552                24.8744                21.4071

                     28                     29                     30
                      A                      A                      A
 Frequencies --    750.7272               808.3491               865.4423
 Red. masses --      1.9694                 4.6269                 3.9340
 Frc consts  --      0.6539                 1.7813                 1.7360
 IR Inten    --      9.1445                 6.6125                 4.0612

                     31                     32                     33
                      A                      A                      A
 Frequencies --    908.6333               949.0188               966.5394
 Red. masses --      2.7289                 1.3860                 1.2976
 Frc consts  --      1.3275                 0.7355                 0.7142
 IR Inten    --      1.2743                 7.7171                 2.1919

                     34                     35                     36
                      A                      A                      A
 Frequencies --    983.8057              1008.1395              1027.5235
 Red. masses --      2.5704                 2.1119                 1.4243
 Frc consts  --      1.4658                 1.2647                 0.8860
 IR Inten    --     25.5550                87.4358                 0.0051

                     37                     38                     39
                      A                      A                      A
 Frequencies --   1041.6372              1093.6988              1109.0788
 Red. masses --      1.5097                 2.5798                 1.8756
 Frc consts  --      0.9651                 1.8182                 1.3593
 IR Inten    --      0.1236               137.8026                78.4446

                     40                     41                     42
                      A                      A                      A
 Frequencies --   1126.2303              1187.3294              1200.1155
 Red. masses --      2.0758                 3.4002                 4.5712
 Frc consts  --      1.5513                 2.8242                 3.8790
 IR Inten    --      7.3364               213.3934               164.1442

                     43                     44                     45
                      A                      A                      A
 Frequencies --   1225.1907              1266.9990              1329.4951
 Red. masses --      3.1849                 2.0989                 4.1368
 Frc consts  --      2.8168                 1.9851                 4.3081
 IR Inten    --    414.4118                15.1582               279.5288

                     46                     47                     48
                      A                      A                      A
 Frequencies --   1340.7268              1375.1508              1390.1728
 Red. masses --      1.4917                 1.5664                 3.4069
 Frc consts  --      1.5798                 1.7452                 3.8792
 IR Inten    --    100.3769                65.3615               128.5593

                     49                     50                     51
                      A                      A                      A
 Frequencies --   1413.1877              1433.7896              1447.9131
 Red. masses --      3.3367                 4.1005                 2.9838
 Frc consts  --      3.9262                 4.9665                 3.6856
 IR Inten    --    259.9078               419.0744               129.6474

                     52                     53                     54
                      A                      A                      A
 Frequencies --   1458.8095              1473.4012              1474.2177
 Red. masses --      1.0492                 3.4800                 1.4382
 Frc consts  --      1.3155                 4.4511                 1.8416
 IR Inten    --      1.2294                16.7035                61.3975

                     55                     56                     57
                      A                      A                      A
 Frequencies --   1484.8947              1501.3823              1501.8565
 Red. masses --      1.5364                 3.0982                 1.0824
 Frc consts  --      1.9959                 4.1147                 1.4384
 IR Inten    --     18.2131               196.3086                 8.9202

                     58                     59                     60
                      A                      A                      A
 Frequencies --   1535.7343              1596.9779              2208.7536
 Red. masses --      4.7027                 6.8232                12.6446
 Frc consts  --      6.5347                10.2527                36.3454
 IR Inten    --    357.3940                39.9353              1523.2665

                     61                     62                     63
                      A                      A                      A
 Frequencies --   2946.4222              2964.6840              2969.0900
 Red. masses --      1.0410                 1.0984                 1.0407
 Frc consts  --      5.3247                 5.6881                 5.4056
 IR Inten    --    321.4631                80.1523               319.9925

                     64                     65                     66
                      A                      A                      A
 Frequencies --   2980.8859              3071.1341              3075.7831
 Red. masses --      1.0978                 1.0930                 1.0924
 Frc consts  --      5.7472                 6.0738                 6.0888
 IR Inten    --    150.6641                67.1355                 4.3645

                     67                     68                     69
                      A                      A                      A
 Frequencies --   3131.8525              3160.1027              3163.2642
 Red. masses --      1.0856                 1.0920                 1.0895
 Frc consts  --      6.2739                 6.4251                 6.4230
 IR Inten    --     22.5116                38.3505                 7.9440

 - Thermochemistry -
 -------------------
 Temperature   298.150 Kelvin.  Pressure   1.00000 Atm.
 Atom     1 has atomic number  6 and mass  12.00000

 Molecular mass:   211.06333 amu.
 Principal axes and moments of inertia in atomic units:
                           1         2         3
     Eigenvalues --  1790.662824896.560806665.07701
           X            0.83920  -0.26715   0.47369
           Y           -0.14828   0.72562   0.67193
           Z           -0.52322  -0.63412   0.56933
 This molecule is an asymmetric top.
 Rotational symmetry number  1.
 Warning -- assumption of classical behavior for rotation
           may cause significant error
 Rotational temperatures (Kelvin)      0.04837     0.01769     0.01300
 Rotational constants (GHZ):           1.00786     0.36857     0.27078
    1 imaginary frequencies ignored.
 Zero-point vibrational energy     473711.3 (Joules/Mol)
                                  113.21971 (Kcal/Mol)
 Warning -- explicit consideration of  21 degrees of freedom as
           vibrations may cause significant error
 Vibrational temperatures:     77.92   136.41   151.39   180.42   217.80
          (Kelvin)            233.92   290.97   373.90   424.70   457.53
                              468.47   500.95   543.10   576.32   619.32
                              649.62   694.26   715.07   800.81   828.67
                              845.22   948.63   958.72   979.99  1023.64
                             1050.01  1080.13  1163.03  1245.18  1307.32
                             1365.43  1390.63  1415.48  1450.49  1478.38
                             1498.68  1573.59  1595.72  1620.39  1708.30
                             1726.70  1762.78  1822.93  1912.85  1929.01
                             1978.54  2000.15  2033.26  2062.90  2083.22
                             2098.90  2119.90  2121.07  2136.43  2160.15
                             2160.84  2209.58  2297.69  3177.90  4239.24
                             4265.52  4271.86  4288.83  4418.68  4425.37
                             4506.04  4546.68  4551.23

 Zero-point correction=                           0.180427 (Hartree/Particle)
 Thermal correction to Energy=                    0.193611
 Thermal correction to Enthalpy=                  0.194556
 Thermal correction to Gibbs Free Energy=         0.140796
 Sum of electronic and zero-point Energies=           -706.008596
 Sum of electronic and thermal Energies=              -705.995412
 Sum of electronic and thermal Enthalpies=            -705.994468
 Sum of electronic and thermal Free Energies=         -706.048228

                     E (Thermal)             CV                S
                      KCal/Mol        Cal/Mol-Kelvin    Cal/Mol-Kelvin
 Total                  121.493             51.145            113.146
 Electronic               0.000              0.000              0.000
 Translational            0.889              2.981             41.945
 Rotational               0.889              2.981             32.436
 Vibrational            119.716             45.184             38.766
 Vibration     1          0.596              1.976              4.659
 Vibration     2          0.603              1.953              3.558
 Vibration     3          0.605              1.945              3.355
 Vibration     4          0.610              1.928              3.015
 Vibration     5          0.619              1.901              2.655
 Vibration     6          0.623              1.888              2.520
 Vibration     7          0.639              1.837              2.113
 Vibration     8          0.668              1.746              1.663
 Vibration     9          0.689              1.683              1.444
 Vibration    10          0.704              1.639              1.320
 Vibration    11          0.710              1.624              1.282
 Vibration    12          0.726              1.579              1.174
 Vibration    13          0.748              1.518              1.049
 Vibration    14          0.766              1.469              0.961
 Vibration    15          0.792              1.404              0.857
 Vibration    16          0.810              1.358              0.791
 Vibration    17          0.839              1.289              0.703
 Vibration    18          0.853              1.257              0.666
 Vibration    19          0.912              1.125              0.531
 Vibration    20          0.932              1.083              0.493
 Vibration    21          0.945              1.059              0.472

                           ! Non-Optimized Parameters !
 Normal termination of Gaussian 16 at Tue Dec 26 21:30:05 2023.
