 Gaussian 16, Revision A.03,
 Gaussian 16:  ES64L-G16RevA.03 25-Dec-2016

 --------------------------------------
 #P UB3LYP/6-311++G(d,p) nosym opt freq
 --------------------------------------

 --------
 Oxidized
 --------
 Symbolic Z-matrix:
 Charge =  0 Multiplicity = 1

 SCF Done:  E(UB3LYP) =  -685.721361586     A.U. after   16 cycles
 SCF Done:  E(UB3LYP) =  -685.753839820     A.U. after   14 cycles
 SCF Done:  E(UB3LYP) =  -685.771412035     A.U. after   15 cycles
 SCF Done:  E(UB3LYP) =  -685.775656971     A.U. after   14 cycles
 SCF Done:  E(UB3LYP) =  -685.775864348     A.U. after   13 cycles
 SCF Done:  E(UB3LYP) =  -685.775925092     A.U. after   12 cycles
 SCF Done:  E(UB3LYP) =  -685.775937463     A.U. after   11 cycles
 SCF Done:  E(UB3LYP) =  -685.775938585     A.U. after   10 cycles
 SCF Done:  E(UB3LYP) =  -685.775938859     A.U. after    9 cycles
 SCF Done:  E(UB3LYP) =  -685.775938949     A.U. after    8 cycles
 Optimization completed.
    -- Stationary point found.
 Normal termination of Gaussian 16 at Thu Dec 28 19:59:27 2023.

 ----------------------------------------------------------------------
 #P Geom=AllCheck Guess=TCheck SCRF=Check GenChk UB3LYP/6-311++G(d,p) F
 req
 ----------------------------------------------------------------------

 Structure from the checkpoint file:  "310.chk"
 --------
 Oxidized
 --------
 Charge =  0 Multiplicity = 1

                          Input orientation:
 ---------------------------------------------------------------------
 Center     Atomic      Atomic             Coordinates (Angstroms)
 Number     Number       Type             X           Y           Z
 ---------------------------------------------------------------------
      1          8           0       -2.227363   -2.039693    0.204059
      2          6           0       -1.650802   -0.838340    0.099562
      3          6           0       -2.495656    0.296198    0.030550
      4          6           0       -1.970021    1.558796   -0.077492
      5          6           0       -0.568946    1.760392   -0.122799
      6          8           0       -0.122655    3.015832   -0.228522
      7          6           0        0.286864    0.650476   -0.055970
      8          6           0        1.733675    0.844557   -0.101742
      9          8           0        2.246625    1.971641   -0.198898
     10          6           0        2.592356   -0.352166   -0.028492
     11          6           0        2.078016   -1.587777    0.077224
     12          6           0        0.623044   -1.823439    0.126496
     13          8           0        0.184666   -2.981490    0.224546
     14          6           0       -0.259449   -0.661840    0.056331
     15          1           0       -1.501152   -2.710497    0.240132
     16          1           0       -3.566489    0.135962    0.065654
     17          1           0       -2.611377    2.430249   -0.130656
     18          1           0        0.865598    2.974199   -0.246330
     19          1           0        3.660712   -0.170408   -0.065295
     20          1           0        2.702351   -2.472651    0.131644
 ---------------------------------------------------------------------

 SCF Done:  E(UB3LYP) =  -685.775938949     A.U. after    1 cycles

 Alpha  occ. eigenvalues --  -19.17204 -19.17202 -19.14683 -19.14682 -10.29471
 Alpha  occ. eigenvalues --  -10.29470 -10.27785 -10.27784 -10.22618 -10.22538
 Alpha  occ. eigenvalues --  -10.21774 -10.21730 -10.21626 -10.21562  -1.10066
 Alpha  occ. eigenvalues --   -1.09897  -1.06814  -1.06673  -0.89945  -0.85511
 Alpha  occ. eigenvalues --   -0.79791  -0.77773  -0.71958  -0.67904  -0.66661
 Alpha  occ. eigenvalues --   -0.63215  -0.56557  -0.55661  -0.55655  -0.54552
 Alpha  occ. eigenvalues --   -0.51694  -0.48413  -0.47819  -0.47364  -0.45244
 Alpha  occ. eigenvalues --   -0.44937  -0.44916  -0.44246  -0.43020  -0.42471
 Alpha  occ. eigenvalues --   -0.41014  -0.39819  -0.39069  -0.34224  -0.32117
 Alpha  occ. eigenvalues --   -0.30353  -0.29938  -0.28988  -0.24286
 Alpha virt. eigenvalues --   -0.14103  -0.05456  -0.05167  -0.00933  -0.00221
 Alpha virt. eigenvalues --    0.01111   0.01137   0.02129   0.02797   0.04148
 Alpha virt. eigenvalues --    0.04173   0.04509   0.04608   0.05825   0.06465

  Beta  occ. eigenvalues --  -19.17204 -19.17202 -19.14683 -19.14682 -10.29471
  Beta  occ. eigenvalues --  -10.29470 -10.27785 -10.27784 -10.22618 -10.22538
  Beta  occ. eigenvalues --  -10.21774 -10.21730 -10.21626 -10.21562  -1.10066
  Beta  occ. eigenvalues --   -1.09897  -1.06814  -1.06673  -0.89945  -0.85511
  Beta  occ. eigenvalues --   -0.79791  -0.77773  -0.71958  -0.67904  -0.66661
  Beta  occ. eigenvalues --   -0.63215  -0.56557  -0.55661  -0.55655  -0.54552
  Beta  occ. eigenvalues --   -0.51694  -0.48413  -0.47819  -0.47364  -0.45244
  Beta  occ. eigenvalues --   -0.44937  -0.44916  -0.44246  -0.43020  -0.42471
  Beta  occ. eigenvalues --   -0.41014  -0.39819  -0.39069  -0.34224  -0.32117
  Beta  occ. eigenvalues --   -0.30353  -0.29938  -0.28988  -0.24286
  Beta virt. eigenvalues --   -0.14103  -0.05456  -0.05167  -0.00933  -0.00221
  Beta virt. eigenvalues --    0.01111   0.01137   0.02129   0.02797   0.04148
  Beta virt. eigenvalues --    0.04173   0.04509   0.04608   0.05825   0.06465

 Mulliken charges and spin densities:
               1          2
     1  O   -0.279684   0.000000
     2  C   -0.278995  -0.000000
     3  C    0.121233  -0.000000
     4  C    0.121280  -0.000000
     5  C   -0.278838   0.000000
     6  O   -0.279715  -0.000000
     7  C    0.441804   0.000000
     8  C   -0.396286  -0.000000
     9  O   -0.310929   0.000000
    10  C   -0.066501   0.000000
    11  C   -0.066314   0.000000
    12  C   -0.396074   0.000000
    13  O   -0.310940  -0.000000
    14  C    0.441776   0.000000
    15  H    0.336362  -0.000000
    16  H    0.212492   0.000000
    17  H    0.212494   0.000000
    18  H    0.336401   0.000000
    19  H    0.220216   0.000000
    20  H    0.220217   0.000000
 Sum of Mulliken charges =   0.00000  -0.00000

 Dipole moment (field-independent basis, Debye):
    X=              0.1656    Y=             -0.0693    Z=              0.0017  Tot=              0.1796
 Quadrupole moment (field-independent basis, Debye-Ang):
   XX=            -72.9556   YY=            -92.2271   ZZ=            -80.7712
   XY=             -9.6904   XZ=              0.5770   YZ=              1.0907

  Exact polarizability: 177.128  -3.933 169.064  -2.135  -8.045  63.668
 Approx polarizability: 322.186   1.517 324.713  -4.876 -17.320 100.584

                      1                      2                      3
                      A                      A                      A
 Frequencies --    101.6712               111.2189               172.2072
 Red. masses --      5.3392                11.6081                 7.5790
 Frc consts  --      0.0325                 0.0846                 0.1324
 IR Inten    --      6.4244                 0.0000                 0.0042

                      4                      5                      6
                      A                      A                      A
 Frequencies --    180.0131               287.4482               292.3694
 Red. masses --      7.1863                 4.5886                 7.0856
 Frc consts  --      0.1372                 0.2234                 0.3569
 IR Inten    --      0.2079                 0.0000                 4.7803

                      7                      8                      9
                      A                      A                      A
 Frequencies --    356.6776               367.9709               407.1895
 Red. masses --      6.4830                 5.6331                10.2861
 Frc consts  --      0.4859                 0.4494                 1.0048
 IR Inten    --      0.0467                 0.0000                 0.5380

                     10                     11                     12
                      A                      A                      A
 Frequencies --    427.0564               446.7657               461.4809
 Red. masses --     10.2119                 6.1104                11.0405
 Frc consts  --      1.0973                 0.7186                 1.3853
 IR Inten    --      0.0607                 0.0001                42.2471

                     13                     14                     15
                      A                      A                      A
 Frequencies --    469.2162               501.8634               541.5287
 Red. masses --      9.2466                 5.0247                 3.0531
 Frc consts  --      1.1994                 0.7456                 0.5275
 IR Inten    --      1.6432                 9.2405                 0.7586

                     16                     17                     18
                      A                      A                      A
 Frequencies --    622.1239               639.7541               644.7575
 Red. masses --      7.8856                 2.2981                 4.0881
 Frc consts  --      1.7982                 0.5542                 1.0013
 IR Inten    --     14.2613                20.9504                15.1329

                     19                     20                     21
                      A                      A                      A
 Frequencies --    667.3640               736.4881               738.4938
 Red. masses --      7.1265                 9.2366                 7.1556
 Frc consts  --      1.8701                 2.9518                 2.2993
 IR Inten    --      0.0000                 0.0000                 4.5515

                     22                     23                     24
                      A                      A                      A
 Frequencies --    772.2723               815.8049               817.6716
 Red. masses --      6.0748                 1.1424                 1.0658
 Frc consts  --      2.1346                 0.4480                 0.4198
 IR Inten    --      3.6237               207.1122                 1.4207

                     25                     26                     27
                      A                      A                      A
 Frequencies --    856.6536               869.7448               957.8907
 Red. masses --      1.4728                 2.0935                 7.0483
 Frc consts  --      0.6368                 0.9331                 3.8104
 IR Inten    --      0.0030                54.4220                16.9683

                     28                     29                     30
                      A                      A                      A
 Frequencies --    961.2661               979.8627              1013.5966
 Red. masses --      6.4527                 1.2796                 1.2502
 Frc consts  --      3.5130                 0.7239                 0.7567
 IR Inten    --      0.8075                 0.0000                 0.0000

                     31                     32                     33
                      A                      A                      A
 Frequencies --   1110.5310              1113.5444              1162.2696
 Red. masses --      3.0582                 1.4625                 1.2044
 Frc consts  --      2.2222                 1.0685                 0.9586
 IR Inten    --      3.8364                37.5890                98.4581

                     34                     35                     36
                      A                      A                      A
 Frequencies --   1249.7004              1257.6618              1307.9293
 Red. masses --      2.1193                 1.9172                 7.9878
 Frc consts  --      1.9501                 1.7867                 8.0509
 IR Inten    --     97.0891               256.8416                64.7145

                     37                     38                     39
                      A                      A                      A
 Frequencies --   1344.7569              1376.5384              1384.1019
 Red. masses --      2.7081                 2.7981                 1.5784
 Frc consts  --      2.8854                 3.1238                 1.7816
 IR Inten    --      5.7744               172.8635               131.0954

                     40                     41                     42
                      A                      A                      A
 Frequencies --   1417.9783              1434.0747              1488.5585
 Red. masses --      3.5452                 8.4877                 2.7740
 Frc consts  --      4.1998                10.2845                 3.6215
 IR Inten    --     73.1564                35.1049               257.9525

                     43                     44                     45
                      A                      A                      A
 Frequencies --   1504.6307              1607.5909              1623.1899
 Red. masses --      3.1393                 3.8416                 3.3651
 Frc consts  --      4.1874                 5.8494                 5.2238
 IR Inten    --      0.8926               201.7299                 0.5619

                     46                     47                     48
                      A                      A                      A
 Frequencies --   1640.8391              1657.1026              1698.8752
 Red. masses --      7.0494                 9.3123                 7.4829
 Frc consts  --     11.1824                15.0663                12.7246
 IR Inten    --      2.6622               560.2785                 4.5143

                     49                     50                     51
                      A                      A                      A
 Frequencies --   3178.6625              3189.3577              3195.3902
 Red. masses --      1.0875                 1.0882                 1.0985
 Frc consts  --      6.4738                 6.5221                 6.6083
 IR Inten    --      0.3357                 0.9929                 3.2583

                     52                     53                     54
                      A                      A                      A
 Frequencies --   3202.9629              3308.5790              3313.7035
 Red. masses --      1.0960                 1.0689                 1.0678
 Frc consts  --      6.6247                 6.8939                 6.9082
 IR Inten    --      1.1972               163.0230                39.1326

 - Thermochemistry -
 -------------------
 Temperature   298.150 Kelvin.  Pressure   1.00000 Atm.
 Atom     1 has atomic number  8 and mass  15.99491

 Molecular mass:   190.02661 amu.
 Principal axes and moments of inertia in atomic units:
                           1         2         3
     Eigenvalues --  1861.613512253.513164115.12666
           X            0.38326   0.92340   0.02129
           Y            0.92028  -0.38372   0.07640
           Z           -0.07872   0.00969   0.99685
 This molecule is an asymmetric top.
 Rotational symmetry number  1.
 Warning -- assumption of classical behavior for rotation
           may cause significant error
 Rotational temperatures (Kelvin)      0.04653     0.03844     0.02105
 Rotational constants (GHZ):           0.96945     0.80086     0.43856
 Zero-point vibrational energy     370764.3 (Joules/Mol)
                                   88.61480 (Kcal/Mol)
 Warning -- explicit consideration of  15 degrees of freedom as
           vibrations may cause significant error
 Vibrational temperatures:    146.28   160.02   247.77   259.00   413.57
          (Kelvin)            420.65   513.18   529.43   585.85   614.44
                              642.80   663.97   675.10   722.07   779.14
                              895.10   920.46   927.66   960.19  1059.64
                             1062.53  1111.13  1173.76  1176.45  1232.53
                             1251.37  1378.19  1383.05  1409.80  1458.34
                             1597.81  1602.14  1672.25  1798.04  1809.49
                             1881.82  1934.81  1980.53  1991.41  2040.15
                             2063.31  2141.70  2164.83  2312.96  2335.41
                             2360.80  2384.20  2444.30  4573.39  4588.77
                             4597.45  4608.35  4760.31  4767.68

 Zero-point correction=                           0.141217 (Hartree/Particle)
 Thermal correction to Energy=                    0.151461
 Thermal correction to Enthalpy=                  0.152405
 Thermal correction to Gibbs Free Energy=         0.105565
 Sum of electronic and zero-point Energies=           -685.634722
 Sum of electronic and thermal Energies=              -685.624478
 Sum of electronic and thermal Enthalpies=            -685.623534
 Sum of electronic and thermal Free Energies=         -685.670374

                     E (Thermal)             CV                S
                      KCal/Mol        Cal/Mol-Kelvin    Cal/Mol-Kelvin
 Total                   95.043             41.496             98.583
 Electronic               0.000              0.000              0.000
 Translational            0.889              2.981             41.632
 Rotational               0.889              2.981             31.224
 Vibrational             93.266             35.534             25.727
 Vibration     1          0.604              1.948              3.422
 Vibration     2          0.607              1.940              3.248
 Vibration     3          0.626              1.877              2.411
 Vibration     4          0.629              1.867              2.328
 Vibration     5          0.685              1.697              1.489
 Vibration     6          0.688              1.688              1.460
 Vibration     7          0.732              1.562              1.137
 Vibration     8          0.741              1.538              1.088
 Vibration     9          0.772              1.455              0.937
 Vibration    10          0.789              1.411              0.868
 Vibration    11          0.806              1.368              0.806
 Vibration    12          0.819              1.335              0.762
 Vibration    13          0.826              1.318              0.740
 Vibration    14          0.857              1.246              0.653
 Vibration    15          0.897              1.158              0.562

 Optimization completed.
    -- Stationary point found.
 Normal termination of Gaussian 16 at Thu Dec 28 20:09:59 2023.
