 Q-Chem 5.4, Q-Chem, Inc., Pleasanton, CA (2021)
 Q-Chem 5.4.0 for Intel X86 EM64T Linux

User input:
--------------------------------------------------------------
$molecule
0 1
C                 -1.8111720000      0.1118710000      1.4126850000
C                 -2.8847660000      0.9471410000      0.7601280000
C                 -2.9063380000      0.7906930000     -0.5781560000
C                 -1.8142770000      0.0550290000     -1.3177410000
C                 -0.4501980000     -0.0435930000     -0.6808720000
C                 -0.5217410000     -0.1233360000      0.6624320000
O                 -2.0408460000     -0.4556610000     -2.3927070000
O                 -1.9783760000     -0.3759210000      2.5089530000
Cl                 0.7689080000     -0.6010160000      1.7340130000
Cl                -4.1910950000      1.2832340000     -1.6501200000
C                  0.7666900000     -0.1977630000     -1.6154120000
C                  0.5792330000      0.6782810000     -2.8827350000
C                  2.0852330000      0.2768890000     -0.9605740000
C                  0.9040650000     -1.6836900000     -2.0248710000
C                 -3.8657170000      1.6994350000      1.6819890000
C                 -3.1123590000      2.2582400000      2.9184040000
C                 -4.5154960000      2.9211720000      0.9906980000
C                 -4.9738790000      0.7234190000      2.1443950000
H                 -0.2561460000      0.3548460000     -3.4982840000
H                  1.4884740000      0.6178850000     -3.4853070000
H                  0.4319240000      1.7297590000     -2.6158370000
H                  1.9795260000      1.2656020000     -0.5060030000
H                  2.8461070000      0.3507150000     -1.7414980000
H                  2.4565430000     -0.4093940000     -0.2043650000
H                  1.0617000000     -2.3183520000     -1.1489900000
H                  1.7681130000     -1.8002550000     -2.6860540000
H                  0.0161070000     -2.0305200000     -2.5543620000
H                 -2.7137850000      1.4749190000      3.5578850000
H                 -3.8092000000      2.8572490000      3.5092330000
H                 -2.2908860000      2.9151860000      2.6148720000
H                 -3.7705530000      3.5540020000      0.5008570000
H                 -5.0096280000      3.5233770000      1.7571180000
H                 -5.2664160000      2.6450860000      0.2554530000
H                 -4.5535320000     -0.1162570000      2.6987840000
H                 -5.5354490000      0.3355860000      1.2905570000
H                 -5.6748680000      1.2522430000      2.7972980000
$end
$rem
MAX_SCF_CYCLES=200
BASIS  =  6-311++G(d,p)
GUI  =  2
JOB_TYPE  =  SP
METHOD  =  B3LYP
SOLVENT_METHOD = COSMO
$end
$solvent
dielectric 37.219
opticaldielectric 1.43
$end

--------------------------------------------------------------

             Standard Nuclear Orientation (Angstroms)
    I     Atom           X                Y                Z
 ----------------------------------------------------------------
    1      C      -0.5713393182    -1.2402520114    -0.4169559366
    2      C      -1.4943981727    -0.1145112435    -0.0210004305
    3      C      -0.9073032545     1.0917849197    -0.1479433945
    4      C       0.5713424731     1.2402207498    -0.4169384453
    5      C       1.4943645916     0.1145156790    -0.0208851624
    6      C       0.9073050365    -1.0917917784    -0.1478748484
    7      O       0.9978383699     2.2390253270    -0.9537627699
    8      O      -0.9978331878    -2.2391245977    -0.9536665441
    9      Cl      1.7186417440    -2.6357827802    -0.1399126681
   10      Cl     -1.7185864147     2.6358248084    -0.1399147518
   11      C       2.9600372817     0.4700422961     0.3006023100
   12      C       3.0248480990     1.8153689026     1.0717032651
   13      C       3.6412325957    -0.5771235601     1.2127862738
   14      C       3.7528220008     0.5894374795    -1.0229326506
   15      C      -2.9600602553    -0.4700924660     0.3006134432
   16      C      -3.0247203422    -1.8150659236     1.0722343527
   17      C      -3.6413569813     0.5775223143     1.2122467773
   18      C      -3.7529016115    -0.5900926916    -1.0228109366
   19      H       2.6837770030     2.6585290092     0.4766231138
   20      H       4.0617834148     2.0012189288     1.3609865288
   21      H       2.4309674201     1.7712420779     1.9903430373
   22      H       3.0265527891    -0.8168667725     2.0845970835
   23      H       4.5805378077    -0.1528645385     1.5760104707
   24      H       3.8775674559    -1.5031415627     0.6957330690
   25      H       3.7417238178    -0.3552416894    -1.5727237672
   26      H       4.7949616177     0.8387513770    -0.8013093117
   27      H       3.3398614324     1.3715872868    -1.6607621150
   28      H      -2.6840591625    -2.6584634168     0.4772388897
   29      H      -4.0615644016    -2.0006443708     1.3620499923
   30      H      -2.4304202797    -1.7708134952     1.9905898231
   31      H      -3.0266169798     0.8180904795     2.0837855177
   32      H      -4.5805164346     0.1533308768     1.5759197862
   33      H      -3.8779348701     1.5031116972     0.6945550422
   34      H      -3.3395027544    -1.3720672716    -1.6605504523
   35      H      -3.7424799857     0.3545785843    -1.5726310901
   36      H      -4.7948528005    -0.8400335124    -0.8010226717
 ----------------------------------------------------------------

    9   -1615.3713526713      3.55e-06  Convergence criterion met
 Total energy in the final basis set =    -1615.3713526713
    4   -1615.3810732606      7.93e-06  Convergence criterion met
 Total energy in the final basis set =    -1615.3810732606

                    Orbital Energies (a.u.)
 --------------------------------------------------------------

 Alpha MOs
 -- Occupied --
********-101.5740 -19.1513 -19.1513 -10.3047 -10.3047 -10.2698 -10.2698
-10.2321 -10.2321 -10.2118 -10.2118 -10.1624 -10.1624 -10.1593 -10.1593
-10.1589 -10.1589  -9.4889  -9.4889  -7.2536  -7.2536  -7.2441  -7.2441
 -7.2429  -7.2429  -1.0916  -1.0891  -0.9155  -0.9016  -0.8480  -0.8367
 -0.8115  -0.7612  -0.6989  -0.6925  -0.6922  -0.6889  -0.6879  -0.6481
 -0.6007  -0.5751  -0.5609  -0.5469  -0.4989  -0.4950  -0.4863  -0.4752
 -0.4588  -0.4541  -0.4526  -0.4474  -0.4427  -0.4369  -0.4326  -0.4218
 -0.4041  -0.3973  -0.3874  -0.3821  -0.3756  -0.3753  -0.3717  -0.3690
 -0.3617  -0.3617  -0.3480  -0.3467  -0.3445  -0.3410  -0.3260  -0.3202
 -0.2977  -0.2962  -0.2841  -0.2711

          Ground-State Mulliken Net Atomic Charges

     Atom                 Charge (a.u.)
  ----------------------------------------
      1 C                    -1.307818
      2 C                     1.154715
      3 C                    -0.237699
      4 C                    -1.308129
      5 C                     1.154844
      6 C                    -0.237430
      7 O                    -0.175785
      8 O                    -0.175760
      9 Cl                    0.571526
     10 Cl                    0.571710
     11 C                     0.537307
     12 C                    -0.711690
     13 C                    -0.658730
     14 C                    -0.709188
     15 C                     0.537271
     16 C                    -0.711688
     17 C                    -0.658499
     18 C                    -0.709299
     19 H                     0.170996
     20 H                     0.172037
     21 H                     0.163014
     22 H                     0.174680
     23 H                     0.160210
     24 H                     0.145843
     25 H                     0.156476
     26 H                     0.185433
     27 H                     0.208460
     28 H                     0.170999
     29 H                     0.172040
     30 H                     0.163018
     31 H                     0.174658
     32 H                     0.160201
     33 H                     0.145859
     34 H                     0.208512
     35 H                     0.156466
     36 H                     0.185442
  ----------------------------------------
  Sum of atomic charges =     0.000000

                    Cartesian Multipole Moments
 -----------------------------------------------------------------
    Charge (ESU x 10^10)
                -0.0000
    Dipole Moment (Debye)
         X       0.0000      Y       0.0000      Z       2.9950
       Tot       2.9950
    Quadrupole Moments (Debye-Ang)
        XX    -108.9925     XY      -1.4227     YY    -139.3523
        XZ      -0.0012     YZ      -0.0001     ZZ    -124.7622

 Total job time:  178.47s(wall), 661.59s(cpu)
        *  Thank you very much for using Q-Chem.  Have a nice day.  *
