 Q-Chem 5.4, Q-Chem, Inc., Pleasanton, CA (2021)
 Q-Chem 5.4.0 for Intel X86 EM64T Linux

User input:
--------------------------------------------------------------
$molecule
0 1
O                 -1.3295580000     -2.3931260000      1.1733910000
C                 -1.1989660000     -1.3348140000      0.5923270000
C                 -2.4009190000     -0.6263000000      0.0290160000
O                 -2.2626680000     -0.1876570000     -1.3254660000
C                 -2.3031410000      0.8145980000     -0.3057950000
C                 -1.0040000000      1.5380000000     -0.0753530000
O                 -0.9805710000      2.7510080000     -0.0225550000
C                  0.2176830000      0.6943990000      0.0741950000
C                  1.4745640000      1.2916720000     -0.0536450000
C                  2.6278320000      0.5335100000      0.1123890000
C                  2.5356610000     -0.8247660000      0.4277790000
C                  1.2902740000     -1.4240780000      0.5770130000
C                  0.1247130000     -0.6756300000      0.3923940000
H                 -3.3614900000     -1.0607440000      0.2891020000
H                 -3.1918630000      1.4383450000     -0.2914230000
H                  1.5260990000      2.3496280000     -0.2802650000
H                  3.6004560000      0.9990370000      0.0019590000
H                  3.4368380000     -1.4120040000      0.5617140000
H                  1.1990570000     -2.4710770000      0.8392160000
$end
$rem
MAX_SCF_CYCLES=200
BASIS  =  6-311++G(d,p)
GUI  =  2
JOB_TYPE  =  SP
METHOD  =  B3LYP
SOLVENT_METHOD = COSMO
$end
$solvent
dielectric 37.219
opticaldielectric 1.43
$end

--------------------------------------------------------------

             Standard Nuclear Orientation (Angstroms)
    I     Atom           X                Y                Z
 ----------------------------------------------------------------
    1      O      -0.8200868570    -2.6463819481     0.5772491076
    2      C      -0.8015952068    -1.4779247106     0.2469769850
    3      C      -2.0891486351    -0.7413437765    -0.0053265658
    4      O      -2.1303463761     0.0000464131    -1.2279409129
    5      C      -2.0891466236     0.7411696252    -0.0052712675
    6      C      -0.8015890784     1.4778947360     0.2469448816
    7      O      -0.8202442868     2.6464616331     0.5768362955
    8      C       0.4617404521     0.7047805711     0.0657555069
    9      C       1.6698089892     1.3970584057    -0.0531972557
   10      C       2.8638283043     0.6987479271    -0.1913433299
   11      C       2.8638002888    -0.6987068898    -0.1916108444
   12      C       1.6697582022    -1.3970407611    -0.0536697722
   13      C       0.4617202522    -0.7047844143     0.0655631523
   14      H      -2.9939948076    -1.2856923310     0.2476971838
   15      H      -2.9939302835     1.2855385716     0.2479532306
   16      H       1.6519956287     2.4798947752    -0.0324256512
   17      H       3.7971801970     1.2402979161    -0.2937419224
   18      H       3.7971127272    -1.2402695389    -0.2942988558
   19      H       1.6519950290    -2.4798824541    -0.0332688484
 ----------------------------------------------------------------

    9    -610.4688406366      2.49e-06  Convergence criterion met
 Total energy in the final basis set =     -610.4688406366
    5    -610.4851410327      3.32e-06  Convergence criterion met
 Total energy in the final basis set =     -610.4851410327

                    Orbital Energies (a.u.)
 --------------------------------------------------------------

 Alpha MOs
 -- Occupied --
-19.1821 -19.1467 -19.1467 -10.2938 -10.2937 -10.2616 -10.2613 -10.2155
-10.2150 -10.2013 -10.2012 -10.2003 -10.1998  -1.1256  -1.0802  -1.0787
 -0.8924  -0.8063  -0.7841  -0.7373  -0.7257  -0.6569  -0.6507  -0.6000
 -0.5574  -0.5509  -0.5356  -0.5027  -0.4870  -0.4727  -0.4612  -0.4571
 -0.4547  -0.4467  -0.4433  -0.4106  -0.3878  -0.3837  -0.3756  -0.3552
 -0.3331  -0.2916  -0.2889  -0.2830  -0.2815

          Ground-State Mulliken Net Atomic Charges

     Atom                 Charge (a.u.)
  ----------------------------------------
      1 O                    -0.307374
      2 C                    -0.026861
      3 C                    -0.183853
      4 O                    -0.115793
      5 C                    -0.184085
      6 C                    -0.026802
      7 O                    -0.307055
      8 C                    -0.092273
      9 C                     0.223377
     10 C                    -0.289734
     11 C                    -0.289208
     12 C                     0.222409
     13 C                    -0.095563
     14 H                     0.292461
     15 H                     0.292485
     16 H                     0.213179
     17 H                     0.230631
     18 H                     0.230641
     19 H                     0.213417
  ----------------------------------------
  Sum of atomic charges =     0.000000

                    Cartesian Multipole Moments
 -----------------------------------------------------------------
    Charge (ESU x 10^10)
                 0.0000
    Dipole Moment (Debye)
         X       2.6593      Y       0.0014      Z       0.1449
       Tot       2.6632
    Quadrupole Moments (Debye-Ang)
        XX     -54.8922     XY       0.0005     YY     -88.5562
        XZ      -4.5749     YZ       0.0059     ZZ     -79.0069

 Total job time:  26.54s(wall), 192.52s(cpu)
        *  Thank you very much for using Q-Chem.  Have a nice day.  *
