 Gaussian 16, Revision A.03,
 Gaussian 16:  ES64L-G16RevA.03 25-Dec-2016

 --------------------------------------
 #P UB3LYP/6-311++G(d,p) nosym opt freq
 --------------------------------------

 -------
 Reduced
 -------
 Symbolic Z-matrix:
 Charge = -2 Multiplicity = 1

 SCF Done:  E(UB3LYP) =  -994.845715573     A.U. after   75 cycles
 SCF Done:  E(UB3LYP) =  -994.866093891     A.U. after   31 cycles
 SCF Done:  E(UB3LYP) =  -994.870403759     A.U. after   24 cycles
 SCF Done:  E(UB3LYP) =  -994.870738510     A.U. after   18 cycles
 SCF Done:  E(UB3LYP) =  -994.870778030     A.U. after   17 cycles
 SCF Done:  E(UB3LYP) =  -994.870774204     A.U. after   19 cycles
 SCF Done:  E(UB3LYP) =  -994.870787741     A.U. after   18 cycles
 SCF Done:  E(UB3LYP) =  -994.870790084     A.U. after   18 cycles
 Optimization completed.
    -- Stationary point found.
 Normal termination of Gaussian 16 at Tue Dec 26 20:32:18 2023.

 ----------------------------------------------------------------------
 #P Geom=AllCheck Guess=TCheck SCRF=Check GenChk UB3LYP/6-311++G(d,p) F
 req
 ----------------------------------------------------------------------

 Structure from the checkpoint file:  "229-an.chk"
 -------
 Reduced
 -------
 Charge = -2 Multiplicity = 1

                          Input orientation:
 ---------------------------------------------------------------------
 Center     Atomic      Atomic             Coordinates (Angstroms)
 Number     Number       Type             X           Y           Z
 ---------------------------------------------------------------------
      1          6           0        5.761414   -5.123054    1.239450
      2          6           0        6.775189   -5.042074    0.301389
      3          6           0        6.686020   -4.090344   -0.747295
      4          6           0        4.621750   -4.284208    1.197289
      5          6           0        4.531443   -3.313528    0.126966
      6          6           0        5.583786   -3.256140   -0.815247
      7          6           0        3.600653   -4.445191    2.237010
      8          6           0        2.542473   -3.530858    2.036970
      9          6           0        2.422136   -2.574625    1.008196
     10          6           0        3.396190   -2.402467   -0.004619
     11          8           0        3.700359   -5.315771    3.180118
     12          8           0        3.308491   -1.531504   -0.958421
     13          1           0        5.797767   -5.839790    2.054740
     14          1           0        7.637310   -5.705246    0.367194
     15          1           0        5.479682   -2.514994   -1.602929
     16         17           0        1.173633   -3.583757    3.236136
     17          1           0        7.478645   -4.018057   -1.491370
     18          1           0        1.545849   -1.934213    0.980363
 ---------------------------------------------------------------------

 SCF Done:  E(UB3LYP) =  -994.870790084     A.U. after    2 cycles

 Alpha  occ. eigenvalues -- -101.27447 -18.75613 -18.75533  -9.92819  -9.92344
 Alpha  occ. eigenvalues --   -9.91939  -9.91786  -9.91718  -9.90701  -9.90691
 Alpha  occ. eigenvalues --   -9.89453  -9.89149  -9.87476  -9.18856  -6.95216
 Alpha  occ. eigenvalues --   -6.94416  -6.94363  -0.67489  -0.66739  -0.58385
 Alpha  occ. eigenvalues --   -0.57481  -0.50879  -0.48154  -0.45046  -0.39408
 Alpha  occ. eigenvalues --   -0.34367  -0.32950  -0.28218  -0.23496  -0.22691
 Alpha  occ. eigenvalues --   -0.18708  -0.17545  -0.15888  -0.13991  -0.13300
 Alpha  occ. eigenvalues --   -0.12559  -0.10182  -0.09702  -0.08913  -0.07533
 Alpha  occ. eigenvalues --   -0.06070  -0.05861  -0.04715  -0.03884   0.01474
 Alpha  occ. eigenvalues --    0.02952   0.04066   0.06275   0.06615   0.14199
 Alpha virt. eigenvalues --    0.16684   0.18466   0.20678   0.21386   0.22257
 Alpha virt. eigenvalues --    0.23153   0.23499   0.24558   0.26370   0.27218
 Alpha virt. eigenvalues --    0.28145   0.28238   0.28480   0.29103   0.29338

  Beta  occ. eigenvalues -- -101.27447 -18.75613 -18.75533  -9.92819  -9.92344
  Beta  occ. eigenvalues --   -9.91939  -9.91786  -9.91718  -9.90701  -9.90691
  Beta  occ. eigenvalues --   -9.89453  -9.89149  -9.87476  -9.18856  -6.95216
  Beta  occ. eigenvalues --   -6.94416  -6.94363  -0.67489  -0.66739  -0.58385
  Beta  occ. eigenvalues --   -0.57481  -0.50879  -0.48154  -0.45046  -0.39408
  Beta  occ. eigenvalues --   -0.34367  -0.32950  -0.28218  -0.23496  -0.22691
  Beta  occ. eigenvalues --   -0.18708  -0.17545  -0.15888  -0.13991  -0.13300
  Beta  occ. eigenvalues --   -0.12559  -0.10182  -0.09702  -0.08913  -0.07533
  Beta  occ. eigenvalues --   -0.06070  -0.05861  -0.04715  -0.03884   0.01474
  Beta  occ. eigenvalues --    0.02952   0.04066   0.06275   0.06615   0.14199
  Beta virt. eigenvalues --    0.16684   0.18466   0.20678   0.21386   0.22257
  Beta virt. eigenvalues --    0.23153   0.23499   0.24558   0.26370   0.27218
  Beta virt. eigenvalues --    0.28145   0.28238   0.28480   0.29103   0.29338

 Mulliken charges and spin densities:
               1          2
     1  C   -0.120173   0.000000
     2  C   -0.367449   0.000000
     3  C   -0.376622  -0.000000
     4  C    0.349410   0.000000
     5  C    0.440695  -0.000000
     6  C   -0.039988  -0.000000
     7  C   -1.520357  -0.000000
     8  C    1.508308   0.000000
     9  C   -0.019614  -0.000000
    10  C   -1.378894   0.000000
    11  O   -0.508304   0.000000
    12  O   -0.565679  -0.000000
    13  H    0.121995  -0.000000
    14  H    0.072045   0.000000
    15  H    0.119012   0.000000
    16  Cl   0.136939  -0.000000
    17  H    0.069206  -0.000000
    18  H    0.079470  -0.000000
 Sum of Mulliken charges =  -2.00000   0.00000

 Dipole moment (field-independent basis, Debye):
    X=            -34.8589    Y=             34.2090    Z=            -11.2344  Tot=             50.1160
 Quadrupole moment (field-independent basis, Debye-Ang):
   XX=           -243.9174   YY=           -240.2932   ZZ=           -143.6097
   XY=            131.3616   XZ=            -29.5120   YZ=             63.3122

  Exact polarizability: 237.223 -44.072 160.090 -57.391 -27.592 185.799
 Approx polarizability: 381.412 -84.548 260.999 -93.507 -61.981 299.689

                      1                      2                      3
                      A                      A                      A
 Frequencies --     70.8952               133.5848               162.4698
 Red. masses --     10.2704                 4.3612                10.1133
 Frc consts  --      0.0304                 0.0459                 0.1573
 IR Inten    --      6.2790                 0.4993                 4.9373

                      4                      5                      6
                      A                      A                      A
 Frequencies --    200.9235               229.1763               273.3131
 Red. masses --     11.7020                 5.0145                 7.4644
 Frc consts  --      0.2783                 0.1552                 0.3285
 IR Inten    --      3.6404                 0.0021                 3.1837

                      7                      8                      9
                      A                      A                      A
 Frequencies --    309.7073               352.2305               352.8554
 Red. masses --     20.3231                10.1452                 9.1947
 Frc consts  --      1.1485                 0.7416                 0.6745
 IR Inten    --      5.2793                 0.4144                 0.7274

                     10                     11                     12
                      A                      A                      A
 Frequencies --    432.7038               467.5376               486.9708
 Red. masses --      3.2844                10.1072                 4.3068
 Frc consts  --      0.3623                 1.3017                 0.6017
 IR Inten    --      3.0256                 2.8899                 0.9645

                     13                     14                     15
                      A                      A                      A
 Frequencies --    502.1138               594.5944               613.0008
 Red. masses --      8.8046                 7.3585                 2.7782
 Frc consts  --      1.3079                 1.5328                 0.6151
 IR Inten    --     11.6867                 3.2848                 0.0267

                     16                     17                     18
                      A                      A                      A
 Frequencies --    654.0487               666.9524               718.9824
 Red. masses --      6.1428                 2.6946                 6.2476
 Frc consts  --      1.5482                 0.7062                 1.9028
 IR Inten    --      1.4666                21.4226                 8.9279

                     19                     20                     21
                      A                      A                      A
 Frequencies --    724.4764               747.2460               783.5690
 Red. masses --      1.5422                 2.3438                 9.4717
 Frc consts  --      0.4769                 0.7711                 3.4263
 IR Inten    --     67.3910                 1.7963               224.9301

                     22                     23                     24
                      A                      A                      A
 Frequencies --    792.2594               801.7787               833.5089
 Red. masses --      1.6508                 2.6533                 5.0471
 Frc consts  --      0.6105                 1.0050                 2.0659
 IR Inten    --     16.2518                 4.8495                 2.3620

                     25                     26                     27
                      A                      A                      A
 Frequencies --    943.1410               949.9475              1013.5991
 Red. masses --      1.2087                 1.3514                 2.4081
 Frc consts  --      0.6335                 0.7185                 1.4577
 IR Inten    --      0.1642                 4.6468                48.2380

                     28                     29                     30
                      A                      A                      A
 Frequencies --   1057.7506              1083.8747              1111.2188
 Red. masses --      3.2498                 2.5972                 1.6525
 Frc consts  --      2.1423                 1.7977                 1.2023
 IR Inten    --     15.2302                32.5783               148.1196

                     31                     32                     33
                      A                      A                      A
 Frequencies --   1139.7009              1193.7040              1216.6686
 Red. masses --      1.8079                 2.2095                 1.8348
 Frc consts  --      1.3836                 1.8550                 1.6002
 IR Inten    --      2.8815               119.7293               151.6394

                     34                     35                     36
                      A                      A                      A
 Frequencies --   1259.5053              1326.8374              1362.6497
 Red. masses --      1.9210                 8.2096                 5.7883
 Frc consts  --      1.7955                 8.5155                 6.3324
 IR Inten    --     46.9786               153.4831               146.3288

                     37                     38                     39
                      A                      A                      A
 Frequencies --   1374.0292              1419.0779              1448.6615
 Red. masses --      5.7151                 2.5873                 3.4987
 Frc consts  --      6.3572                 3.0698                 4.3260
 IR Inten    --    247.4256               443.7983                 7.9724

                     40                     41                     42
                      A                      A                      A
 Frequencies --   1496.5344              1508.4770              1581.9706
 Red. masses --      3.9187                 5.6755                 5.4055
 Frc consts  --      5.1708                 7.6091                 7.9705
 IR Inten    --     97.3588               567.8931                 8.7976

                     43                     44                     45
                      A                      A                      A
 Frequencies --   1590.2548              3079.6202              3104.8227
 Red. masses --      8.4473                 1.0821                 1.0905
 Frc consts  --     12.5863                 6.0466                 6.1938
 IR Inten    --      0.5655                42.4868               130.9497

                     46                     47                     48
                      A                      A                      A
 Frequencies --   3146.1627              3148.3783              3153.0433
 Red. masses --      1.0883                 1.0899                 1.0907
 Frc consts  --      6.3468                 6.3654                 6.3886
 IR Inten    --     41.4330                42.7881                39.1370

 - Thermochemistry -
 -------------------
 Temperature   298.150 Kelvin.  Pressure   1.00000 Atm.
 Atom     1 has atomic number  6 and mass  12.00000

 Molecular mass:   191.99781 amu.
 Principal axes and moments of inertia in atomic units:
                           1         2         3
     Eigenvalues --  1482.152153231.163344713.31541
           X            0.79922  -0.37038   0.47336
           Y           -0.05575   0.73849   0.67195
           Z           -0.59845  -0.56343   0.56957
 This molecule is an asymmetric top.
 Rotational symmetry number  1.
 Warning -- assumption of classical behavior for rotation
           may cause significant error
 Rotational temperatures (Kelvin)      0.05844     0.02681     0.01838
 Rotational constants (GHZ):           1.21765     0.55854     0.38290
 Zero-point vibrational energy     308723.4 (Joules/Mol)
                                   73.78667 (Kcal/Mol)
 Warning -- explicit consideration of  15 degrees of freedom as
           vibrations may cause significant error
 Vibrational temperatures:    102.00   192.20   233.76   289.08   329.73
          (Kelvin)            393.24   445.60   506.78   507.68   622.56
                              672.68   700.64   722.43   855.49   881.97
                              941.03   959.60  1034.46  1042.36  1075.12
                             1127.38  1139.88  1153.58  1199.23  1356.97
                             1366.76  1458.34  1521.87  1559.45  1598.80
                             1639.78  1717.47  1750.51  1812.15  1909.02
                             1960.55  1976.92  2041.74  2084.30  2153.18
                             2170.36  2276.10  2288.02  4430.89  4467.15
                             4526.63  4529.81  4536.53

 Zero-point correction=                           0.117587 (Hartree/Particle)
 Thermal correction to Energy=                    0.127664
 Thermal correction to Enthalpy=                  0.128608
 Thermal correction to Gibbs Free Energy=         0.081591
 Sum of electronic and zero-point Energies=           -994.753204
 Sum of electronic and thermal Energies=              -994.743126
 Sum of electronic and thermal Enthalpies=            -994.742182
 Sum of electronic and thermal Free Energies=         -994.789199

                     E (Thermal)             CV                S
                      KCal/Mol        Cal/Mol-Kelvin    Cal/Mol-Kelvin
 Total                   80.110             39.666             98.956
 Electronic               0.000              0.000              0.000
 Translational            0.889              2.981             41.662
 Rotational               0.889              2.981             31.490
 Vibrational             78.333             33.704             25.804
 Vibration     1          0.598              1.968              4.128
 Vibration     2          0.613              1.920              2.894
 Vibration     3          0.623              1.888              2.521
 Vibration     4          0.638              1.839              2.125
 Vibration     5          0.652              1.796              1.885
 Vibration     6          0.676              1.723              1.575
 Vibration     7          0.699              1.655              1.364
 Vibration     8          0.729              1.571              1.156
 Vibration     9          0.729              1.569              1.153
 Vibration    10          0.794              1.399              0.850
 Vibration    11          0.825              1.322              0.744
 Vibration    12          0.843              1.279              0.692
 Vibration    13          0.857              1.245              0.653
 Vibration    14          0.952              1.043              0.459
 Vibration    15          0.972              1.004              0.428

 Optimization completed.
    -- Stationary point found.
 Normal termination of Gaussian 16 at Tue Dec 26 20:45:29 2023.
