 Q-Chem 5.4, Q-Chem, Inc., Pleasanton, CA (2021)
 Q-Chem 5.4.0 for Intel X86 EM64T Linux

User input:
--------------------------------------------------------------
$molecule
-1 2
C                 -2.7481820000     -1.6291090000      0.0446460000
O                 -2.2479190000     -0.6505660000     -0.8705430000
C                 -1.2057720000      0.1164790000     -0.4214510000
C                 -1.3432270000      1.4794800000     -0.3322090000
Br                -3.0341910000      2.2914930000     -0.7437920000
C                 -0.2716220000      2.3881410000      0.0615440000
O                 -0.4120570000      3.6226960000      0.1363030000
C                  0.9814470000      1.7021090000      0.3587320000
C                  1.1535930000      0.3422440000      0.2834350000
O                  2.3469080000     -0.2202210000      0.6518800000
C                  3.0409400000     -0.9451080000     -0.3670950000
C                  0.0611300000     -0.5376440000     -0.1153210000
O                  0.2034690000     -1.7885110000     -0.1909650000
Br                 2.4532800000      2.8169740000      0.8866660000
H                 -3.1430640000     -1.1407490000      0.9441460000
H                 -3.5643480000     -2.1337400000     -0.4753900000
H                 -1.9696270000     -2.3447830000      0.3118160000
H                  3.9565750000     -1.3125340000      0.0996380000
H                  2.4388880000     -1.7798790000     -0.7282380000
H                  3.3037810000     -0.2767710000     -1.1963830000
$end
$rem
MAX_SCF_CYCLES=200
BASIS  =  6-311++G(d,p)
GUI  =  2
JOB_TYPE  =  SP
METHOD  =  B3LYP
SOLVENT_METHOD = PCM
$end
$pcm
theory = CPCM
$end
$solvent
dielectric 37.219
opticaldielectric 1.43
$end

--------------------------------------------------------------

             Standard Nuclear Orientation (Angstroms)
    I     Atom           X                Y                Z
 ----------------------------------------------------------------
    1      C      -2.7481820000    -1.6291090000     0.0446460000
    2      O      -2.2479190000    -0.6505660000    -0.8705430000
    3      C      -1.2057720000     0.1164790000    -0.4214510000
    4      C      -1.3432270000     1.4794800000    -0.3322090000
    5      Br     -3.0341910000     2.2914930000    -0.7437920000
    6      C      -0.2716220000     2.3881410000     0.0615440000
    7      O      -0.4120570000     3.6226960000     0.1363030000
    8      C       0.9814470000     1.7021090000     0.3587320000
    9      C       1.1535930000     0.3422440000     0.2834350000
   10      O       2.3469080000    -0.2202210000     0.6518800000
   11      C       3.0409400000    -0.9451080000    -0.3670950000
   12      C       0.0611300000    -0.5376440000    -0.1153210000
   13      O       0.2034690000    -1.7885110000    -0.1909650000
   14      Br      2.4532800000     2.8169740000     0.8866660000
   15      H      -3.1430640000    -1.1407490000     0.9441460000
   16      H      -3.5643480000    -2.1337400000    -0.4753900000
   17      H      -1.9696270000    -2.3447830000     0.3118160000
   18      H       3.9565750000    -1.3125340000     0.0996380000
   19      H       2.4388880000    -1.7798790000    -0.7282380000
   20      H       3.3037810000    -0.2767710000    -1.1963830000
 ----------------------------------------------------------------

    9   -5757.9158789781      5.93e-06  Convergence criterion met
 Total energy in the final basis set =    -5757.9158789781

                    Orbital Energies (a.u.)
 --------------------------------------------------------------

 Alpha MOs
 -- Occupied --
********-482.8293 -62.4821 -62.4821 -56.3026 -56.3025 -56.2989 -56.2988
-56.2985 -56.2985 -19.1494 -19.1494 -19.0954 -19.0943 -10.2521 -10.2414
-10.2413 -10.2409 -10.2251 -10.2251 -10.2093 -10.2093  -8.6908  -8.6907
 -6.5221  -6.5220  -6.5097  -6.5097  -6.5088  -6.5087  -2.6330  -2.6329
 -2.6296  -2.6296  -2.6290  -2.6289  -2.6191  -2.6190  -2.6190  -2.6189
 -1.0709  -1.0642  -1.0267  -1.0116  -0.8565  -0.8215  -0.7793  -0.7420
 -0.7154  -0.6757  -0.6720  -0.5902  -0.5846  -0.5323  -0.5184  -0.4891
 -0.4756  -0.4620  -0.4577  -0.4413  -0.4319  -0.4317  -0.4201  -0.3963
 -0.3916  -0.3871  -0.3643  -0.3570  -0.3313  -0.3202  -0.3061  -0.3058
 -0.2893  -0.2868  -0.2739  -0.2608  -0.2491  -0.2372  -0.1764

 Beta MOs
 -- Occupied --
********-482.8293 -62.4821 -62.4821 -56.3026 -56.3025 -56.2988 -56.2988
-56.2985 -56.2985 -19.1492 -19.1492 -19.0883 -19.0882 -10.2508 -10.2402
-10.2401 -10.2392 -10.2241 -10.2241 -10.2092 -10.2092  -8.6908  -8.6907
 -6.5221  -6.5221  -6.5096  -6.5096  -6.5088  -6.5087  -2.6330  -2.6329
 -2.6296  -2.6295  -2.6290  -2.6289  -2.6190  -2.6189  -2.6189  -2.6189
 -1.0690  -1.0635  -1.0164  -0.9997  -0.8518  -0.8204  -0.7768  -0.7407
 -0.7118  -0.6709  -0.6681  -0.5869  -0.5809  -0.5303  -0.5167  -0.4881
 -0.4698  -0.4599  -0.4541  -0.4400  -0.4295  -0.4250  -0.4064  -0.3926
 -0.3864  -0.3676  -0.3629  -0.3513  -0.3290  -0.3078  -0.3050  -0.3017
 -0.2889  -0.2856  -0.2566  -0.2528  -0.2438  -0.2318

          Ground-State Mulliken Net Atomic Charges

     Atom                 Charge (a.u.)    Spin (a.u.)
  --------------------------------------------------------
      1 C                    -0.302391       0.002693
      2 O                    -0.177752       0.001245
      3 C                    -0.447165       0.086331
      4 C                     1.183027       0.071620
      5 Br                   -0.076112       0.005456
      6 C                    -0.940905       0.080628
      7 O                    -0.386561       0.217538
      8 C                     1.161266       0.071741
      9 C                    -0.428379       0.086212
     10 O                    -0.179386       0.001211
     11 C                    -0.302535       0.002616
     12 C                    -0.563243       0.102594
     13 O                    -0.457205       0.263827
     14 Br                   -0.074248       0.005443
     15 H                     0.144879       0.000262
     16 H                     0.173508       0.000523
     17 H                     0.177329      -0.000375
     18 H                     0.173238       0.000510
     19 H                     0.177527      -0.000359
     20 H                     0.145108       0.000283
  --------------------------------------------------------
  Sum of atomic charges =    -1.000000

                    Cartesian Multipole Moments
 -----------------------------------------------------------------
    Charge (ESU x 10^10)
                -4.8032
    Dipole Moment (Debye)
         X       0.9883      Y      -8.6651      Z      -0.1239
       Tot       8.7221
    Quadrupole Moments (Debye-Ang)
        XX    -113.2592     XY       5.2648     YY    -153.1433
        XZ     -10.1679     YZ      -2.9049     ZZ    -112.7460

 Total job time:  40.07s(wall), 262.70s(cpu)
        *  Thank you very much for using Q-Chem.  Have a nice day.  *
