 Q-Chem 5.4, Q-Chem, Inc., Pleasanton, CA (2021)
 Q-Chem 5.4.0 for Intel X86 EM64T Linux

User input:
--------------------------------------------------------------
$molecule
-2 1
C                  0.7618750000      1.1392240000     -1.5261720000
C                 -0.6188910000      0.8924820000     -1.7927520000
C                 -1.4399340000      0.1490510000     -0.9406800000
C                 -1.0156930000     -0.4366440000      0.3144920000
C                  0.3665990000     -0.1954150000      0.5778550000
C                  1.1934740000      0.5276460000     -0.2860120000
O                  1.5112290000      1.8386680000     -2.2949240000
O                 -1.7807770000     -1.0805680000      1.1156720000
S                  2.9052100000      0.6965800000      0.2004580000
C                  3.2057020000      2.4819060000      0.4130600000
C                  3.3782930000      3.3080910000     -0.7004820000
C                  3.2819690000      2.9923630000      1.7087610000
C                  3.5426130000      4.3486280000      1.8991760000
C                  3.6345250000      4.6642480000     -0.4954890000
C                  3.7213830000      5.1872760000      0.7958440000
O                  3.8441360000      0.2295290000     -0.8388790000
O                  3.0767310000      0.1243670000      1.5606950000
H                  3.2461700000      2.8791160000     -1.6865400000
H                  3.1430220000      2.3174180000      2.5445460000
H                  3.7573020000      5.3178460000     -1.3540040000
H                  3.6042470000      4.7500280000      2.9064990000
H                  3.9190980000      6.2454300000      0.9433800000
S                 -3.1339570000     -0.0810250000     -1.4633190000
C                 -4.1773500000      0.7054270000     -0.1919240000
C                 -4.7641880000      1.9366110000     -0.4836660000
C                 -4.3990860000      0.0713890000      1.0333350000
C                 -5.2270730000      0.6924020000      1.9690570000
C                 -5.5929330000      2.5437670000      0.4587970000
C                 -5.8273170000      1.9208630000      1.6874680000
H                 -1.0293610000      1.3090730000     -2.7041110000
H                  0.7739440000     -0.6013300000      1.4954190000
H                 -4.5673710000      2.3936190000     -1.4458610000
H                 -3.8701300000     -0.8516030000      1.2393620000
H                 -5.3954610000      0.2148350000      2.9297350000
H                 -6.0531270000      3.5017990000      0.2351210000
H                 -6.4686300000      2.3961260000      2.4246280000
O                 -3.5281820000     -1.5029290000     -1.5149370000
O                 -3.3712500000      0.7222730000     -2.6902970000
$end

$rem
BASIS  =  6-311++G(d,p)
GUI  =  2
JOB_TYPE  =  SP
METHOD  =  B3LYP
SCF_CONVERGENCE  = 8
SOLVENT_METHOD = sm12
$end

$smx
solvent dimethylformamide
charges CM5
$end

--------------------------------------------------------------

             Standard Nuclear Orientation (Angstroms)
    I     Atom           X                Y                Z
 ----------------------------------------------------------------
    1      C       0.7618750000     1.1392240000    -1.5261720000
    2      C      -0.6188910000     0.8924820000    -1.7927520000
    3      C      -1.4399340000     0.1490510000    -0.9406800000
    4      C      -1.0156930000    -0.4366440000     0.3144920000
    5      C       0.3665990000    -0.1954150000     0.5778550000
    6      C       1.1934740000     0.5276460000    -0.2860120000
    7      O       1.5112290000     1.8386680000    -2.2949240000
    8      O      -1.7807770000    -1.0805680000     1.1156720000
    9      S       2.9052100000     0.6965800000     0.2004580000
   10      C       3.2057020000     2.4819060000     0.4130600000
   11      C       3.3782930000     3.3080910000    -0.7004820000
   12      C       3.2819690000     2.9923630000     1.7087610000
   13      C       3.5426130000     4.3486280000     1.8991760000
   14      C       3.6345250000     4.6642480000    -0.4954890000
   15      C       3.7213830000     5.1872760000     0.7958440000
   16      O       3.8441360000     0.2295290000    -0.8388790000
   17      O       3.0767310000     0.1243670000     1.5606950000
   18      H       3.2461700000     2.8791160000    -1.6865400000
   19      H       3.1430220000     2.3174180000     2.5445460000
   20      H       3.7573020000     5.3178460000    -1.3540040000
   21      H       3.6042470000     4.7500280000     2.9064990000
   22      H       3.9190980000     6.2454300000     0.9433800000
   23      S      -3.1339570000    -0.0810250000    -1.4633190000
   24      C      -4.1773500000     0.7054270000    -0.1919240000
   25      C      -4.7641880000     1.9366110000    -0.4836660000
   26      C      -4.3990860000     0.0713890000     1.0333350000
   27      C      -5.2270730000     0.6924020000     1.9690570000
   28      C      -5.5929330000     2.5437670000     0.4587970000
   29      C      -5.8273170000     1.9208630000     1.6874680000
   30      H      -1.0293610000     1.3090730000    -2.7041110000
   31      H       0.7739440000    -0.6013300000     1.4954190000
   32      H      -4.5673710000     2.3936190000    -1.4458610000
   33      H      -3.8701300000    -0.8516030000     1.2393620000
   34      H      -5.3954610000     0.2148350000     2.9297350000
   35      H      -6.0531270000     3.5017990000     0.2351210000
   36      H      -6.4686300000     2.3961260000     2.4246280000
   37      O      -3.5281820000    -1.5029290000    -1.5149370000
   38      O      -3.3712500000     0.7222730000    -2.6902970000
 ----------------------------------------------------------------

   15   -1941.1063343849      9.02e-09  Convergence criterion met
 Total energy in the final basis set =    -1941.3690380058

                    Orbital Energies (a.u.)
 --------------------------------------------------------------

 Alpha MOs
 -- Occupied --
-89.0352 -89.0352 -19.1001 -19.1001 -19.0998 -19.0998 -19.0298 -19.0298
-10.2077 -10.2076 -10.2030 -10.2029 -10.1927 -10.1926 -10.1917 -10.1916
-10.1902 -10.1901 -10.1880 -10.1878 -10.1846 -10.1844 -10.1800 -10.1800
-10.1542 -10.1542  -8.0988  -8.0987  -6.0617  -6.0617  -6.0607  -6.0606
 -6.0595  -6.0595  -1.0893  -1.0893  -0.9839  -0.9838  -0.9541  -0.9508
 -0.8730  -0.8729  -0.8184  -0.7817  -0.7742  -0.7619  -0.7615  -0.7554
 -0.6913  -0.6892  -0.6470  -0.6222  -0.6208  -0.6164  -0.5885  -0.5808
 -0.5590  -0.5366  -0.5242  -0.4914  -0.4795  -0.4779  -0.4739  -0.4692
 -0.4675  -0.4628  -0.4541  -0.4520  -0.4374  -0.4373  -0.4357  -0.4308
 -0.4213  -0.3945  -0.3880  -0.3872  -0.3827  -0.3802  -0.3730  -0.3719
 -0.3628  -0.3541  -0.3436  -0.3355  -0.3244  -0.3219  -0.3087  -0.3077
 -0.2941  -0.2914  -0.2873  -0.2870  -0.2730  -0.2723  -0.2688  -0.2686
 -0.2492  -0.2451  -0.2093  -0.2076  -0.1404

          Ground-State Mulliken Net Atomic Charges

     Atom                 Charge (a.u.)
  ----------------------------------------
      1 C                    -1.215019
      2 C                    -0.788920
      3 C                    -0.147562
      4 C                    -1.209774
      5 C                    -0.784566
      6 C                    -0.150708
      7 O                    -0.330925
      8 O                    -0.331361
      9 S                     0.226115
     10 C                    -2.217662
     11 C                    -1.844222
     12 C                     0.292355
     13 C                     1.145889
     14 C                     0.640900
     15 C                     1.767398
     16 O                    -0.062642
     17 O                    -0.144315
     18 H                     0.107876
     19 H                     0.255151
     20 H                     0.340106
     21 H                     0.397483
     22 H                     0.463072
     23 S                     0.238485
     24 C                    -2.225749
     25 C                     0.296596
     26 C                    -1.851764
     27 C                     0.641881
     28 C                     1.153663
     29 C                     1.768885
     30 H                     0.107474
     31 H                     0.107120
     32 H                     0.256109
     33 H                     0.107551
     34 H                     0.339970
     35 H                     0.397887
     36 H                     0.463131
     37 O                    -0.063937
     38 O                    -0.145971
  ----------------------------------------
  Sum of atomic charges =    -2.000000

                    Cartesian Multipole Moments
 -----------------------------------------------------------------
    Charge (ESU x 10^10)
                -9.6064
    Dipole Moment (Debye)
         X      -0.1414      Y       1.3227      Z       8.5285
       Tot       8.6316
    Quadrupole Moments (Debye-Ang)
        XX    -254.0463     XY     -17.8414     YY    -180.6024
        XZ     -12.6545     YZ      13.8024     ZZ    -206.4676

 Total job time:  1495.88s(wall), 11529.48s(cpu)
        *  Thank you very much for using Q-Chem.  Have a nice day.  *
