 Q-Chem 5.4, Q-Chem, Inc., Pleasanton, CA (2021)
 Q-Chem 5.4.0 for Intel X86 EM64T Linux

User input:
--------------------------------------------------------------
$molecule
-1 2
C                  0.1450910000      3.7150200000     -0.1566110000
C                 -0.9276120000      3.6428140000     -1.0257770000
C                 -0.9479630000      2.6660880000     -2.0419720000
C                  1.2300780000      2.8189330000     -0.2705590000
C                  1.2114860000      1.8314290000     -1.2970910000
C                  0.1090360000      1.7791860000     -2.1678170000
C                  2.3527240000      2.8951760000      0.6401260000
C                  3.4151980000      1.9358800000      0.4438480000
C                  3.4259840000      0.9639220000     -0.5341730000
C                  2.3210970000      0.8688270000     -1.4636780000
O                  2.4712730000      3.7362030000      1.5909090000
O                  2.2961090000      0.0035090000     -2.3779080000
H                  0.1835160000      4.4572750000      0.6327560000
H                 -1.7555930000      4.3388920000     -0.9264390000
H                 -1.7909700000      2.6100880000     -2.7242690000
H                  0.1203110000      1.0186400000     -2.9403990000
O                  4.4393960000      2.0695670000      1.3361750000
H                  4.1305600000      2.8230130000      1.8867290000
C                  4.5753620000     -0.0010790000     -0.6772090000
C                  5.5964040000      0.4464990000     -1.7431860000
C                  6.7155240000     -0.5707600000     -2.0413340000
C                  7.5147440000     -0.1319210000     -3.2847680000
C                  8.5059020000     -1.1661230000     -3.8367000000
C                  9.1966880000     -0.7001090000     -5.1251950000
C                 10.1256370000     -1.7323360000     -5.7925200000
C                 10.5884730000     -1.2342790000     -7.1694020000
C                  7.6278900000     -0.7935580000     -0.8248090000
C                 11.3363070000     -2.0890210000     -4.9174780000
H                  4.1696110000     -0.9726050000     -0.9793060000
H                  5.0669780000     -0.1178260000      0.2916630000
H                  6.0453900000      1.3997190000     -1.4344410000
H                  5.0437130000      0.6395620000     -2.6677230000
H                  6.2303260000     -1.5280740000     -2.2827740000
H                  8.0528980000      0.7979040000     -3.0519060000
H                  6.8008430000      0.1227050000     -4.0775670000
H                  7.9694880000     -2.1037910000     -4.0366910000
H                  9.2594640000     -1.3989480000     -3.0779780000
H                  9.7723630000      0.2137010000     -4.9201540000
H                  8.4240000000     -0.4120500000     -5.8491670000
H                  9.5417360000     -2.6503210000     -5.9483880000
H                  9.7365720000     -1.0199360000     -7.8217550000
H                 11.2187080000     -1.9755090000     -7.6716440000
H                 11.1729150000     -0.3120040000     -7.0734280000
H                  8.3925070000     -1.5525590000     -1.0165730000
H                  7.0557930000     -1.1197760000      0.0463670000
H                  8.1385260000      0.1378070000     -0.5525980000
H                 11.0361220000     -2.5166740000     -3.9581420000
H                 11.9401940000     -1.1976610000     -4.7108720000
H                 11.9815130000     -2.8183500000     -5.4180630000
$end
$rem
MAX_SCF_CYCLES=200
BASIS  =  6-311++G(d,p)
GUI  =  2
JOB_TYPE  =  SP
METHOD  =  B3LYP
SCF_CONVERGENCE = 8
THRESH = 14
SCF_ALGORITHM = RCA_DIIS
scf_guess = GWH
SOLVENT_METHOD = PCM
$end
$pcm
theory = CPCM
$end
$solvent
dielectric 37.219
opticaldielectric 1.43
$end

--------------------------------------------------------------

             Standard Nuclear Orientation (Angstroms)
    I     Atom           X                Y                Z
 ----------------------------------------------------------------
    1      C       0.1450910000     3.7150200000    -0.1566110000
    2      C      -0.9276120000     3.6428140000    -1.0257770000
    3      C      -0.9479630000     2.6660880000    -2.0419720000
    4      C       1.2300780000     2.8189330000    -0.2705590000
    5      C       1.2114860000     1.8314290000    -1.2970910000
    6      C       0.1090360000     1.7791860000    -2.1678170000
    7      C       2.3527240000     2.8951760000     0.6401260000
    8      C       3.4151980000     1.9358800000     0.4438480000
    9      C       3.4259840000     0.9639220000    -0.5341730000
   10      C       2.3210970000     0.8688270000    -1.4636780000
   11      O       2.4712730000     3.7362030000     1.5909090000
   12      O       2.2961090000     0.0035090000    -2.3779080000
   13      H       0.1835160000     4.4572750000     0.6327560000
   14      H      -1.7555930000     4.3388920000    -0.9264390000
   15      H      -1.7909700000     2.6100880000    -2.7242690000
   16      H       0.1203110000     1.0186400000    -2.9403990000
   17      O       4.4393960000     2.0695670000     1.3361750000
   18      H       4.1305600000     2.8230130000     1.8867290000
   19      C       4.5753620000    -0.0010790000    -0.6772090000
   20      C       5.5964040000     0.4464990000    -1.7431860000
   21      C       6.7155240000    -0.5707600000    -2.0413340000
   22      C       7.5147440000    -0.1319210000    -3.2847680000
   23      C       8.5059020000    -1.1661230000    -3.8367000000
   24      C       9.1966880000    -0.7001090000    -5.1251950000
   25      C      10.1256370000    -1.7323360000    -5.7925200000
   26      C      10.5884730000    -1.2342790000    -7.1694020000
   27      C       7.6278900000    -0.7935580000    -0.8248090000
   28      C      11.3363070000    -2.0890210000    -4.9174780000
   29      H       4.1696110000    -0.9726050000    -0.9793060000
   30      H       5.0669780000    -0.1178260000     0.2916630000
   31      H       6.0453900000     1.3997190000    -1.4344410000
   32      H       5.0437130000     0.6395620000    -2.6677230000
   33      H       6.2303260000    -1.5280740000    -2.2827740000
   34      H       8.0528980000     0.7979040000    -3.0519060000
   35      H       6.8008430000     0.1227050000    -4.0775670000
   36      H       7.9694880000    -2.1037910000    -4.0366910000
   37      H       9.2594640000    -1.3989480000    -3.0779780000
   38      H       9.7723630000     0.2137010000    -4.9201540000
   39      H       8.4240000000    -0.4120500000    -5.8491670000
   40      H       9.5417360000    -2.6503210000    -5.9483880000
   41      H       9.7365720000    -1.0199360000    -7.8217550000
   42      H      11.2187080000    -1.9755090000    -7.6716440000
   43      H      11.1729150000    -0.3120040000    -7.0734280000
   44      H       8.3925070000    -1.5525590000    -1.0165730000
   45      H       7.0557930000    -1.1197760000     0.0463670000
   46      H       8.1385260000     0.1378070000    -0.5525980000
   47      H      11.0361220000    -2.5166740000    -3.9581420000
   48      H      11.9401940000    -1.1976610000    -4.7108720000
   49      H      11.9815130000    -2.8183500000    -5.4180630000
 ----------------------------------------------------------------

   96   -1003.9182094092      7.39E-09 Convergence criterion met
 Total energy in the final basis set = -1003.91820941

                    Orbital Energies (a.u.)
 --------------------------------------------------------------

 Alpha MOs
 -- Occupied --
-19.1434 -19.0871 -19.0755 -10.2239 -10.2218 -10.2213 -10.1746 -10.1725
-10.1718 -10.1708 -10.1704 -10.1690 -10.1650 -10.1625 -10.1621 -10.1561
-10.1530 -10.1527 -10.1526 -10.1521 -10.1488 -10.1483 -10.1466  -1.0634
 -1.0011  -0.9970  -0.8584  -0.8177  -0.8077  -0.7944  -0.7612  -0.7507
 -0.7372  -0.7066  -0.6763  -0.6719  -0.6669  -0.6369  -0.6159  -0.5976
 -0.5758  -0.5680  -0.5539  -0.5454  -0.5366  -0.5042  -0.4842  -0.4715
 -0.4631  -0.4545  -0.4491  -0.4381  -0.4357  -0.4313  -0.4272  -0.4249
 -0.4179  -0.4128  -0.4084  -0.3959  -0.3896  -0.3837  -0.3819  -0.3772
 -0.3739  -0.3737  -0.3673  -0.3535  -0.3488  -0.3457  -0.3431  -0.3414
 -0.3376  -0.3334  -0.3230  -0.3153  -0.3120  -0.3107  -0.3048  -0.2948
 -0.2674  -0.2611  -0.2579  -0.2409  -0.2273  -0.1517

 Beta MOs
 -- Occupied --
-19.1429 -19.0809 -19.0703 -10.2225 -10.2205 -10.2187 -10.1745 -10.1717
-10.1714 -10.1700 -10.1699 -10.1692 -10.1650 -10.1621 -10.1617 -10.1562
-10.1530 -10.1526 -10.1526 -10.1521 -10.1488 -10.1483 -10.1466  -1.0612
 -0.9919  -0.9865  -0.8560  -0.8168  -0.8060  -0.7930  -0.7595  -0.7485
 -0.7366  -0.7050  -0.6763  -0.6689  -0.6620  -0.6355  -0.6141  -0.5958
 -0.5748  -0.5656  -0.5539  -0.5454  -0.5349  -0.5019  -0.4815  -0.4714
 -0.4618  -0.4535  -0.4487  -0.4360  -0.4322  -0.4303  -0.4250  -0.4203
 -0.4136  -0.4101  -0.4071  -0.3936  -0.3826  -0.3811  -0.3778  -0.3768
 -0.3730  -0.3726  -0.3580  -0.3530  -0.3469  -0.3428  -0.3392  -0.3366
 -0.3327  -0.3283  -0.3223  -0.3149  -0.3119  -0.3105  -0.3047  -0.2941
 -0.2557  -0.2508  -0.2481  -0.2360  -0.2187

          Ground-State Mulliken Net Atomic Charges

     Atom                 Charge (a.u.)    Spin (a.u.)
  --------------------------------------------------------
      1 C                    -0.039780       0.074240
      2 C                    -0.364447      -0.000646
      3 C                    -0.508312       0.072440
      4 C                     0.567365      -0.005655
      5 C                    -0.169363       0.061793
      6 C                     0.081167       0.006169
      7 C                    -0.989026       0.172753
      8 C                    -0.732582       0.055024
      9 C                     2.111554       0.050256
     10 C                    -0.736236       0.082380
     11 O                    -0.539841       0.225973
     12 O                    -0.473595       0.193899
     13 H                     0.172456      -0.004143
     14 H                     0.199799      -0.000657
     15 H                     0.194437      -0.005053
     16 H                     0.173539      -0.000438
     17 O                    -0.287074       0.016369
     18 H                     0.300866      -0.003647
     19 C                    -0.083382       0.009171
     20 C                    -1.103902      -0.003194
     21 C                     1.245429       0.005680
     22 C                    -0.713406      -0.006685
     23 C                    -0.017544       0.000044
     24 C                    -0.856888       0.000113
     25 C                     0.524345       0.000081
     26 C                    -0.682452       0.000012
     27 C                    -0.763560       0.000344
     28 C                    -0.707879      -0.000015
     29 H                     0.207402       0.002790
     30 H                     0.216348      -0.001085
     31 H                     0.177740       0.001996
     32 H                     0.170449      -0.000913
     33 H                     0.130445       0.000684
     34 H                     0.150084      -0.000040
     35 H                     0.111870      -0.000173
     36 H                     0.152058      -0.000011
     37 H                     0.102455       0.000061
     38 H                     0.145150      -0.000003
     39 H                     0.135381      -0.000016
     40 H                     0.142824       0.000002
     41 H                     0.140872      -0.000001
     42 H                     0.162890      -0.000003
     43 H                     0.144703      -0.000001
     44 H                     0.155418       0.000078
     45 H                     0.146233       0.000045
     46 H                     0.158176      -0.000017
     47 H                     0.147154       0.000003
     48 H                     0.150808      -0.000000
     49 H                     0.149853       0.000000
  --------------------------------------------------------
  Sum of atomic charges =    -1.000000

                    Cartesian Multipole Moments
 -----------------------------------------------------------------
    Charge (ESU x 10^10)
                -4.8032
    Dipole Moment (Debye)
         X     -12.4971      Y      -8.3575      Z       2.0191
       Tot      15.1692
    Quadrupole Moments (Debye-Ang)
        XX    -182.3674     XY     -23.4008     YY    -175.2009
        XZ       5.9016     YZ     -10.2297     ZZ    -166.0104

 Total job time:  3363.71s(wall), 21417.89s(cpu)
        *  Thank you very much for using Q-Chem.  Have a nice day.  *
