 Q-Chem 5.4, Q-Chem, Inc., Pleasanton, CA (2021)
 Q-Chem 5.4.0 for Intel X86 EM64T Linux

User input:
--------------------------------------------------------------
$molecule
-2 1
N                 -2.5686950000      0.4598060000      2.3423210000
C                 -2.4284760000      0.2531160000      0.9603930000
C                 -3.5537950000      0.1724620000      0.1494710000
C                 -3.4314200000     -0.1125730000     -1.2338450000
C                 -2.1909140000     -0.3236820000     -1.7872790000
C                 -1.0047550000     -0.2333660000     -1.0073700000
C                  0.2613710000     -0.4440510000     -1.6843200000
O                  0.3433620000     -0.7378830000     -2.9324640000
C                  1.4201210000     -0.2866350000     -0.8441640000
C                  2.7084620000     -0.4613630000     -1.4060470000
C                  3.8515430000     -0.3137170000     -0.6639340000
Cl                 5.4446180000     -0.5434650000     -1.4449900000
C                  3.7580440000      0.0303080000      0.7185920000
Cl                 5.2321040000      0.2181300000      1.7152240000
C                  2.5290910000      0.2098980000      1.2968420000
C                  1.3240550000      0.0626700000      0.5616330000
C                  0.0727710000      0.2674990000      1.2300460000
O                  0.0337640000      0.6116310000      2.4908980000
C                 -1.1035100000      0.0831950000      0.4075480000
H                 -1.6391370000      0.6798200000      2.7506570000
H                 -3.3182980000      1.0958270000      2.5790980000
H                 -4.5368590000      0.2910030000      0.6034810000
H                 -4.3279160000     -0.1757500000     -1.8491480000
H                 -2.0608010000     -0.5566310000     -2.8381930000
H                  2.7501900000     -0.7161310000     -2.4591840000
H                  2.4350810000      0.4698810000      2.3447320000
$end

$rem
BASIS  =  6-311++G(d,p)
GUI  =  2
JOB_TYPE  =  SP
METHOD  =  B3LYP
SCF_CONVERGENCE  = 8
SOLVENT_METHOD = sm12
$end

$smx
solvent dimethylformamide
charges CM5
$end

--------------------------------------------------------------

             Standard Nuclear Orientation (Angstroms)
    I     Atom           X                Y                Z
 ----------------------------------------------------------------
    1      N      -2.5686950000     0.4598060000     2.3423210000
    2      C      -2.4284760000     0.2531160000     0.9603930000
    3      C      -3.5537950000     0.1724620000     0.1494710000
    4      C      -3.4314200000    -0.1125730000    -1.2338450000
    5      C      -2.1909140000    -0.3236820000    -1.7872790000
    6      C      -1.0047550000    -0.2333660000    -1.0073700000
    7      C       0.2613710000    -0.4440510000    -1.6843200000
    8      O       0.3433620000    -0.7378830000    -2.9324640000
    9      C       1.4201210000    -0.2866350000    -0.8441640000
   10      C       2.7084620000    -0.4613630000    -1.4060470000
   11      C       3.8515430000    -0.3137170000    -0.6639340000
   12      Cl      5.4446180000    -0.5434650000    -1.4449900000
   13      C       3.7580440000     0.0303080000     0.7185920000
   14      Cl      5.2321040000     0.2181300000     1.7152240000
   15      C       2.5290910000     0.2098980000     1.2968420000
   16      C       1.3240550000     0.0626700000     0.5616330000
   17      C       0.0727710000     0.2674990000     1.2300460000
   18      O       0.0337640000     0.6116310000     2.4908980000
   19      C      -1.1035100000     0.0831950000     0.4075480000
   20      H      -1.6391370000     0.6798200000     2.7506570000
   21      H      -3.3182980000     1.0958270000     2.5790980000
   22      H      -4.5368590000     0.2910030000     0.6034810000
   23      H      -4.3279160000    -0.1757500000    -1.8491480000
   24      H      -2.0608010000    -0.5566310000    -2.8381930000
   25      H       2.7501900000    -0.7161310000    -2.4591840000
   26      H       2.4350810000     0.4698810000     2.3447320000
 ----------------------------------------------------------------

   18   -1663.5642553172      6.62e-09  Convergence criterion met
 Total energy in the final basis set =    -1663.8308450217

                    Orbital Energies (a.u.)
 --------------------------------------------------------------

 Alpha MOs
 -- Occupied --
********-101.5546 -19.0391 -19.0297 -14.2997 -10.2328 -10.2324 -10.2116
-10.1965 -10.1900 -10.1767 -10.1765 -10.1723 -10.1629 -10.1614 -10.1603
-10.1590 -10.1571 -10.1554  -9.4677  -9.4675  -7.2323  -7.2322  -7.2228
 -7.2226  -7.2223  -7.2221  -0.9567  -0.9475  -0.9020  -0.8986  -0.8483
 -0.8310  -0.8196  -0.7648  -0.7437  -0.7216  -0.7162  -0.6550  -0.6289
 -0.6107  -0.5846  -0.5477  -0.5318  -0.5152  -0.4880  -0.4720  -0.4638
 -0.4590  -0.4388  -0.4330  -0.4272  -0.4112  -0.4027  -0.3929  -0.3902
 -0.3835  -0.3724  -0.3580  -0.3512  -0.3444  -0.3433  -0.3349  -0.3277
 -0.3227  -0.3038  -0.3035  -0.2954  -0.2473  -0.2389  -0.2319  -0.2200
 -0.2088  -0.2037  -0.1219

          Ground-State Mulliken Net Atomic Charges

     Atom                 Charge (a.u.)
  ----------------------------------------
      1 N                    -0.209052
      2 C                    -0.587957
      3 C                     2.347718
      4 C                     1.137088
      5 C                    -0.929808
      6 C                    -1.812588
      7 C                    -2.974193
      8 O                    -0.346696
      9 C                    -2.730748
     10 C                    -0.245282
     11 C                     3.387842
     12 Cl                    1.300484
     13 C                     3.270553
     14 Cl                    1.302099
     15 C                     0.494081
     16 C                    -1.776330
     17 C                    -3.098457
     18 O                    -0.274559
     19 C                    -2.203986
     20 H                     0.276820
     21 H                     0.383065
     22 H                     0.312977
     23 H                     0.377795
     24 H                     0.066582
     25 H                     0.244452
     26 H                     0.288103
  ----------------------------------------
  Sum of atomic charges =    -2.000000

                    Cartesian Multipole Moments
 -----------------------------------------------------------------
    Charge (ESU x 10^10)
                -9.6064
    Dipole Moment (Debye)
         X      -4.1668      Y       1.8905      Z       2.8278
       Tot       5.3789
    Quadrupole Moments (Debye-Ang)
        XX    -194.8915     XY      -1.3661     YY    -138.4960
        XZ      -0.4841     YZ      -7.8454     ZZ    -182.0414

 Total job time:  726.48s(wall), 5467.55s(cpu)
        *  Thank you very much for using Q-Chem.  Have a nice day.  *
