 Gaussian 16, Revision A.03,
 Gaussian 16:  ES64L-G16RevA.03 25-Dec-2016

 --------------------------------------
 #P UB3LYP/6-311++G(d,p) nosym opt freq
 --------------------------------------

 -------
 Reduced
 -------
 Symbolic Z-matrix:
 Charge = -2 Multiplicity = 1

 SCF Done:  E(UB3LYP) =  -1663.57499016     A.U. after   24 cycles
 SCF Done:  E(UB3LYP) =  -1663.57499016     A.U. after   13 cycles
 SCF Done:  E(UB3LYP) =  -1663.57499030     A.U. after   12 cycles
 SCF Done:  E(UB3LYP) =  -1663.57499032     A.U. after   12 cycles
 Optimization completed.
    -- Stationary point found.
 Normal termination of Gaussian 16 at Wed Dec 27 21:16:11 2023.

 ----------------------------------------------------------------------
 #P Geom=AllCheck Guess=TCheck SCRF=Check GenChk UB3LYP/6-311++G(d,p) F
 req
 ----------------------------------------------------------------------

 Structure from the checkpoint file:  "158-an.chk"
 -------
 Reduced
 -------
 Charge = -2 Multiplicity = 1

                          Input orientation:
 ---------------------------------------------------------------------
 Center     Atomic      Atomic             Coordinates (Angstroms)
 Number     Number       Type             X           Y           Z
 ---------------------------------------------------------------------
      1          7           0       -2.568695    0.459806    2.342321
      2          6           0       -2.428476    0.253116    0.960393
      3          6           0       -3.553795    0.172462    0.149471
      4          6           0       -3.431420   -0.112573   -1.233845
      5          6           0       -2.190914   -0.323682   -1.787279
      6          6           0       -1.004755   -0.233366   -1.007370
      7          6           0        0.261371   -0.444051   -1.684320
      8          8           0        0.343362   -0.737883   -2.932464
      9          6           0        1.420121   -0.286635   -0.844164
     10          6           0        2.708462   -0.461363   -1.406047
     11          6           0        3.851543   -0.313717   -0.663934
     12         17           0        5.444618   -0.543465   -1.444990
     13          6           0        3.758044    0.030308    0.718592
     14         17           0        5.232104    0.218130    1.715224
     15          6           0        2.529091    0.209898    1.296842
     16          6           0        1.324055    0.062670    0.561633
     17          6           0        0.072771    0.267499    1.230046
     18          8           0        0.033764    0.611631    2.490898
     19          6           0       -1.103510    0.083195    0.407548
     20          1           0       -1.639137    0.679820    2.750657
     21          1           0       -3.318298    1.095827    2.579098
     22          1           0       -4.536859    0.291003    0.603481
     23          1           0       -4.327916   -0.175750   -1.849148
     24          1           0       -2.060801   -0.556631   -2.838193
     25          1           0        2.750190   -0.716131   -2.459184
     26          1           0        2.435081    0.469881    2.344732
 ---------------------------------------------------------------------

 SCF Done:  E(UB3LYP) =  -1663.57499032     A.U. after    2 cycles

 Alpha  occ. eigenvalues -- -101.34260-101.34226 -18.79464 -18.78382 -14.06297
 Alpha  occ. eigenvalues --  -10.00423 -10.00320  -9.96948  -9.95211  -9.94621
 Alpha  occ. eigenvalues --   -9.94241  -9.94204  -9.93164  -9.92238  -9.91921
 Alpha  occ. eigenvalues --   -9.91746  -9.91593  -9.91338  -9.91135  -9.25703
 Alpha  occ. eigenvalues --   -9.25668  -7.02113  -7.02078  -7.01215  -7.01192
 Alpha  occ. eigenvalues --   -7.01179  -7.01158  -0.71299  -0.70193  -0.67516
 Alpha  occ. eigenvalues --   -0.66290  -0.63349  -0.59576  -0.58324  -0.52614
 Alpha  occ. eigenvalues --   -0.50978  -0.48199  -0.47865  -0.41412  -0.39344
 Alpha  occ. eigenvalues --   -0.37248  -0.34682  -0.30752  -0.29722  -0.27941
 Alpha  occ. eigenvalues --   -0.25451  -0.23746  -0.23066  -0.22626  -0.20136
 Alpha  occ. eigenvalues --   -0.19669  -0.19344  -0.18292  -0.16215  -0.15967
 Alpha  occ. eigenvalues --   -0.15183  -0.14668  -0.13244  -0.12814  -0.11972
 Alpha  occ. eigenvalues --   -0.11642  -0.11204  -0.10638  -0.09542  -0.09404
 Alpha  occ. eigenvalues --   -0.08331  -0.07412  -0.05723  -0.01406   0.00387
 Alpha  occ. eigenvalues --    0.00693   0.02248   0.03379   0.03965   0.12157
 Alpha virt. eigenvalues --    0.15787   0.17174   0.17483   0.19127   0.19202
 Alpha virt. eigenvalues --    0.19413   0.20160   0.20914   0.21625   0.22155
 Alpha virt. eigenvalues --    0.23009   0.23393   0.24169   0.24820   0.25235

  Beta  occ. eigenvalues -- -101.34260-101.34226 -18.79464 -18.78382 -14.06297
  Beta  occ. eigenvalues --  -10.00423 -10.00320  -9.96948  -9.95211  -9.94621
  Beta  occ. eigenvalues --   -9.94241  -9.94204  -9.93164  -9.92238  -9.91921
  Beta  occ. eigenvalues --   -9.91746  -9.91593  -9.91338  -9.91135  -9.25703
  Beta  occ. eigenvalues --   -9.25668  -7.02113  -7.02078  -7.01215  -7.01192
  Beta  occ. eigenvalues --   -7.01179  -7.01158  -0.71299  -0.70193  -0.67516
  Beta  occ. eigenvalues --   -0.66290  -0.63349  -0.59576  -0.58324  -0.52614
  Beta  occ. eigenvalues --   -0.50978  -0.48199  -0.47865  -0.41412  -0.39344
  Beta  occ. eigenvalues --   -0.37248  -0.34682  -0.30752  -0.29722  -0.27941
  Beta  occ. eigenvalues --   -0.25451  -0.23746  -0.23066  -0.22626  -0.20136
  Beta  occ. eigenvalues --   -0.19669  -0.19344  -0.18292  -0.16215  -0.15967
  Beta  occ. eigenvalues --   -0.15183  -0.14668  -0.13244  -0.12814  -0.11972
  Beta  occ. eigenvalues --   -0.11642  -0.11204  -0.10638  -0.09542  -0.09404
  Beta  occ. eigenvalues --   -0.08331  -0.07412  -0.05723  -0.01406   0.00387
  Beta  occ. eigenvalues --    0.00693   0.02248   0.03379   0.03965   0.12157
  Beta virt. eigenvalues --    0.15787   0.17174   0.17483   0.19127   0.19202
  Beta virt. eigenvalues --    0.19413   0.20160   0.20914   0.21625   0.22155
  Beta virt. eigenvalues --    0.23009   0.23393   0.24169   0.24820   0.25235

 Mulliken charges and spin densities:
               1          2
     1  N   -0.400673   0.000000
     2  C   -0.023657  -0.000000
     3  C   -0.249349  -0.000000
     4  C   -0.471785  -0.000000
     5  C   -0.135773   0.000000
     6  C    0.690131   0.000000
     7  C   -0.888037   0.000000
     8  O   -0.500267  -0.000000
     9  C   -0.441736  -0.000000
    10  C   -0.631607  -0.000000
    11  C    0.592476  -0.000000
    12  Cl   0.440717   0.000000
    13  C    0.420748   0.000000
    14  Cl   0.443228  -0.000000
    15  C   -0.388137  -0.000000
    16  C   -0.275878   0.000000
    17  C   -1.105176  -0.000000
    18  O   -0.496993   0.000000
    19  C    0.327406   0.000000
    20  H    0.303047   0.000000
    21  H    0.176359  -0.000000
    22  H    0.052661   0.000000
    23  H    0.080571   0.000000
    24  H    0.124909  -0.000000
    25  H    0.174901   0.000000
    26  H    0.181913  -0.000000
 Sum of Mulliken charges =  -2.00000  -0.00000

 Dipole moment (field-independent basis, Debye):
    X=             -7.0813    Y=              1.6991    Z=              1.9058  Tot=              7.5276
 Quadrupole moment (field-independent basis, Debye-Ang):
   XX=           -217.4512   YY=           -137.8472   ZZ=           -182.6615
   XY=             -0.1167   XZ=              0.1777   YZ=             -8.3624

  Exact polarizability: 485.343 -16.800 137.661   5.115  33.076 266.297
 Approx polarizability: 779.834 -22.782 216.093  21.528  67.027 490.781

                      1                      2                      3
                      A                      A                      A
 Frequencies --     37.0111                44.5413                88.9888
 Red. masses --     16.4111                 8.5847                 5.7257
 Frc consts  --      0.0132                 0.0100                 0.0267
 IR Inten    --      0.3667                 3.3870                 1.0800

                      4                      5                      6
                      A                      A                      A
 Frequencies --    132.5678               138.4435               183.5206
 Red. masses --     12.5001                 9.8236                 5.3527
 Frc consts  --      0.1294                 0.1109                 0.1062
 IR Inten    --      5.7471                 2.1592                 3.2434

                      7                      8                      9
                      A                      A                      A
 Frequencies --    187.0504               201.1652               235.6376
 Red. masses --     29.0206                 6.7296                 4.6242
 Frc consts  --      0.5982                 0.1605                 0.1513
 IR Inten    --      0.8935                 0.2090                 5.9576

                     10                     11                     12
                      A                      A                      A
 Frequencies --    257.4531               277.7374               314.5294
 Red. masses --     10.6045                12.5755                 6.6914
 Frc consts  --      0.4141                 0.5715                 0.3900
 IR Inten    --      6.8092                 4.0229                14.1316

                     13                     14                     15
                      A                      A                      A
 Frequencies --    321.6015               373.4607               399.9771
 Red. masses --      9.9401                 3.7121                 8.0103
 Frc consts  --      0.6057                 0.3050                 0.7550
 IR Inten    --      1.2372                28.7024                 3.1890

                     16                     17                     18
                      A                      A                      A
 Frequencies --    408.9221               419.0502               438.0888
 Red. masses --      8.7076                 1.5966                 3.1611
 Frc consts  --      0.8579                 0.1652                 0.3575
 IR Inten    --      6.0576               115.5809                12.4225

                     19                     20                     21
                      A                      A                      A
 Frequencies --    452.3628               476.4727               490.0309
 Red. masses --      5.6004                 7.1965                 7.0845
 Frc consts  --      0.6752                 0.9626                 1.0023
 IR Inten    --     24.1242                 4.1275                 5.7665

                     22                     23                     24
                      A                      A                      A
 Frequencies --    493.5129               533.5896               564.0961
 Red. masses --      6.5953                 6.5197                 4.7978
 Frc consts  --      0.9464                 1.0937                 0.8995
 IR Inten    --      1.1031                27.0253                 3.8687

                     25                     26                     27
                      A                      A                      A
 Frequencies --    586.7038               589.9687               648.3980
 Red. masses --      5.5603                 4.3459                 6.5931
 Frc consts  --      1.1277                 0.8912                 1.6331
 IR Inten    --     59.1113                11.4644                55.3031

                     28                     29                     30
                      A                      A                      A
 Frequencies --    670.5885               686.0383               710.2059
 Red. masses --      6.9292                 2.0152                 6.9313
 Frc consts  --      1.8359                 0.5588                 2.0598
 IR Inten    --     38.7673                50.1415                16.7229

                     31                     32                     33
                      A                      A                      A
 Frequencies --    732.5943               738.3875               782.2325
 Red. masses --      3.6265                 2.3708                 1.7578
 Frc consts  --      1.1467                 0.7616                 0.6337
 IR Inten    --      4.2158                27.2660                 9.7398

                     34                     35                     36
                      A                      A                      A
 Frequencies --    811.1950               819.3792               880.2514
 Red. masses --      6.0210                 4.4769                 3.4668
 Frc consts  --      2.3344                 1.7709                 1.5827
 IR Inten    --     69.8723                 0.3090                45.0603

                     37                     38                     39
                      A                      A                      A
 Frequencies --    901.4096               903.4067               927.4322
 Red. masses --      1.7222                 1.5120                 1.3692
 Frc consts  --      0.8245                 0.7270                 0.6939
 IR Inten    --     54.6457                15.5285                12.9514

                     40                     41                     42
                      A                      A                      A
 Frequencies --    934.2792               941.3013              1020.9659
 Red. masses --      1.3018                 5.7949                 3.2717
 Frc consts  --      0.6695                 3.0252                 2.0093
 IR Inten    --      6.7024                94.7764                67.0308

                     43                     44                     45
                      A                      A                      A
 Frequencies --   1055.4217              1077.1346              1130.5242
 Red. masses --      2.1928                 1.9366                 2.6036
 Frc consts  --      1.4391                 1.3238                 1.9606
 IR Inten    --    136.7472                56.6511               215.2340

                     46                     47                     48
                      A                      A                      A
 Frequencies --   1146.8824              1174.9457              1191.4292
 Red. masses --      2.0433                 3.4491                 2.4440
 Frc consts  --      1.5835                 2.8054                 2.0441
 IR Inten    --    161.4451                45.8050                89.3198

                     49                     50                     51
                      A                      A                      A
 Frequencies --   1196.4185              1206.0618              1265.7982
 Red. masses --      1.4196                 1.8688                 3.2485
 Frc consts  --      1.1973                 1.6016                 3.0666
 IR Inten    --     91.3917                81.1331                68.9760

                     52                     53                     54
                      A                      A                      A
 Frequencies --   1303.0034              1323.8956              1352.6314
 Red. masses --      6.0592                 4.0597                 5.5656
 Frc consts  --      6.0611                 4.1923                 5.9996
 IR Inten    --    135.2534                 6.6151               378.1435

                     55                     56                     57
                      A                      A                      A
 Frequencies --   1373.8714              1421.7364              1434.9282
 Red. masses --      2.8528                 3.5866                 5.6495
 Frc consts  --      3.1726                 4.2714                 6.8537
 IR Inten    --    570.5877                 1.9772                54.8416

                     58                     59                     60
                      A                      A                      A
 Frequencies --   1453.9690              1468.1648              1481.0655
 Red. masses --      2.7043                10.3272                 4.4111
 Frc consts  --      3.3684                13.1154                 5.7009
 IR Inten    --      2.7713               384.7534               184.6875

                     61                     62                     63
                      A                      A                      A
 Frequencies --   1510.8945              1532.9069              1586.3927
 Red. masses --      5.9964                 7.4919                 6.4893
 Frc consts  --      8.0650                10.3723                 9.6221
 IR Inten    --    144.7159                74.1390                 6.9052

                     64                     65                     66
                      A                      A                      A
 Frequencies --   1589.0415              1614.6888              3084.0077
 Red. masses --      3.0150                 1.5901                 1.0778
 Frc consts  --      4.4854                 2.4426                 6.0399
 IR Inten    --     96.7969                87.7248               162.8463

                     67                     68                     69
                      A                      A                      A
 Frequencies --   3090.1305              3111.6028              3172.1695
 Red. masses --      1.0785                 1.0915                 1.0907
 Frc consts  --      6.0678                 6.2262                 6.4667
 IR Inten    --    149.8978               134.8188                37.0900

                     70                     71                     72
                      A                      A                      A
 Frequencies --   3176.8500              3183.3147              3571.9639
 Red. masses --      1.0891                 1.0892                 1.0783
 Frc consts  --      6.4762                 6.5030                 8.1062
 IR Inten    --      7.9014                14.7309                 2.1881

 - Thermochemistry -
 -------------------
 Temperature   298.150 Kelvin.  Pressure   1.00000 Atm.
 Atom     1 has atomic number  7 and mass  14.00307

 Molecular mass:   290.98538 amu.
 Principal axes and moments of inertia in atomic units:
                           1         2         3
     Eigenvalues --  2747.046229735.97630**********
           X            0.99939   0.01231   0.03265
           Y           -0.03459   0.22566   0.97359
           Z           -0.00462   0.97413  -0.22595
 This molecule is an asymmetric top.
 Rotational symmetry number  1.
 Warning -- assumption of classical behavior for rotation
           may cause significant error
 Rotational temperatures (Kelvin)      0.03153     0.00890     0.00694
 Rotational constants (GHZ):           0.65698     0.18537     0.14463
 Zero-point vibrational energy     448817.3 (Joules/Mol)
                                  107.26991 (Kcal/Mol)
 Warning -- explicit consideration of  26 degrees of freedom as
           vibrations may cause significant error
 Vibrational temperatures:     53.25    64.08   128.04   190.74   199.19
          (Kelvin)            264.05   269.12   289.43   339.03   370.42
                              399.60   452.54   462.71   537.33   575.48
                              588.35   602.92   630.31   650.85   685.54
                              705.05   710.05   767.72   811.61   844.14
                              848.83   932.90   964.83   987.06  1021.83
                             1054.04  1062.37  1125.46  1167.13  1178.90
                             1266.49  1296.93  1299.80  1334.37  1344.22
                             1354.32  1468.94  1518.52  1549.76  1626.57
                             1650.11  1690.48  1714.20  1721.38  1735.25
                             1821.20  1874.73  1904.79  1946.13  1976.69
                             2045.56  2064.54  2091.94  2112.36  2130.92
                             2173.84  2205.51  2282.47  2286.28  2323.18
                             4437.20  4446.01  4476.90  4564.04  4570.78
                             4580.08  5139.26

 Zero-point correction=                           0.170945 (Hartree/Particle)
 Thermal correction to Energy=                    0.186254
 Thermal correction to Enthalpy=                  0.187198
 Thermal correction to Gibbs Free Energy=         0.127841
 Sum of electronic and zero-point Energies=          -1663.404045
 Sum of electronic and thermal Energies=             -1663.388736
 Sum of electronic and thermal Enthalpies=           -1663.387792
 Sum of electronic and thermal Free Energies=        -1663.447149

                     E (Thermal)             CV                S
                      KCal/Mol        Cal/Mol-Kelvin    Cal/Mol-Kelvin
 Total                  116.876             60.231            124.928
 Electronic               0.000              0.000              0.000
 Translational            0.889              2.981             42.902
 Rotational               0.889              2.981             34.167
 Vibrational            115.099             54.270             47.859
 Vibration     1          0.594              1.982              5.413
 Vibration     2          0.595              1.980              5.046
 Vibration     3          0.602              1.957              3.682
 Vibration     4          0.613              1.921              2.908
 Vibration     5          0.614              1.915              2.825
 Vibration     6          0.631              1.862              2.292
 Vibration     7          0.632              1.858              2.257
 Vibration     8          0.638              1.838              2.122
 Vibration     9          0.655              1.786              1.836
 Vibration    10          0.667              1.750              1.679
 Vibration    11          0.679              1.715              1.548
 Vibration    12          0.702              1.646              1.338
 Vibration    13          0.707              1.632              1.302
 Vibration    14          0.745              1.527              1.066
 Vibration    15          0.766              1.470              0.963
 Vibration    16          0.773              1.451              0.930
 Vibration    17          0.782              1.429              0.895
 Vibration    18          0.798              1.387              0.833
 Vibration    19          0.811              1.356              0.789
 Vibration    20          0.833              1.302              0.720
 Vibration    21          0.846              1.272              0.684
 Vibration    22          0.849              1.264              0.675
 Vibration    23          0.889              1.176              0.579
 Vibration    24          0.920              1.109              0.516
 Vibration    25          0.944              1.060              0.473
 Vibration    26          0.947              1.053              0.467

                           ! Non-Optimized Parameters !
 Normal termination of Gaussian 16 at Wed Dec 27 22:29:33 2023.
