 Gaussian 16, Revision A.03,
 Gaussian 16:  ES64L-G16RevA.03 25-Dec-2016

 --------------------------------------
 #P UB3LYP/6-311++G(d,p) nosym opt freq
 --------------------------------------

 -------
 Radical
 -------
 Symbolic Z-matrix:
 Charge = -1 Multiplicity = 2

 SCF Done:  E(UB3LYP) =  -1161.40496439     A.U. after   25 cycles
 SCF Done:  E(UB3LYP) =  -1161.40496429     A.U. after   15 cycles
 SCF Done:  E(UB3LYP) =  -1161.40496441     A.U. after   15 cycles
 Optimization completed.
    -- Stationary point found.
 Normal termination of Gaussian 16 at Wed Jan 10 05:05:43 2024.

 ----------------------------------------------------------------------
 #P Geom=AllCheck Guess=TCheck SCRF=Check GenChk UB3LYP/6-311++G(d,p) F
 req
 ----------------------------------------------------------------------

 Structure from the checkpoint file:  "066-rad.chk"
 -------
 Radical
 -------
 Charge = -1 Multiplicity = 2

                          Input orientation:
 ---------------------------------------------------------------------
 Center     Atomic      Atomic             Coordinates (Angstroms)
 Number     Number       Type             X           Y           Z
 ---------------------------------------------------------------------
      1          6           0        1.282913   -0.573171    1.845909
      2          6           0        0.873631   -1.600925    0.900744
      3          6           0       -0.250277   -1.507861    0.136273
      4          6           0       -1.142690   -0.362724    0.198048
      5          6           0       -0.750803    0.676906    1.123411
      6          6           0        0.392751    0.578456    1.883895
      7          8           0        2.302563   -0.700212    2.566045
      8          8           0       -2.186779   -0.280910   -0.504661
      9         16           0        0.797042    1.968455    2.950411
     10          6           0        0.771273    1.319018    4.647300
     11          6           0       -0.384589    1.486143    5.406894
     12          6           0        1.904521    0.702567    5.173282
     13          6           0        1.869936    0.243665    6.488943
     14          6           0       -0.407811    1.020869    6.720643
     15          6           0        0.718789    0.400868    7.261486
     16          8           0        2.158925    2.455390    2.687055
     17          8           0       -0.324312    2.927957    2.875312
     18          1           0        1.524409   -2.468746    0.845392
     19          1           0       -0.525604   -2.299445   -0.554894
     20          1           0       -1.384248    1.552289    1.199355
     21          1           0       -1.239716    1.985292    4.968463
     22          1           0        2.773517    0.568965    4.544231
     23          1           0        2.744143   -0.242293    6.908764
     24          1           0       -1.302436    1.147481    7.321049
     25          1           0        0.698774    0.038507    8.284268
 ---------------------------------------------------------------------

 SCF Done:  E(UB3LYP) =  -1161.40496441     A.U. after    2 cycles

 Alpha  occ. eigenvalues --  -88.92989 -18.99374 -18.99282 -18.96247 -18.96072
 Alpha  occ. eigenvalues --  -10.11682 -10.10776 -10.10517 -10.09972 -10.09705
 Alpha  occ. eigenvalues --  -10.09613 -10.09446 -10.09036 -10.08072 -10.06228
 Alpha  occ. eigenvalues --  -10.05699 -10.05622  -7.99352  -5.95623  -5.95540
 Alpha  occ. eigenvalues --   -5.95452  -0.98603  -0.88939  -0.88141  -0.88026
 Alpha  occ. eigenvalues --   -0.77928  -0.71956  -0.68099  -0.66809  -0.65014
 Alpha  occ. eigenvalues --   -0.58876  -0.55899  -0.52739  -0.51440  -0.48077
 Alpha  occ. eigenvalues --   -0.46374  -0.43192  -0.38696  -0.37890  -0.37086
 Alpha  occ. eigenvalues --   -0.36564  -0.35757  -0.35073  -0.34244  -0.32758
 Alpha  occ. eigenvalues --   -0.32108  -0.29787  -0.29200  -0.28862  -0.28380
 Alpha  occ. eigenvalues --   -0.27049  -0.26468  -0.25862  -0.25416  -0.21808
 Alpha  occ. eigenvalues --   -0.20347  -0.19072  -0.18623  -0.17688  -0.17370
 Alpha  occ. eigenvalues --   -0.16856  -0.15325  -0.12621  -0.12001  -0.05118
 Alpha virt. eigenvalues --    0.05314   0.06355   0.06976   0.08360   0.09100
 Alpha virt. eigenvalues --    0.09433   0.09916   0.11583   0.12221   0.12572
 Alpha virt. eigenvalues --    0.13322   0.13573   0.14030   0.14693   0.15869

  Beta  occ. eigenvalues --  -88.92991 -18.99378 -18.99275 -18.95605 -18.95227
  Beta  occ. eigenvalues --  -10.11602 -10.10775 -10.10458 -10.09967 -10.09706
  Beta  occ. eigenvalues --  -10.09609 -10.09448 -10.09031 -10.07984 -10.05968
  Beta  occ. eigenvalues --  -10.05624 -10.05537  -7.99354  -5.95624  -5.95540
  Beta  occ. eigenvalues --   -5.95456  -0.98589  -0.88185  -0.87719  -0.86634
  Beta  occ. eigenvalues --   -0.77921  -0.71341  -0.68059  -0.66803  -0.64771
  Beta  occ. eigenvalues --   -0.58269  -0.55346  -0.52733  -0.51267  -0.47720
  Beta  occ. eigenvalues --   -0.46208  -0.43079  -0.38543  -0.37856  -0.36929
  Beta  occ. eigenvalues --   -0.36436  -0.35668  -0.34815  -0.34200  -0.32694
  Beta  occ. eigenvalues --   -0.31886  -0.29199  -0.28879  -0.28154  -0.27505
  Beta  occ. eigenvalues --   -0.26708  -0.26287  -0.25125  -0.23062  -0.21720
  Beta  occ. eigenvalues --   -0.20298  -0.18872  -0.18538  -0.17532  -0.17305
  Beta  occ. eigenvalues --   -0.14620  -0.13402  -0.12001  -0.11269
  Beta virt. eigenvalues --    0.02173   0.05610   0.06355   0.07007   0.08359
  Beta virt. eigenvalues --    0.09433   0.09905   0.10476   0.11608   0.12250
  Beta virt. eigenvalues --    0.12714   0.13350   0.13982   0.14694   0.14982

 Mulliken charges and spin densities:
               1          2
     1  C   -0.816491  -0.008576
     2  C    0.181720   0.081637
     3  C    0.192534   0.055555
     4  C   -0.739798   0.101857
     5  C   -0.066786   0.143948
     6  C    0.404066   0.113499
     7  O   -0.316553   0.236684
     8  O   -0.377414   0.301549
     9  S    0.223055  -0.028942
    10  C    0.461485   0.007883
    11  C    0.036660   0.006975
    12  C   -0.288411   0.015696
    13  C   -0.422469  -0.005780
    14  C   -0.466117  -0.000733
    15  C   -0.279469   0.004127
    16  O   -0.106170   0.005367
    17  O   -0.196586  -0.003006
    18  H    0.166972  -0.006671
    19  H    0.164554  -0.005020
    20  H    0.263844  -0.014732
    21  H    0.235675   0.000856
    22  H    0.293134  -0.002116
    23  H    0.163387   0.000194
    24  H    0.155511   0.000061
    25  H    0.133668  -0.000310
 Sum of Mulliken charges =  -1.00000   1.00000

 Dipole moment (field-independent basis, Debye):
    X=             -1.3539    Y=             -4.3372    Z=             -6.5742  Tot=              7.9915
 Quadrupole moment (field-independent basis, Debye-Ang):
   XX=           -133.3625   YY=           -129.7872   ZZ=           -126.7649
   XY=             -6.1859   XZ=            -17.9550   YZ=            -13.9157

  Exact polarizability: 188.936 -14.222 156.349  41.040  19.011 236.349
 Approx polarizability: 362.958 -41.067 240.975  73.785   4.054 324.865

                      1                      2                      3
                      A                      A                      A
 Frequencies --     32.3001                37.3251                73.8875
 Red. masses --      5.8541                 5.7829                 5.0980
 Frc consts  --      0.0036                 0.0047                 0.0164
 IR Inten    --      0.4730                 0.6276                 1.0953

                      4                      5                      6
                      A                      A                      A
 Frequencies --    114.9456               154.6980               161.6269
 Red. masses --      6.5209                10.4194                 8.7689
 Frc consts  --      0.0508                 0.1469                 0.1350
 IR Inten    --      3.7951                 7.7695                 3.7487

                      7                      8                      9
                      A                      A                      A
 Frequencies --    178.9738               226.5682               265.4290
 Red. masses --      6.7491                 5.8499                 9.7374
 Frc consts  --      0.1274                 0.1769                 0.4042
 IR Inten    --      1.3859                 2.5351                 0.1345

                     10                     11                     12
                      A                      A                      A
 Frequencies --    281.3171               299.0681               322.7031
 Red. masses --     12.9797                 8.3421                 5.7837
 Frc consts  --      0.6052                 0.4396                 0.3549
 IR Inten    --      3.1481                 1.9563                 0.0829

                     13                     14                     15
                      A                      A                      A
 Frequencies --    395.9881               413.1762               415.1004
 Red. masses --      6.6493                 2.9901                 7.8834
 Frc consts  --      0.6143                 0.3008                 0.8003
 IR Inten    --      3.3793                 0.3909                 8.1230

                     16                     17                     18
                      A                      A                      A
 Frequencies --    427.3298               461.7721               477.3726
 Red. masses --      4.8796                 5.4493                 9.3417
 Frc consts  --      0.5250                 0.6846                 1.2543
 IR Inten    --      1.8984                 4.3720                 0.4596

                     19                     20                     21
                      A                      A                      A
 Frequencies --    520.9004               551.4402               590.3843
 Red. masses --      5.0278                 5.6099                 5.8686
 Frc consts  --      0.8038                 1.0051                 1.2052
 IR Inten    --     37.7778                54.8594               123.1634

                     22                     23                     24
                      A                      A                      A
 Frequencies --    609.1877               628.4263               672.0154
 Red. masses --      3.6459                 6.4231                 7.5462
 Frc consts  --      0.7972                 1.4945                 2.0079
 IR Inten    --     32.6229                 1.0378                17.8577

                     25                     26                     27
                      A                      A                      A
 Frequencies --    701.7990               718.6233               744.0026
 Red. masses --      1.7318                 7.2216                 3.7114
 Frc consts  --      0.5025                 2.1973                 1.2104
 IR Inten    --     56.8056                63.8822                 4.9629

                     28                     29                     30
                      A                      A                      A
 Frequencies --    764.3564               818.6340               829.4524
 Red. masses --      1.9012                 5.8866                 1.8683
 Frc consts  --      0.6544                 2.3243                 0.7573
 IR Inten    --      9.8078                31.9486                33.5408

                     31                     32                     33
                      A                      A                      A
 Frequencies --    847.1901               869.0608               900.9959
 Red. masses --      1.2515                 6.4469                 1.5262
 Frc consts  --      0.5292                 2.8688                 0.7300
 IR Inten    --      0.7689                17.7925                21.1338

                     34                     35                     36
                      A                      A                      A
 Frequencies --    932.9456               965.0991               981.6325
 Red. masses --      1.3943                 1.2685                 1.6296
 Frc consts  --      0.7150                 0.6961                 0.9252
 IR Inten    --      0.9930                 0.0754                 4.5611

                     37                     38                     39
                      A                      A                      A
 Frequencies --    985.9027               989.0868              1014.4128
 Red. masses --      2.3210                 1.3026                 5.8365
 Frc consts  --      1.3292                 0.7508                 3.5386
 IR Inten    --      8.6721                 0.1894                 4.7720

                     40                     41                     42
                      A                      A                      A
 Frequencies --   1041.3271              1063.7990              1095.1906
 Red. masses --      3.5615                 3.9357                 1.5922
 Frc consts  --      2.2754                 2.6242                 1.1252
 IR Inten    --     24.1159               119.4461                10.7616

                     43                     44                     45
                      A                      A                      A
 Frequencies --   1104.4483              1107.5890              1176.6125
 Red. masses --      1.8961                 3.2122                 1.1148
 Frc consts  --      1.3627                 2.3217                 0.9093
 IR Inten    --     19.3690               117.9409                 0.0540

                     46                     47                     48
                      A                      A                      A
 Frequencies --   1196.9289              1199.9791              1235.2956
 Red. masses --      1.1701                 1.8555                 3.7478
 Frc consts  --      0.9877                 1.5742                 3.3696
 IR Inten    --      4.8398                 4.3149                88.9029

                     49                     50                     51
                      A                      A                      A
 Frequencies --   1243.2028              1329.4242              1341.8115
 Red. masses --      3.0262                 2.8164                 2.1693
 Frc consts  --      2.7557                 2.9327                 2.3012
 IR Inten    --     87.6213                 0.1442                 0.8809

                     52                     53                     54
                      A                      A                      A
 Frequencies --   1345.2135              1420.3457              1465.8888
 Red. masses --      1.7816                 4.0161                 5.1281
 Frc consts  --      1.8995                 4.7735                 6.4925
 IR Inten    --      2.7145                26.2965               106.2933

                     55                     56                     57
                      A                      A                      A
 Frequencies --   1472.0098              1505.6401              1510.6969
 Red. masses --      2.3042                 2.0342                 7.5306
 Frc consts  --      2.9416                 2.7170                10.1259
 IR Inten    --     17.1770                13.5852                87.1688

                     58                     59                     60
                      A                      A                      A
 Frequencies --   1542.5718              1620.7484              1621.8821
 Red. masses --      8.0500                 5.6269                 5.5609
 Frc consts  --     11.2860                 8.7086                 8.6185
 IR Inten    --    334.8319                 1.0348                 2.6913

                     61                     62                     63
                      A                      A                      A
 Frequencies --   1636.0391              3141.3303              3149.0596
 Red. masses --      6.9518                 1.0855                 1.0850
 Frc consts  --     10.9632                 6.3109                 6.3393
 IR Inten    --     13.4317                13.6328                 1.6982

                     64                     65                     66
                      A                      A                      A
 Frequencies --   3162.8047              3164.3308              3175.4035
 Red. masses --      1.0952                 1.0899                 1.0954
 Frc consts  --      6.4549                 6.4298                 6.5074
 IR Inten    --     36.3153                27.9324                38.8146

                     67                     68                     69
                      A                      A                      A
 Frequencies --   3194.8658              3199.0467              3223.2187
 Red. masses --      1.0894                 1.0927                 1.0929
 Frc consts  --      6.5513                 6.5887                 6.6895
 IR Inten    --      7.3996                 6.3111                10.4756

 - Thermochemistry -
 -------------------
 Temperature   298.150 Kelvin.  Pressure   1.00000 Atm.
 Atom     1 has atomic number  6 and mass  12.00000

 Molecular mass:   248.01433 amu.
 Principal axes and moments of inertia in atomic units:
                           1         2         3
     Eigenvalues --  2354.311586141.297376509.73949
           X            0.24672  -0.56119   0.79006
           Y            0.25107   0.82444   0.50721
           Z            0.93600  -0.07322  -0.34430
 This molecule is an asymmetric top.
 Rotational symmetry number  1.
 Warning -- assumption of classical behavior for rotation
           may cause significant error
 Rotational temperatures (Kelvin)      0.03679     0.01410     0.01331
 Rotational constants (GHZ):           0.76657     0.29387     0.27724
 Zero-point vibrational energy     454950.8 (Joules/Mol)
                                  108.73585 (Kcal/Mol)
 Warning -- explicit consideration of  22 degrees of freedom as
           vibrations may cause significant error
 Vibrational temperatures:     46.47    53.70   106.31   165.38   222.58
          (Kelvin)            232.55   257.50   325.98   381.89   404.75
                              430.29   464.30   569.74   594.47   597.24
                              614.83   664.39   686.83   749.46   793.40
                              849.43   876.49   904.17   966.88  1009.73
                             1033.94  1070.45  1099.74  1177.83  1193.40
                             1218.92  1250.38  1296.33  1342.30  1388.56
                             1412.35  1418.49  1423.08  1459.51  1498.24
                             1530.57  1575.74  1589.05  1593.57  1692.88
                             1722.11  1726.50  1777.31  1788.69  1912.74
                             1930.57  1935.46  2043.56  2109.09  2117.89
                             2166.28  2173.56  2219.42  2331.90  2333.53
                             2353.90  4519.67  4530.79  4550.57  4552.77
                             4568.70  4596.70  4602.71  4637.49

 Zero-point correction=                           0.173282 (Hartree/Particle)
 Thermal correction to Energy=                    0.187361
 Thermal correction to Enthalpy=                  0.188305
 Thermal correction to Gibbs Free Energy=         0.130590
 Sum of electronic and zero-point Energies=          -1161.231683
 Sum of electronic and thermal Energies=             -1161.217604
 Sum of electronic and thermal Enthalpies=           -1161.216660
 Sum of electronic and thermal Free Energies=        -1161.274375

                     E (Thermal)             CV                S
                      KCal/Mol        Cal/Mol-Kelvin    Cal/Mol-Kelvin
 Total                  117.571             54.521            121.472
 Electronic               0.000              0.000              1.377
 Translational            0.889              2.981             42.426
 Rotational               0.889              2.981             32.909
 Vibrational            115.793             48.559             44.760
 Vibration     1          0.594              1.983              5.683
 Vibration     2          0.594              1.982              5.396
 Vibration     3          0.599              1.966              4.047
 Vibration     4          0.608              1.937              3.184
 Vibration     5          0.620              1.897              2.614
 Vibration     6          0.622              1.889              2.531
 Vibration     7          0.629              1.868              2.339
 Vibration     8          0.650              1.801              1.906
 Vibration     9          0.671              1.736              1.626
 Vibration    10          0.681              1.708              1.526
 Vibration    11          0.692              1.675              1.422
 Vibration    12          0.708              1.630              1.296
 Vibration    13          0.763              1.479              0.978
 Vibration    14          0.777              1.442              0.915
 Vibration    15          0.779              1.437              0.909
 Vibration    16          0.789              1.411              0.867
 Vibration    17          0.819              1.335              0.761
 Vibration    18          0.834              1.300              0.717
 Vibration    19          0.876              1.204              0.608
 Vibration    20          0.907              1.137              0.541
 Vibration    21          0.948              1.052              0.466
 Vibration    22          0.968              1.012              0.434

 Optimization completed.
    -- Stationary point found.
 Normal termination of Gaussian 16 at Wed Jan 10 05:58:24 2024.
