 Q-Chem 5.4, Q-Chem, Inc., Pleasanton, CA (2021)
 Q-Chem 5.4.0 for Intel X86 EM64T Linux

User input:
--------------------------------------------------------------
$molecule
-1 2
C                  1.2829130000     -0.5731710000      1.8459090000
C                  0.8736310000     -1.6009250000      0.9007440000
C                 -0.2502770000     -1.5078610000      0.1362730000
C                 -1.1426900000     -0.3627240000      0.1980480000
C                 -0.7508030000      0.6769060000      1.1234110000
C                  0.3927510000      0.5784560000      1.8838950000
O                  2.3025630000     -0.7002120000      2.5660450000
O                 -2.1867790000     -0.2809100000     -0.5046610000
S                  0.7970420000      1.9684550000      2.9504110000
C                  0.7712730000      1.3190180000      4.6473000000
C                 -0.3845890000      1.4861430000      5.4068940000
C                  1.9045210000      0.7025670000      5.1732820000
C                  1.8699360000      0.2436650000      6.4889430000
C                 -0.4078110000      1.0208690000      6.7206430000
C                  0.7187890000      0.4008680000      7.2614860000
O                  2.1589250000      2.4553900000      2.6870550000
O                 -0.3243120000      2.9279570000      2.8753120000
H                  1.5244090000     -2.4687460000      0.8453920000
H                 -0.5256040000     -2.2994450000     -0.5548940000
H                 -1.3842480000      1.5522890000      1.1993550000
H                 -1.2397160000      1.9852920000      4.9684630000
H                  2.7735170000      0.5689650000      4.5442310000
H                  2.7441430000     -0.2422930000      6.9087640000
H                 -1.3024360000      1.1474810000      7.3210490000
H                  0.6987740000      0.0385070000      8.2842680000
$end

$rem
BASIS  =  6-311++G(d,p)
GUI  =  2
JOB_TYPE  =  SP
METHOD  =  B3LYP
SCF_CONVERGENCE  = 8
SOLVENT_METHOD = sm12
$end

$smx
solvent dimethylformamide
charges CM5
$end

--------------------------------------------------------------

             Standard Nuclear Orientation (Angstroms)
    I     Atom           X                Y                Z
 ----------------------------------------------------------------
    1      C       1.2829130000    -0.5731710000     1.8459090000
    2      C       0.8736310000    -1.6009250000     0.9007440000
    3      C      -0.2502770000    -1.5078610000     0.1362730000
    4      C      -1.1426900000    -0.3627240000     0.1980480000
    5      C      -0.7508030000     0.6769060000     1.1234110000
    6      C       0.3927510000     0.5784560000     1.8838950000
    7      O       2.3025630000    -0.7002120000     2.5660450000
    8      O      -2.1867790000    -0.2809100000    -0.5046610000
    9      S       0.7970420000     1.9684550000     2.9504110000
   10      C       0.7712730000     1.3190180000     4.6473000000
   11      C      -0.3845890000     1.4861430000     5.4068940000
   12      C       1.9045210000     0.7025670000     5.1732820000
   13      C       1.8699360000     0.2436650000     6.4889430000
   14      C      -0.4078110000     1.0208690000     6.7206430000
   15      C       0.7187890000     0.4008680000     7.2614860000
   16      O       2.1589250000     2.4553900000     2.6870550000
   17      O      -0.3243120000     2.9279570000     2.8753120000
   18      H       1.5244090000    -2.4687460000     0.8453920000
   19      H      -0.5256040000    -2.2994450000    -0.5548940000
   20      H      -1.3842480000     1.5522890000     1.1993550000
   21      H      -1.2397160000     1.9852920000     4.9684630000
   22      H       2.7735170000     0.5689650000     4.5442310000
   23      H       2.7441430000    -0.2422930000     6.9087640000
   24      H      -1.3024360000     1.1474810000     7.3210490000
   25      H       0.6987740000     0.0385070000     8.2842680000
 ----------------------------------------------------------------

   18   -1161.4013679726      8.89e-09  Convergence criterion met
 Total energy in the final basis set =    -1161.4892970283

                    Orbital Energies (a.u.)
 --------------------------------------------------------------

 Alpha MOs
 -- Occupied --
-89.0491 -19.1135 -19.1134 -19.0895 -19.0892 -10.2429 -10.2334 -10.2146
-10.2063 -10.1972 -10.1934 -10.1934 -10.1919 -10.1906 -10.1895 -10.1828
-10.1821  -8.1129  -6.0756  -6.0746  -6.0739  -1.1060  -1.0162  -1.0096
 -1.0014  -0.8789  -0.8458  -0.7879  -0.7702  -0.7665  -0.7115  -0.6768
 -0.6274  -0.6242  -0.6045  -0.5760  -0.5396  -0.5017  -0.4953  -0.4848
 -0.4772  -0.4734  -0.4580  -0.4479  -0.4460  -0.4412  -0.4230  -0.4168
 -0.3987  -0.3913  -0.3842  -0.3828  -0.3807  -0.3633  -0.3386  -0.3241
 -0.3108  -0.3018  -0.2983  -0.2858  -0.2738  -0.2725  -0.2528  -0.2473
 -0.1789

 Beta MOs
 -- Occupied --
-89.0491 -19.1135 -19.1134 -19.0829 -19.0809 -10.2421 -10.2326 -10.2146
-10.2052 -10.1972 -10.1934 -10.1933 -10.1919 -10.1906 -10.1871 -10.1821
-10.1812  -8.1129  -6.0756  -6.0746  -6.0740  -1.1059  -1.0054  -1.0008
 -0.9952  -0.8789  -0.8395  -0.7869  -0.7685  -0.7664  -0.7038  -0.6727
 -0.6266  -0.6228  -0.6011  -0.5744  -0.5385  -0.4995  -0.4937  -0.4829
 -0.4768  -0.4712  -0.4578  -0.4468  -0.4443  -0.4409  -0.4096  -0.4063
 -0.3954  -0.3862  -0.3823  -0.3784  -0.3631  -0.3581  -0.3378  -0.3234
 -0.3082  -0.3009  -0.2844  -0.2741  -0.2682  -0.2606  -0.2462  -0.2406

          Ground-State Mulliken Net Atomic Charges

     Atom                 Charge (a.u.)    Spin (a.u.)
  --------------------------------------------------------
      1 C                    -0.995669      -0.015544
      2 C                     0.604532       0.086357
      3 C                     0.431619       0.050805
      4 C                    -1.041956       0.108958
      5 C                    -0.713526       0.129062
      6 C                     0.163846       0.125421
      7 O                    -0.278080       0.247184
      8 O                    -0.369296       0.294957
      9 S                    -0.230826      -0.029574
     10 C                    -1.293224       0.006819
     11 C                     0.049189       0.006818
     12 C                    -1.227817       0.014311
     13 C                     0.358528      -0.004366
     14 C                     0.555410      -0.000897
     15 C                     1.074062       0.003124
     16 O                    -0.148401       0.005919
     17 O                    -0.187752      -0.003040
     18 H                     0.282041      -0.006458
     19 H                     0.275253      -0.004253
     20 H                     0.201614      -0.014293
     21 H                     0.252759       0.000708
     22 H                     0.160472      -0.002066
     23 H                     0.332050       0.000161
     24 H                     0.353137       0.000068
     25 H                     0.392034      -0.000183
  --------------------------------------------------------
  Sum of atomic charges =    -1.000000

                    Cartesian Multipole Moments
 -----------------------------------------------------------------
    Charge (ESU x 10^10)
                -4.8032
    Dipole Moment (Debye)
         X      -1.2389      Y      -4.7242      Z      -4.6633
       Tot       6.7527
    Quadrupole Moments (Debye-Ang)
        XX    -133.5916     XY      -6.9930     YY    -130.2344
        XZ     -17.6704     YZ     -14.2699     ZZ    -108.3368

 Total job time:  575.87s(wall), 4458.54s(cpu)
        *  Thank you very much for using Q-Chem.  Have a nice day.  *
