 Q-Chem 5.4, Q-Chem, Inc., Pleasanton, CA (2021)
 Q-Chem 5.4.0 for Intel X86 EM64T Linux

User input:
--------------------------------------------------------------
$molecule
0 1
C                 -3.2567610000      0.0619150000      1.0087520000
C                 -1.9377220000     -0.0124970000      0.3025790000
C                 -1.8142350000     -0.2279730000     -1.0204710000
C                 -0.5162220000     -0.3022480000     -1.7221790000
O                 -0.4716810000     -0.5005280000     -2.9268010000
C                  0.7185620000     -0.1265550000     -0.9038940000
C                  1.9737590000     -0.1867580000     -1.5124400000
C                  3.1247140000     -0.0229480000     -0.7482580000
C                  3.0277960000      0.2017870000      0.6273580000
C                  1.7804330000      0.2630190000      1.2399190000
C                  0.6197810000      0.0994600000      0.4790690000
C                 -0.7125520000      0.1672760000      1.1470410000
O                 -0.8183650000      0.3630090000      2.3467640000
H                 -4.0836040000     -0.0799070000      0.3120770000
H                 -3.3143890000     -0.6966080000      1.7942580000
H                 -3.3697850000      1.0275780000      1.5091390000
H                 -2.6845260000     -0.3614680000     -1.6554140000
H                  2.0250280000     -0.3619610000     -2.5801150000
H                  4.0988010000     -0.0698930000     -1.2217270000
H                  3.9267970000      0.3289240000      1.2196500000
H                  1.6841720000      0.4363770000      2.3046930000
$end

$rem
BASIS  =  6-311++G(d,p)
GUI  =  2
JOB_TYPE  =  SP
METHOD  =  B3LYP
SCF_CONVERGENCE  = 8
SOLVENT_METHOD = sm12
$end

$smx
solvent dimethylformamide
charges CM5
$end

--------------------------------------------------------------

             Standard Nuclear Orientation (Angstroms)
    I     Atom           X                Y                Z
 ----------------------------------------------------------------
    1      C      -3.2567610000     0.0619150000     1.0087520000
    2      C      -1.9377220000    -0.0124970000     0.3025790000
    3      C      -1.8142350000    -0.2279730000    -1.0204710000
    4      C      -0.5162220000    -0.3022480000    -1.7221790000
    5      O      -0.4716810000    -0.5005280000    -2.9268010000
    6      C       0.7185620000    -0.1265550000    -0.9038940000
    7      C       1.9737590000    -0.1867580000    -1.5124400000
    8      C       3.1247140000    -0.0229480000    -0.7482580000
    9      C       3.0277960000     0.2017870000     0.6273580000
   10      C       1.7804330000     0.2630190000     1.2399190000
   11      C       0.6197810000     0.0994600000     0.4790690000
   12      C      -0.7125520000     0.1672760000     1.1470410000
   13      O      -0.8183650000     0.3630090000     2.3467640000
   14      H      -4.0836040000    -0.0799070000     0.3120770000
   15      H      -3.3143890000    -0.6966080000     1.7942580000
   16      H      -3.3697850000     1.0275780000     1.5091390000
   17      H      -2.6845260000    -0.3614680000    -1.6554140000
   18      H       2.0250280000    -0.3619610000    -2.5801150000
   19      H       4.0988010000    -0.0698930000    -1.2217270000
   20      H       3.9267970000     0.3289240000     1.2196500000
   21      H       1.6841720000     0.4363770000     2.3046930000
 ----------------------------------------------------------------

   15    -574.5895935389      3.54e-09  Convergence criterion met
 Total energy in the final basis set =     -574.6070978647

                    Orbital Energies (a.u.)
 --------------------------------------------------------------

 Alpha MOs
 -- Occupied --
-19.1345 -19.1303 -10.2821 -10.2794 -10.2189 -10.2081 -10.2072 -10.2022
-10.1981 -10.1979 -10.1974 -10.1971 -10.1735  -1.0675  -1.0620  -0.8900
 -0.8464  -0.7852  -0.7780  -0.7274  -0.6833  -0.6474  -0.6222  -0.5874
 -0.5444  -0.5276  -0.4985  -0.4776  -0.4590  -0.4588  -0.4533  -0.4511
 -0.4273  -0.4244  -0.4125  -0.4077  -0.3939  -0.3787  -0.3769  -0.3684
 -0.2972  -0.2863  -0.2788  -0.2781  -0.2739

          Ground-State Mulliken Net Atomic Charges

     Atom                 Charge (a.u.)
  ----------------------------------------
      1 C                     0.339373
      2 C                     1.074145
      3 C                     0.050582
      4 C                    -1.626941
      5 O                    -0.319471
      6 C                    -0.171412
      7 C                    -0.087654
      8 C                     0.315718
      9 C                     0.235893
     10 C                    -0.008165
     11 C                    -0.172220
     12 C                    -1.249942
     13 O                    -0.267323
     14 H                     0.252404
     15 H                     0.191535
     16 H                     0.191523
     17 H                     0.244723
     18 H                     0.177973
     19 H                     0.321593
     20 H                     0.325943
     21 H                     0.181724
  ----------------------------------------
  Sum of atomic charges =     0.000000

                    Cartesian Multipole Moments
 -----------------------------------------------------------------
    Charge (ESU x 10^10)
                 0.0000
    Dipole Moment (Debye)
         X       1.1071      Y       0.1878      Z       0.9218
       Tot       1.4528
    Quadrupole Moments (Debye-Ang)
        XX     -55.0799     XY       0.6441     YY     -76.9494
        XZ      -0.2963     YZ      -2.2814     ZZ     -90.2901

 Total job time:  261.22s(wall), 1970.11s(cpu)
        *  Thank you very much for using Q-Chem.  Have a nice day.  *
