 Gaussian 16, Revision A.03,
 Gaussian 16:  ES64L-G16RevA.03 25-Dec-2016

 --------------------------------------
 #P UB3LYP/6-311++G(d,p) nosym opt freq
 --------------------------------------

 --------
 Oxidized
 --------
 Symbolic Z-matrix:
 Charge =  0 Multiplicity = 1

 SCF Done:  E(UB3LYP) =  -574.590608113     A.U. after   15 cycles
 Optimization completed.
    -- Stationary point found.
 Normal termination of Gaussian 16 at Sun Jan  7 20:13:25 2024.

 ----------------------------------------------------------------------
 #P Geom=AllCheck Guess=TCheck SCRF=Check GenChk UB3LYP/6-311++G(d,p) F
 req
 ----------------------------------------------------------------------

 Structure from the checkpoint file:  "236.chk"
 --------
 Oxidized
 --------
 Charge =  0 Multiplicity = 1

                          Input orientation:
 ---------------------------------------------------------------------
 Center     Atomic      Atomic             Coordinates (Angstroms)
 Number     Number       Type             X           Y           Z
 ---------------------------------------------------------------------
      1          6           0       -3.256761    0.061915    1.008752
      2          6           0       -1.937722   -0.012497    0.302579
      3          6           0       -1.814235   -0.227973   -1.020471
      4          6           0       -0.516222   -0.302248   -1.722179
      5          8           0       -0.471681   -0.500528   -2.926801
      6          6           0        0.718562   -0.126555   -0.903894
      7          6           0        1.973759   -0.186758   -1.512440
      8          6           0        3.124714   -0.022948   -0.748258
      9          6           0        3.027796    0.201787    0.627358
     10          6           0        1.780433    0.263019    1.239919
     11          6           0        0.619781    0.099460    0.479069
     12          6           0       -0.712552    0.167276    1.147041
     13          8           0       -0.818365    0.363009    2.346764
     14          1           0       -4.083604   -0.079907    0.312077
     15          1           0       -3.314389   -0.696608    1.794258
     16          1           0       -3.369785    1.027578    1.509139
     17          1           0       -2.684526   -0.361468   -1.655414
     18          1           0        2.025028   -0.361961   -2.580115
     19          1           0        4.098801   -0.069893   -1.221727
     20          1           0        3.926797    0.328924    1.219650
     21          1           0        1.684172    0.436377    2.304693
 ---------------------------------------------------------------------

 SCF Done:  E(UB3LYP) =  -574.590608113     A.U. after    1 cycles

 Alpha  occ. eigenvalues --  -19.13562 -19.13054 -10.28375 -10.27986 -10.22397
 Alpha  occ. eigenvalues --  -10.21133 -10.21024 -10.20731 -10.20472 -10.20415
 Alpha  occ. eigenvalues --  -10.20229 -10.20173 -10.18569  -1.06837  -1.06170
 Alpha  occ. eigenvalues --   -0.89432  -0.85130  -0.79099  -0.78226  -0.73459
 Alpha  occ. eigenvalues --   -0.68810  -0.65249  -0.62828  -0.59102  -0.54886
 Alpha  occ. eigenvalues --   -0.53326  -0.50144  -0.48504  -0.46269  -0.46183
 Alpha  occ. eigenvalues --   -0.45611  -0.45418  -0.43289  -0.42891  -0.42012
 Alpha  occ. eigenvalues --   -0.41147  -0.40546  -0.38532  -0.38095  -0.37369
 Alpha  occ. eigenvalues --   -0.30057  -0.28601  -0.28340  -0.28225  -0.27401
 Alpha virt. eigenvalues --   -0.12552  -0.05971  -0.03675  -0.01134  -0.00485
 Alpha virt. eigenvalues --    0.01102   0.01912   0.02072   0.02220   0.03118
 Alpha virt. eigenvalues --    0.03982   0.04688   0.05133   0.05136   0.05535

  Beta  occ. eigenvalues --  -19.13562 -19.13054 -10.28375 -10.27986 -10.22397
  Beta  occ. eigenvalues --  -10.21133 -10.21024 -10.20731 -10.20472 -10.20415
  Beta  occ. eigenvalues --  -10.20229 -10.20173 -10.18569  -1.06837  -1.06170
  Beta  occ. eigenvalues --   -0.89432  -0.85130  -0.79099  -0.78226  -0.73459
  Beta  occ. eigenvalues --   -0.68810  -0.65249  -0.62828  -0.59102  -0.54886
  Beta  occ. eigenvalues --   -0.53326  -0.50144  -0.48504  -0.46269  -0.46183
  Beta  occ. eigenvalues --   -0.45611  -0.45418  -0.43289  -0.42891  -0.42012
  Beta  occ. eigenvalues --   -0.41147  -0.40546  -0.38532  -0.38095  -0.37369
  Beta  occ. eigenvalues --   -0.30057  -0.28601  -0.28340  -0.28225  -0.27401
  Beta virt. eigenvalues --   -0.12552  -0.05971  -0.03675  -0.01134  -0.00485
  Beta virt. eigenvalues --    0.01102   0.01912   0.02072   0.02220   0.03118
  Beta virt. eigenvalues --    0.03982   0.04688   0.05133   0.05136   0.05535

 Mulliken charges and spin densities:
               1          2
     1  C   -0.279363  -0.000000
     2  C    0.884443   0.000000
     3  C   -0.369088   0.000000
     4  C   -0.929305   0.000000
     5  O   -0.228263  -0.000000
     6  C    0.472260  -0.000000
     7  C    0.051220   0.000000
     8  C   -0.276105  -0.000000
     9  C   -0.386355  -0.000000
    10  C    0.082110   0.000000
    11  C    0.336221   0.000000
    12  C   -0.583983  -0.000000
    13  O   -0.210048   0.000000
    14  H    0.156885   0.000000
    15  H    0.186973  -0.000000
    16  H    0.186929  -0.000000
    17  H    0.183859  -0.000000
    18  H    0.182352  -0.000000
    19  H    0.180482  -0.000000
    20  H    0.182213  -0.000000
    21  H    0.176565   0.000000
 Sum of Mulliken charges =  -0.00000   0.00000

 Dipole moment (field-independent basis, Debye):
    X=              0.8472    Y=              0.1456    Z=              0.7167  Tot=              1.1192
 Quadrupole moment (field-independent basis, Debye-Ang):
   XX=            -58.7202   YY=            -76.8222   ZZ=            -89.2294
   XY=              0.5361   XZ=             -0.2358   YZ=             -2.1228

  Exact polarizability: 168.829   1.978  71.704  -7.503  14.705 159.368
 Approx polarizability: 238.981   2.203 114.858 -12.032  34.037 316.774

                      1                      2                      3
                      A                      A                      A
 Frequencies --     57.8882               117.9836               131.0742
 Red. masses --      5.9522                 4.5634                 1.3896
 Frc consts  --      0.0118                 0.0374                 0.0141
 IR Inten    --      8.7273                 0.0013                 0.0327

                      4                      5                      6
                      A                      A                      A
 Frequencies --    159.1074               204.7616               252.2303
 Red. masses --      2.4963                 3.7101                 3.9694
 Frc consts  --      0.0372                 0.0917                 0.1488
 IR Inten    --      1.3625                 0.3137                 1.0218

                      7                      8                      9
                      A                      A                      A
 Frequencies --    299.6712               354.2106               379.4825
 Red. masses --      4.0459                 3.7730                10.0336
 Frc consts  --      0.2141                 0.2789                 0.8513
 IR Inten    --      0.0736                 0.3771                12.3133

                     10                     11                     12
                      A                      A                      A
 Frequencies --    407.1584               425.7995               462.1206
 Red. masses --      6.8151                 3.3352                 9.2510
 Frc consts  --      0.6657                 0.3563                 1.1640
 IR Inten    --      9.5182                 0.2610                 5.0665

                     13                     14                     15
                      A                      A                      A
 Frequencies --    479.1222               518.3943               651.8750
 Red. masses --      3.9207                 7.7785                 4.3451
 Frc consts  --      0.5303                 1.2316                 1.0879
 IR Inten    --      0.0018                 4.5448                 1.9568

                     16                     17                     18
                      A                      A                      A
 Frequencies --    660.0325               680.1496               704.3466
 Red. masses --      6.0160                 3.1096                 3.5640
 Frc consts  --      1.5441                 0.8476                 1.0417
 IR Inten    --      2.1175                15.1180                16.9097

                     19                     20                     21
                      A                      A                      A
 Frequencies --    719.9164               791.2954               797.6117
 Red. masses --      6.2386                 1.5043                 3.8617
 Frc consts  --      1.9050                 0.5549                 1.4475
 IR Inten    --      2.6694                44.2173                 5.5962

                     22                     23                     24
                      A                      A                      A
 Frequencies --    801.1930               915.1704               916.8027
 Red. masses --      4.6213                 1.4079                 1.4630
 Frc consts  --      1.7478                 0.6947                 0.7245
 IR Inten    --      1.3133                 3.8092                11.7539

                     25                     26                     27
                      A                      A                      A
 Frequencies --    950.7830              1000.9963              1018.7848
 Red. masses --      4.8442                 1.3831                 1.3260
 Frc consts  --      2.5801                 0.8165                 0.8109
 IR Inten    --     39.9206                 0.9963                 0.0133

                     28                     29                     30
                      A                      A                      A
 Frequencies --   1029.8494              1050.3064              1058.0862
 Red. masses --      1.7708                 2.3884                 1.5331
 Frc consts  --      1.1066                 1.5523                 1.0113
 IR Inten    --     12.2147                 2.5760                 2.8422

                     31                     32                     33
                      A                      A                      A
 Frequencies --   1103.6637              1125.2719              1178.5062
 Red. masses --      2.5161                 2.3688                 1.7394
 Frc consts  --      1.8057                 1.7672                 1.4233
 IR Inten    --      1.6298                 3.9683                17.0039

                     34                     35                     36
                      A                      A                      A
 Frequencies --   1185.3456              1251.9926              1279.2122
 Red. masses --      1.2635                 1.9508                 2.3565
 Frc consts  --      1.0459                 1.8017                 2.2720
 IR Inten    --      3.1111                16.0877               148.8976

                     37                     38                     39
                      A                      A                      A
 Frequencies --   1313.6930              1357.6245              1367.0730
 Red. masses --      2.8763                 5.7547                 2.6721
 Frc consts  --      2.9246                 6.2494                 2.9423
 IR Inten    --    156.5425                 2.4172                37.7555

                     40                     41                     42
                      A                      A                      A
 Frequencies --   1415.4208              1466.9120              1478.5590
 Red. masses --      1.2905                 1.0434                 1.0848
 Frc consts  --      1.5233                 1.3228                 1.3972
 IR Inten    --     12.6124                 9.0611                10.2662

                     43                     44                     45
                      A                      A                      A
 Frequencies --   1483.0910              1505.8015              1613.1929
 Red. masses --      2.3490                 2.5920                 6.6098
 Frc consts  --      3.0442                 3.4628                10.1346
 IR Inten    --      0.3190                 2.0261                 0.7955

                     46                     47                     48
                      A                      A                      A
 Frequencies --   1629.1532              1675.4182              1718.2021
 Red. masses --      5.8446                 8.0618                10.5980
 Frc consts  --      9.1397                13.3331                18.4342
 IR Inten    --     70.4007                63.4077                37.6517

                     49                     50                     51
                      A                      A                      A
 Frequencies --   1722.5069              3036.7965              3087.6694
 Red. masses --     12.0394                 1.0357                 1.0986
 Frc consts  --     21.0464                 5.6274                 6.1712
 IR Inten    --    385.7119                 8.5157                 5.7968

                     52                     53                     54
                      A                      A                      A
 Frequencies --   3122.2265              3169.0037              3170.4930
 Red. masses --      1.1034                 1.0916                 1.0870
 Frc consts  --      6.3373                 6.4591                 6.4375
 IR Inten    --     12.0545                 6.8482                 3.0042

                     55                     56                     57
                      A                      A                      A
 Frequencies --   3184.5243              3198.4764              3201.3393
 Red. masses --      1.0914                 1.0927                 1.0953
 Frc consts  --      6.5214                 6.5860                 6.6137
 IR Inten    --      8.1971                 0.5555                 9.7007

 - Thermochemistry -
 -------------------
 Temperature   298.150 Kelvin.  Pressure   1.00000 Atm.
 Atom     1 has atomic number  6 and mass  12.00000

 Molecular mass:   172.05243 amu.
 Principal axes and moments of inertia in atomic units:
                           1         2         3
     Eigenvalues --  1401.219902348.910303739.12736
           X            0.97576   0.21650  -0.03188
           Y           -0.00473   0.16652   0.98603
           Z           -0.21878   0.96198  -0.16351
 This molecule is an asymmetric top.
 Rotational symmetry number  1.
 Warning -- assumption of classical behavior for rotation
           may cause significant error
 Rotational temperatures (Kelvin)      0.06181     0.03687     0.02316
 Rotational constants (GHZ):           1.28798     0.76833     0.48266
 Zero-point vibrational energy     418916.5 (Joules/Mol)
                                  100.12345 (Kcal/Mol)
 Warning -- explicit consideration of  14 degrees of freedom as
           vibrations may cause significant error
 Vibrational temperatures:     83.29   169.75   188.59   228.92   294.61
          (Kelvin)            362.90   431.16   509.63   545.99   585.81
                              612.63   664.89   689.35   745.85   937.90
                              949.64   978.58  1013.40  1035.80  1138.50
                             1147.59  1152.74  1316.73  1319.07  1367.96
                             1440.21  1465.80  1481.72  1511.16  1522.35
                             1587.93  1619.02  1695.61  1705.45  1801.34
                             1840.50  1890.11  1953.32  1966.91  2036.47
                             2110.56  2127.32  2133.84  2166.51  2321.02
                             2343.99  2410.55  2472.11  2478.30  4369.27
                             4442.47  4492.19  4559.49  4561.63  4581.82
                             4601.89  4606.01

 Zero-point correction=                           0.159557 (Hartree/Particle)
 Thermal correction to Energy=                    0.169974
 Thermal correction to Enthalpy=                  0.170918
 Thermal correction to Gibbs Free Energy=         0.123321
 Sum of electronic and zero-point Energies=           -574.431051
 Sum of electronic and thermal Energies=              -574.420634
 Sum of electronic and thermal Enthalpies=            -574.419690
 Sum of electronic and thermal Free Energies=         -574.467287

                     E (Thermal)             CV                S
                      KCal/Mol        Cal/Mol-Kelvin    Cal/Mol-Kelvin
 Total                  106.660             40.443            100.176
 Electronic               0.000              0.000              0.000
 Translational            0.889              2.981             41.335
 Rotational               0.889              2.981             30.888
 Vibrational            104.883             34.481             27.953
 Vibration     1          0.596              1.974              4.528
 Vibration     2          0.608              1.934              3.133
 Vibration     3          0.612              1.922              2.930
 Vibration     4          0.621              1.892              2.560
 Vibration     5          0.640              1.833              2.090
 Vibration     6          0.664              1.759              1.715
 Vibration     7          0.692              1.674              1.419
 Vibration     8          0.730              1.567              1.147
 Vibration     9          0.749              1.514              1.041
 Vibration    10          0.772              1.455              0.937
 Vibration    11          0.788              1.414              0.872
 Vibration    12          0.820              1.334              0.760
 Vibration    13          0.836              1.296              0.712
 Vibration    14          0.873              1.209              0.614

 Optimization completed.
    -- Stationary point found.
 Normal termination of Gaussian 16 at Sun Jan  7 20:24:29 2024.
