 Q-Chem 5.4, Q-Chem, Inc., Pleasanton, CA (2021)
 Q-Chem 5.4.0 for Intel X86 EM64T Linux

User input:
--------------------------------------------------------------
$molecule
-1 2
C                 -0.5301840000     -2.1509690000      1.4827320000
C                  0.8617510000     -2.4490350000      1.3458100000
C                  1.8243950000     -1.4672610000      1.2112920000
C                  1.4383500000     -0.0456590000      1.2037690000
C                  0.0513000000      0.2533830000      1.3821340000
C                 -0.9111310000     -0.7283460000      1.5185250000
O                 -1.4334420000     -3.0431510000      1.5709820000
O                  2.3326950000      0.8449230000      1.0404550000
N                 -2.2772910000     -0.5455200000      1.7286710000
N                  3.2029380000     -1.6481540000      1.1045740000
C                 -3.1129700000      0.5454270000      1.2111490000
C                 -4.5705890000      0.0724740000      1.3563000000
C                 -2.9334250000      1.8226700000      2.0593450000
C                 -2.8284050000      0.8482240000     -0.2769090000
C                  3.8992620000     -2.7624510000      0.4485580000
C                  3.9289950000     -4.0050590000      1.3639410000
C                  5.3482260000     -2.2910710000      0.2302080000
C                  3.2756460000     -3.1213100000     -0.9186550000
H                  1.1117290000     -3.5025370000      1.3534540000
H                 -0.1952430000      1.3075420000      1.4018800000
H                 -2.7081200000     -1.4683170000      1.6817660000
H                  3.6059280000     -0.7301050000      0.9195790000
H                 -4.7478310000     -0.8260910000      0.7570000000
H                 -5.2645730000      0.8488620000      1.0212390000
H                 -4.7927720000     -0.1645280000      2.4009760000
H                 -3.1300670000      1.5999280000      3.1114100000
H                 -3.6279800000      2.6033830000      1.7292060000
H                 -1.9210020000      2.2198320000      1.9854150000
H                 -3.0192580000     -0.0407430000     -0.8850250000
H                 -1.7869840000      1.1368200000     -0.4272570000
H                 -3.4692440000      1.6604530000     -0.6379760000
H                  2.9293830000     -4.4012010000      1.5429770000
H                  4.3638540000     -3.7423650000      2.3319350000
H                  4.5319230000     -4.8005320000      0.9115960000
H                  5.8077850000     -2.0154380000      1.1839960000
H                  5.3762110000     -1.4168800000     -0.4278120000
H                  5.9478810000     -3.0829010000     -0.2281520000
H                  2.2290650000     -3.4098890000     -0.8096150000
H                  3.8172720000     -3.9504110000     -1.3876980000
H                  3.3154000000     -2.2576970000     -1.5888030000
$end
$rem
MAX_SCF_CYCLES=200
BASIS  =  6-311++G(d,p)
GUI  =  2
JOB_TYPE  =  SP
METHOD  =  B3LYP
SOLVENT_METHOD = COSMO
$end
$solvent
dielectric 37.219
opticaldielectric 1.43
$end

--------------------------------------------------------------

             Standard Nuclear Orientation (Angstroms)
    I     Atom           X                Y                Z
 ----------------------------------------------------------------
    1      C       0.4914621222    -1.3623813631    -0.3279232236
    2      C      -0.9100044531    -1.0786872849    -0.3499033742
    3      C      -1.4096941863     0.2093219320    -0.3509886310
    4      C      -0.4918256488     1.3612965942    -0.3283764762
    5      C       0.9097123128     1.0776617306    -0.3481375456
    6      C       1.4094127159    -0.2103470546    -0.3489378680
    7      O       0.9681066869    -2.5417925373    -0.2898307159
    8      O      -0.9684733702     2.5407287712    -0.2908607488
    9      N       2.7487519538    -0.5944296563    -0.4002291353
   10      N      -2.7492304101     0.5931667744    -0.4038814845
   11      C       3.8938390809     0.1113460604     0.1888463075
   12      C       5.0486689253    -0.9056720038     0.2269092766
   13      C       4.3239287142     1.2966241510    -0.7017497276
   14      C       3.6066060692     0.6000195755     1.6260920299
   15      C      -3.8936938288    -0.1107589909     0.1890551981
   16      C      -4.3247717670    -1.2992907382    -0.6966359594
   17      C      -5.0485651587     0.9062822488     0.2247179009
   18      C      -3.6046499848    -0.5942418337     1.6276816547
   19      H      -1.5570819905    -1.9467269568    -0.3644527326
   20      H       1.5566535660     1.9458327634    -0.3611999083
   21      H       2.7690045318    -1.6069661429    -0.2830638425
   22      H      -2.7691383240     1.6058274605    -0.2874337871
   23      H       4.7922655746    -1.7594119476     0.8620310806
   24      H       5.9573974415    -0.4446784627     0.6248482562
   25      H       5.2610090508    -1.2799555596    -0.7789270269
   26      H       4.5194054725     0.9449763174    -1.7182414772
   27      H       5.2353930051     1.7610307992    -0.3087223656
   28      H       3.5518678164     2.0641815525    -0.7563504184
   29      H       3.3655575984    -0.2496907969     2.2713673060
   30      H       2.7572061634     1.2845361924     1.6462581568
   31      H       4.4785752458     1.1165234859     2.0428094599
   32      H      -3.5534945288    -2.0678662240    -0.7479162524
   33      H      -4.5199045295    -0.9517021145    -1.7145889176
   34      H      -5.2366748078    -1.7612137693    -0.3016987194
   35      H      -5.2624762434     1.2764017283    -0.7823239021
   36      H      -4.7912800336     1.7626122499     0.8559759137
   37      H      -5.9566324139     0.4468114615     0.6259350655
   38      H      -2.7546614576    -1.2780244409     1.6491339312
   39      H      -4.4757367385    -1.1100144898     2.0471515138
   40      H      -3.3635212155     0.2578290566     2.2698173496
 ----------------------------------------------------------------

   10    -806.9822032318      8.83e-06  Convergence criterion met
 Total energy in the final basis set =     -806.9822032318
    4    -807.0743588496      5.60e-06  Convergence criterion met
 Total energy in the final basis set =     -807.0743588496

                    Orbital Energies (a.u.)
 --------------------------------------------------------------

 Alpha MOs
 -- Occupied --
-19.0717 -19.0716 -14.3081 -14.3080 -10.2145 -10.2144 -10.2123 -10.2122
-10.1984 -10.1983 -10.1540 -10.1540 -10.1505 -10.1505 -10.1500 -10.1500
-10.1433 -10.1432  -0.9981  -0.9947  -0.9200  -0.9199  -0.8141  -0.7914
 -0.7675  -0.7151  -0.6853  -0.6834  -0.6828  -0.6827  -0.6637  -0.6096
 -0.5708  -0.5645  -0.5363  -0.5049  -0.4822  -0.4795  -0.4647  -0.4457
 -0.4451  -0.4420  -0.4235  -0.4229  -0.4153  -0.4136  -0.4093  -0.4012
 -0.3934  -0.3850  -0.3831  -0.3766  -0.3733  -0.3724  -0.3629  -0.3621
 -0.3616  -0.3416  -0.3394  -0.3381  -0.3248  -0.3245  -0.3033  -0.2947
 -0.2489  -0.2396  -0.2329  -0.1987  -0.1425

 Beta MOs
 -- Occupied --
-19.0667 -19.0666 -14.3066 -14.3065 -10.2122 -10.2122 -10.2122 -10.2121
-10.1961 -10.1960 -10.1540 -10.1540 -10.1505 -10.1505 -10.1499 -10.1499
-10.1440 -10.1439  -0.9894  -0.9858  -0.9167  -0.9163  -0.8099  -0.7901
 -0.7658  -0.7139  -0.6851  -0.6828  -0.6826  -0.6825  -0.6546  -0.6073
 -0.5672  -0.5631  -0.5345  -0.5026  -0.4790  -0.4783  -0.4638  -0.4447
 -0.4430  -0.4410  -0.4229  -0.4213  -0.4113  -0.4082  -0.4043  -0.3977
 -0.3915  -0.3823  -0.3792  -0.3762  -0.3704  -0.3634  -0.3619  -0.3616
 -0.3519  -0.3375  -0.3367  -0.3354  -0.3244  -0.3242  -0.2961  -0.2766
 -0.2441  -0.2346  -0.2173  -0.1909

          Ground-State Mulliken Net Atomic Charges

     Atom                 Charge (a.u.)    Spin (a.u.)
  --------------------------------------------------------
      1 C                    -0.302477       0.141337
      2 C                    -0.048697      -0.094416
      3 C                    -0.078492       0.204414
      4 C                    -0.303133       0.141216
      5 C                    -0.052440      -0.094441
      6 C                    -0.077998       0.204018
      7 O                    -0.562198       0.180149
      8 O                    -0.562354       0.180029
      9 N                     0.044590       0.068454
     10 N                     0.045030       0.068289
     11 C                    -0.071528      -0.004418
     12 C                    -0.513418       0.000328
     13 C                    -0.461705       0.002919
     14 C                    -0.488607       0.004665
     15 C                    -0.072080      -0.004529
     16 C                    -0.462015       0.002941
     17 C                    -0.512961       0.000327
     18 C                    -0.489454       0.004692
     19 H                     0.239617      -0.001937
     20 H                     0.240036      -0.001905
     21 H                     0.339403      -0.002146
     22 H                     0.338970      -0.002105
     23 H                     0.158912      -0.000158
     24 H                     0.157613      -0.000138
     25 H                     0.162323       0.000962
     26 H                     0.163271       0.000222
     27 H                     0.158560       0.000080
     28 H                     0.124164       0.000407
     29 H                     0.165722       0.000404
     30 H                     0.155205      -0.001336
     31 H                     0.159770       0.000601
     32 H                     0.124664       0.000463
     33 H                     0.163303       0.000211
     34 H                     0.158462       0.000071
     35 H                     0.162349       0.000968
     36 H                     0.158862      -0.000163
     37 H                     0.157557      -0.000139
     38 H                     0.155834      -0.001340
     39 H                     0.159614       0.000595
     40 H                     0.165726       0.000411
  --------------------------------------------------------
  Sum of atomic charges =    -1.000000

                    Cartesian Multipole Moments
 -----------------------------------------------------------------
    Charge (ESU x 10^10)
                -4.8032
    Dipole Moment (Debye)
         X       0.0102      Y       0.0030      Z       3.4786
       Tot       3.4786
    Quadrupole Moments (Debye-Ang)
        XX    -102.9087     XY      12.7268     YY    -151.6568
        XZ      -0.0147     YZ       0.0053     ZZ    -120.0666

 Total job time:  134.34s(wall), 1018.71s(cpu)
        *  Thank you very much for using Q-Chem.  Have a nice day.  *
