 Gaussian 16, Revision A.03,
 Gaussian 16:  ES64L-G16RevA.03 25-Dec-2016

 --------------------------------------
 #P UB3LYP/6-311++G(d,p) nosym opt freq
 --------------------------------------

 -------
 Radical
 -------
 Symbolic Z-matrix:
 Charge = -1 Multiplicity = 2

 SCF Done:  E(UB3LYP) =  -806.982335980     A.U. after   22 cycles
 Optimization completed.
    -- Stationary point found.
 Normal termination of Gaussian 16 at Wed Jan 10 17:03:07 2024.

 ----------------------------------------------------------------------
 #P Geom=AllCheck Guess=TCheck SCRF=Check GenChk UB3LYP/6-311++G(d,p) F
 req
 ----------------------------------------------------------------------

 Structure from the checkpoint file:  "107-rad.chk"
 -------
 Radical
 -------
 Charge = -1 Multiplicity = 2

                          Input orientation:
 ---------------------------------------------------------------------
 Center     Atomic      Atomic             Coordinates (Angstroms)
 Number     Number       Type             X           Y           Z
 ---------------------------------------------------------------------
      1          6           0       -0.530184   -2.150969    1.482732
      2          6           0        0.861751   -2.449035    1.345810
      3          6           0        1.824395   -1.467261    1.211292
      4          6           0        1.438350   -0.045659    1.203769
      5          6           0        0.051300    0.253383    1.382134
      6          6           0       -0.911131   -0.728346    1.518525
      7          8           0       -1.433442   -3.043151    1.570982
      8          8           0        2.332695    0.844923    1.040455
      9          7           0       -2.277291   -0.545520    1.728671
     10          7           0        3.202938   -1.648154    1.104574
     11          6           0       -3.112970    0.545427    1.211149
     12          6           0       -4.570589    0.072474    1.356300
     13          6           0       -2.933425    1.822670    2.059345
     14          6           0       -2.828405    0.848224   -0.276909
     15          6           0        3.899262   -2.762451    0.448558
     16          6           0        3.928995   -4.005059    1.363941
     17          6           0        5.348226   -2.291071    0.230208
     18          6           0        3.275646   -3.121310   -0.918655
     19          1           0        1.111729   -3.502537    1.353454
     20          1           0       -0.195243    1.307542    1.401880
     21          1           0       -2.708120   -1.468317    1.681766
     22          1           0        3.605928   -0.730105    0.919579
     23          1           0       -4.747831   -0.826091    0.757000
     24          1           0       -5.264573    0.848862    1.021239
     25          1           0       -4.792772   -0.164528    2.400976
     26          1           0       -3.130067    1.599928    3.111410
     27          1           0       -3.627980    2.603383    1.729206
     28          1           0       -1.921002    2.219832    1.985415
     29          1           0       -3.019258   -0.040743   -0.885025
     30          1           0       -1.786984    1.136820   -0.427257
     31          1           0       -3.469244    1.660453   -0.637976
     32          1           0        2.929383   -4.401201    1.542977
     33          1           0        4.363854   -3.742365    2.331935
     34          1           0        4.531923   -4.800532    0.911596
     35          1           0        5.807785   -2.015438    1.183996
     36          1           0        5.376211   -1.416880   -0.427812
     37          1           0        5.947881   -3.082901   -0.228152
     38          1           0        2.229065   -3.409889   -0.809615
     39          1           0        3.817272   -3.950411   -1.387698
     40          1           0        3.315400   -2.257697   -1.588803
 ---------------------------------------------------------------------

 SCF Done:  E(UB3LYP) =  -806.982335980     A.U. after    1 cycles

 Alpha  occ. eigenvalues --  -18.92806 -18.92805 -14.18322 -14.18313 -10.11275
 Alpha  occ. eigenvalues --  -10.11267 -10.07460 -10.07458 -10.06699 -10.06693
 Alpha  occ. eigenvalues --  -10.06386 -10.06378 -10.05804 -10.05801 -10.05478
 Alpha  occ. eigenvalues --  -10.05472 -10.01114 -10.01113  -0.85530  -0.85123
 Alpha  occ. eigenvalues --   -0.79941  -0.79837  -0.69590  -0.68666  -0.64909
 Alpha  occ. eigenvalues --   -0.59850  -0.59396  -0.58813  -0.58807  -0.57812
 Alpha  occ. eigenvalues --   -0.53436  -0.49207  -0.45337  -0.44366  -0.42014
 Alpha  occ. eigenvalues --   -0.38693  -0.37191  -0.36483  -0.35043  -0.34870
 Alpha  occ. eigenvalues --   -0.34823  -0.33314  -0.32238  -0.30985  -0.30178
 Alpha  occ. eigenvalues --   -0.30010  -0.29709  -0.29271  -0.28591  -0.27798
 Alpha  occ. eigenvalues --   -0.27114  -0.26936  -0.26769  -0.26312  -0.25167
 Alpha  occ. eigenvalues --   -0.25137  -0.24725  -0.24027  -0.22823  -0.22608
 Alpha  occ. eigenvalues --   -0.22519  -0.20899  -0.17983  -0.16155  -0.10314
 Alpha  occ. eigenvalues --   -0.10147  -0.09542  -0.06678  -0.00317
 Alpha virt. eigenvalues --    0.07133   0.07178   0.09467   0.09509   0.09605
 Alpha virt. eigenvalues --    0.09846   0.10379   0.10986   0.12059   0.12121
 Alpha virt. eigenvalues --    0.12500   0.12807   0.13065   0.13112   0.13781

  Beta  occ. eigenvalues --  -18.92222 -18.92221 -14.18219 -14.18210 -10.11270
  Beta  occ. eigenvalues --  -10.11262 -10.07269 -10.07268 -10.06699 -10.06693
  Beta  occ. eigenvalues --  -10.06158 -10.06150 -10.05800 -10.05797 -10.05473
  Beta  occ. eigenvalues --  -10.05467 -10.01162 -10.01161  -0.84616  -0.84164
  Beta  occ. eigenvalues --   -0.79646  -0.79500  -0.69296  -0.68539  -0.64599
  Beta  occ. eigenvalues --   -0.59812  -0.59383  -0.58800  -0.58794  -0.57694
  Beta  occ. eigenvalues --   -0.52557  -0.49039  -0.45162  -0.44049  -0.41820
  Beta  occ. eigenvalues --   -0.38583  -0.37038  -0.36407  -0.34856  -0.34822
  Beta  occ. eigenvalues --   -0.34676  -0.33246  -0.32152  -0.30894  -0.29991
  Beta  occ. eigenvalues --   -0.29934  -0.29598  -0.29172  -0.28548  -0.27733
  Beta  occ. eigenvalues --   -0.27025  -0.26902  -0.26090  -0.25689  -0.24870
  Beta  occ. eigenvalues --   -0.24682  -0.24476  -0.23650  -0.22769  -0.22404
  Beta  occ. eigenvalues --   -0.20595  -0.20456  -0.17016  -0.14349  -0.09767
  Beta  occ. eigenvalues --   -0.08983  -0.08245  -0.05932
  Beta virt. eigenvalues --    0.06451   0.07129   0.07174   0.09460   0.09506
  Beta virt. eigenvalues --    0.09619   0.09872   0.10380   0.10982   0.12060
  Beta virt. eigenvalues --    0.12123   0.12502   0.12805   0.13062   0.13272

 Mulliken charges and spin densities:
               1          2
     1  C   -0.536982   0.111110
     2  C    0.096458  -0.066334
     3  C   -0.011033   0.197663
     4  C   -0.539007   0.111068
     5  C    0.091211  -0.066480
     6  C   -0.008062   0.197415
     7  O   -0.422149   0.214956
     8  O   -0.422213   0.214894
     9  N    0.129230   0.044268
    10  N    0.130074   0.044194
    11  C   -0.118242   0.000820
    12  C   -0.485930  -0.003213
    13  C   -0.406201  -0.001909
    14  C   -0.460154   0.004884
    15  C   -0.118302   0.000674
    16  C   -0.406493  -0.001885
    17  C   -0.486221  -0.003246
    18  C   -0.460981   0.004958
    19  H    0.211035  -0.003072
    20  H    0.211130  -0.003037
    21  H    0.313671  -0.002144
    22  H    0.313311  -0.002085
    23  H    0.144615   0.000071
    24  H    0.114817  -0.000180
    25  H    0.143259   0.001998
    26  H    0.141231   0.001448
    27  H    0.114905   0.000413
    28  H    0.115086   0.000310
    29  H    0.149491   0.000568
    30  H    0.158158  -0.002493
    31  H    0.110968   0.001103
    32  H    0.115160   0.000365
    33  H    0.141432   0.001444
    34  H    0.114744   0.000397
    35  H    0.143281   0.002003
    36  H    0.144624   0.000062
    37  H    0.114777  -0.000181
    38  H    0.158833  -0.002495
    39  H    0.110933   0.001093
    40  H    0.149538   0.000577
 Sum of Mulliken charges =  -1.00000   1.00000

 Dipole moment (field-independent basis, Debye):
    X=             -2.2781    Y=              5.2615    Z=             -7.2113  Tot=              9.2128
 Quadrupole moment (field-independent basis, Debye-Ang):
   XX=           -139.3592   YY=           -144.8484   ZZ=           -131.6776
   XY=            -10.1745   XZ=             -1.0444   YZ=              9.8040

  Exact polarizability: 300.839 -20.485 218.287 -16.815   1.067 157.385
 Approx polarizability: 409.793  40.014 337.615 -22.197  -7.087 232.456

                      1                      2                      3
                      A                      A                      A
 Frequencies --     20.9130                38.9671                44.8342
 Red. masses --      3.6437                 4.1079                 2.8182
 Frc consts  --      0.0009                 0.0037                 0.0033
 IR Inten    --      3.1886                 5.3136                 0.9273

                      4                      5                      6
                      A                      A                      A
 Frequencies --     70.2699                93.2632               117.6683
 Red. masses --      3.0480                 4.0906                 5.2505
 Frc consts  --      0.0089                 0.0210                 0.0428
 IR Inten    --      2.3168                 3.8996                 3.6671

                      7                      8                      9
                      A                      A                      A
 Frequencies --    128.5499               186.4297               194.0246
 Red. masses --      4.4767                 1.6575                 1.0927
 Frc consts  --      0.0436                 0.0339                 0.0242
 IR Inten    --      1.0207                 0.8844                 0.0554

                     10                     11                     12
                      A                      A                      A
 Frequencies --    208.2321               226.9920               234.0826
 Red. masses --      2.1239                 1.9311                 1.2713
 Frc consts  --      0.0543                 0.0586                 0.0410
 IR Inten    --      0.0008                 0.1641                 4.7689

                     13                     14                     15
                      A                      A                      A
 Frequencies --    240.9288               253.2850               264.6517
 Red. masses --      1.5352                 2.6537                 2.1497
 Frc consts  --      0.0525                 0.1003                 0.0887
 IR Inten    --      0.3993                 0.6019                 6.9780

                     16                     17                     18
                      A                      A                      A
 Frequencies --    270.6726               272.8946               284.5801
 Red. masses --      1.1565                 1.2432                 1.9975
 Frc consts  --      0.0499                 0.0545                 0.0953
 IR Inten    --      0.1898                 1.1824                 0.0872

                     19                     20                     21
                      A                      A                      A
 Frequencies --    309.7236               351.3838               352.5649
 Red. masses --      3.2978                 2.6049                 2.4851
 Frc consts  --      0.1864                 0.1895                 0.1820
 IR Inten    --      7.5602                 0.7179                 0.5275

                     22                     23                     24
                      A                      A                      A
 Frequencies --    387.1721               389.7248               427.4904
 Red. masses --      2.5181                 2.5756                 4.0119
 Frc consts  --      0.2224                 0.2305                 0.4320
 IR Inten    --      0.0364                 0.7875                 1.1595

                     25                     26                     27
                      A                      A                      A
 Frequencies --    432.9264               445.2203               451.6373
 Red. masses --      2.8012                 3.8694                 2.9322
 Frc consts  --      0.3093                 0.4519                 0.3524
 IR Inten    --      1.0937                20.7104                 0.1590

                     28                     29                     30
                      A                      A                      A
 Frequencies --    469.7021               482.2363               485.9533
 Red. masses --      2.8023                 6.1851                 3.5058
 Frc consts  --      0.3643                 0.8475                 0.4878
 IR Inten    --      0.9229                 0.0983                21.9001

                     31                     32                     33
                      A                      A                      A
 Frequencies --    533.4907               579.0458               647.4336
 Red. masses --      3.5412                 4.7993                 4.3861
 Frc consts  --      0.5938                 0.9481                 1.0832
 IR Inten    --      3.9587                 4.1534                 0.1334

                     34                     35                     36
                      A                      A                      A
 Frequencies --    663.8969               696.4867               732.1588
 Red. masses --      2.4715                 1.8555                 2.4028
 Frc consts  --      0.6418                 0.5303                 0.7589
 IR Inten    --     72.3555                35.3875                 2.8695

                     37                     38                     39
                      A                      A                      A
 Frequencies --    737.3339               755.6667               767.6165
 Red. masses --      5.9037                 1.7911                 3.8486
 Frc consts  --      1.8911                 0.6026                 1.3361
 IR Inten    --     14.7092                70.3040                 0.3614

                     40                     41                     42
                      A                      A                      A
 Frequencies --    775.2889               802.3542               815.2596
 Red. masses --      3.5700                 2.3744                 1.9589
 Frc consts  --      1.2643                 0.9006                 0.7671
 IR Inten    --     19.5762                14.8474                 0.8571

                     43                     44                     45
                      A                      A                      A
 Frequencies --    833.5114               901.0365               904.3862
 Red. masses --      1.5776                 2.2682                 1.7894
 Frc consts  --      0.6458                 1.0850                 0.8623
 IR Inten    --     56.2641                11.7884                 1.5860

                     46                     47                     48
                      A                      A                      A
 Frequencies --    905.7476               919.8961               929.4437
 Red. masses --      1.8653                 1.7800                 1.5796
 Frc consts  --      0.9016                 0.8874                 0.8040
 IR Inten    --      1.3317                 0.3492                 1.7948

                     49                     50                     51
                      A                      A                      A
 Frequencies --    954.6880               956.4567               958.8072
 Red. masses --      1.4098                 1.2049                 1.6272
 Frc consts  --      0.7570                 0.6494                 0.8813
 IR Inten    --      0.0077                 0.1301                 0.1267

                     52                     53                     54
                      A                      A                      A
 Frequencies --    973.5823              1043.2546              1043.5997
 Red. masses --      2.4832                 1.3957                 1.4008
 Frc consts  --      1.3868                 0.8950                 0.8988
 IR Inten    --     12.5101                 0.8317                 8.5132

                     55                     56                     57
                      A                      A                      A
 Frequencies --   1053.9216              1054.0740              1187.1261
 Red. masses --      1.4176                 1.4228                 3.6485
 Frc consts  --      0.9277                 0.9314                 3.0294
 IR Inten    --      1.2603                 0.4349               148.5018

                     58                     59                     60
                      A                      A                      A
 Frequencies --   1202.8358              1220.0135              1222.4105
 Red. masses --      2.2786                 5.9616                 2.4465
 Frc consts  --      1.9424                 5.2280                 2.1539
 IR Inten    --      0.0063                15.8701                10.6833

                     61                     62                     63
                      A                      A                      A
 Frequencies --   1224.1164              1232.9821              1234.8339
 Red. masses --      2.4664                 2.5414                 2.5136
 Frc consts  --      2.1775                 2.2763                 2.2582
 IR Inten    --     11.8562                15.4559                 4.1431

                     64                     65                     66
                      A                      A                      A
 Frequencies --   1248.2366              1254.3694              1269.7235
 Red. masses --      2.2421                 3.0276                 2.4264
 Frc consts  --      2.0583                 2.8068                 2.3048
 IR Inten    --      2.0299               418.2467                 1.4678

                     67                     68                     69
                      A                      A                      A
 Frequencies --   1306.9049              1386.4681              1387.0789
 Red. masses --      2.1251                 1.3085                 1.2393
 Frc consts  --      2.1386                 1.4820                 1.4049
 IR Inten    --    103.3100                 3.4380                17.8060

                     70                     71                     72
                      A                      A                      A
 Frequencies --   1388.3845              1388.9287              1394.1597
 Red. masses --      1.2774                 1.2403                 2.9458
 Frc consts  --      1.4508                 1.4097                 3.3735
 IR Inten    --     18.6676                14.1934                 4.4806

                     73                     74                     75
                      A                      A                      A
 Frequencies --   1416.0931              1417.7666              1471.4289
 Red. masses --      1.2357                 1.2529                 1.0500
 Frc consts  --      1.4600                 1.4838                 1.3394
 IR Inten    --     77.9229                 1.7247                 1.1398

                     76                     77                     78
                      A                      A                      A
 Frequencies --   1471.5450              1478.4137              1487.6190
 Red. masses --      1.0496                 2.3794                 1.0484
 Frc consts  --      1.3391                 3.0642                 1.3670
 IR Inten    --      0.7324                 1.4942                 1.7785

                     79                     80                     81
                      A                      A                      A
 Frequencies --   1487.9167              1489.0846              1490.6637
 Red. masses --      1.0460                 1.0671                 1.0670
 Frc consts  --      1.3643                 1.3941                 1.3969
 IR Inten    --      0.3612                45.4159                 0.0673

                     82                     83                     84
                      A                      A                      A
 Frequencies --   1491.6981              1497.6095              1500.2582
 Red. masses --      1.1157                 1.2045                 1.0717
 Frc consts  --      1.4627                 1.5916                 1.4212
 IR Inten    --     19.6691               138.5929                 5.8677

                     85                     86                     87
                      A                      A                      A
 Frequencies --   1502.2921              1510.6970              1519.0868
 Red. masses --      1.4591                 2.0311                 1.0618
 Frc consts  --      1.9402                 2.7310                 1.4437
 IR Inten    --      0.0385               390.4337                 6.6343

                     88                     89                     90
                      A                      A                      A
 Frequencies --   1519.3926              1529.6442              1566.3545
 Red. masses --      1.2277                 2.7142                 2.1283
 Frc consts  --      1.6699                 3.7417                 3.0765
 IR Inten    --    210.1251               319.7452               221.2180

                     91                     92                     93
                      A                      A                      A
 Frequencies --   1568.7039              1630.5579              3010.1421
 Red. masses --      1.7562                 6.8174                 1.0401
 Frc consts  --      2.5463                10.6792                 5.5525
 IR Inten    --      1.8422                 1.1956                 9.7783

                     94                     95                     96
                      A                      A                      A
 Frequencies --   3010.2220              3012.4522              3012.5473
 Red. masses --      1.0401                 1.0362                 1.0362
 Frc consts  --      5.5530                 5.5402                 5.5404
 IR Inten    --     56.3752                24.4981                28.7128

                     97                     98                     99
                      A                      A                      A
 Frequencies --   3021.2120              3021.7270              3072.2624
 Red. masses --      1.0396                 1.0394                 1.0991
 Frc consts  --      5.5907                 5.5919                 6.1123
 IR Inten    --    192.4146                 7.8417                15.3478

                    100                    101                    102
                      A                      A                      A
 Frequencies --   3072.3413              3077.5612              3077.6605
 Red. masses --      1.0991                 1.0982                 1.0982
 Frc consts  --      6.1126                 6.1283                 6.1285
 IR Inten    --      2.5011                 6.2618                 9.0884

                    103                    104                    105
                      A                      A                      A
 Frequencies --   3081.1523              3081.2626              3086.5136
 Red. masses --      1.1011                 1.1011                 1.1006
 Frc consts  --      6.1591                 6.1595                 6.1774
 IR Inten    --     86.2659                34.0997                97.9424

                    106                    107                    108
                      A                      A                      A
 Frequencies --   3086.6632              3108.9382              3109.1889
 Red. masses --      1.1005                 1.0988                 1.0988
 Frc consts  --      6.1778                 6.2577                 6.2581
 IR Inten    --     74.8722                 9.5010                 9.1933

                    109                    110                    111
                      A                      A                      A
 Frequencies --   3118.5925              3118.8559              3182.5918
 Red. masses --      1.0976                 1.0976                 1.0872
 Frc consts  --      6.2897                 6.2904                 6.4884
 IR Inten    --     34.7724                17.2917                56.1902

                    112                    113                    114
                      A                      A                      A
 Frequencies --   3184.9287              3448.6250              3449.4478
 Red. masses --      1.0877                 1.0742                 1.0744
 Frc consts  --      6.5007                 7.5271                 7.5317
 IR Inten    --      0.0029                15.8337               100.8926

 - Thermochemistry -
 -------------------
 Temperature   298.150 Kelvin.  Pressure   1.00000 Atm.
 Atom     1 has atomic number  6 and mass  12.00000

 Molecular mass:   250.16813 amu.
 Principal axes and moments of inertia in atomic units:
                           1         2         3
     Eigenvalues --  1901.495249192.85639**********
           X            0.91518   0.38538   0.11801
           Y           -0.39034   0.92042   0.02138
           Z           -0.10038  -0.06563   0.99278
 This molecule is an asymmetric top.
 Rotational symmetry number  1.
 Warning -- assumption of classical behavior for rotation
           may cause significant error
 Rotational temperatures (Kelvin)      0.04555     0.00942     0.00851
 Rotational constants (GHZ):           0.94912     0.19632     0.17732
 Zero-point vibrational energy     891910.0 (Joules/Mol)
                                  213.17159 (Kcal/Mol)
 Warning -- explicit consideration of  32 degrees of freedom as
           vibrations may cause significant error
 Vibrational temperatures:     30.09    56.06    64.51   101.10   134.18
          (Kelvin)            169.30   184.95   268.23   279.16   299.60
                              326.59   336.79   346.64   364.42   380.77
                              389.44   392.63   409.45   445.62   505.56
                              507.26   557.05   560.73   615.06   622.88
                              640.57   649.81   675.80   693.83   699.18
                              767.57   833.12   931.51   955.20  1002.09
                             1053.41  1060.86  1087.24  1104.43  1115.47
                             1154.41  1172.98  1199.24  1296.39  1301.21
                             1303.17  1323.53  1337.26  1373.58  1376.13
                             1379.51  1400.77  1501.01  1501.51  1516.36
                             1516.58  1708.01  1730.61  1755.33  1758.78
                             1761.23  1773.99  1776.65  1795.93  1804.76
                             1826.85  1880.34  1994.82  1995.70  1997.58
                             1998.36  2005.88  2037.44  2039.85  2117.06
                             2117.23  2127.11  2140.35  2140.78  2142.46
                             2144.73  2146.22  2154.73  2158.54  2161.46
                             2173.56  2185.63  2186.07  2200.82  2253.63
                             2257.02  2346.01  4330.92  4331.04  4334.25
                             4334.38  4346.85  4347.59  4420.30  4420.41
                             4427.92  4428.07  4433.09  4433.25  4440.80
                             4441.02  4473.07  4473.43  4486.96  4487.34
                             4579.04  4582.40  4961.80  4962.99

 Zero-point correction=                           0.339711 (Hartree/Particle)
 Thermal correction to Energy=                    0.359464
 Thermal correction to Enthalpy=                  0.360408
 Thermal correction to Gibbs Free Energy=         0.291331
 Sum of electronic and zero-point Energies=           -806.642625
 Sum of electronic and thermal Energies=              -806.622872
 Sum of electronic and thermal Enthalpies=            -806.621928
 Sum of electronic and thermal Free Energies=         -806.691005

                     E (Thermal)             CV                S
                      KCal/Mol        Cal/Mol-Kelvin    Cal/Mol-Kelvin
 Total                  225.567             76.380            145.386
 Electronic               0.000              0.000              1.377
 Translational            0.889              2.981             42.451
 Rotational               0.889              2.981             33.542
 Vibrational            223.790             70.418             68.016
 Vibration     1          0.593              1.986              6.546
 Vibration     2          0.594              1.981              5.311
 Vibration     3          0.595              1.979              5.033
 Vibration     4          0.598              1.968              4.146
 Vibration     5          0.602              1.954              3.590
 Vibration     6          0.608              1.935              3.138
 Vibration     7          0.611              1.925              2.968
 Vibration     8          0.632              1.858              2.263
 Vibration     9          0.635              1.848              2.189
 Vibration    10          0.642              1.828              2.059
 Vibration    11          0.651              1.800              1.903
 Vibration    12          0.654              1.789              1.847
 Vibration    13          0.658              1.778              1.796
 Vibration    14          0.664              1.757              1.708
 Vibration    15          0.671              1.738              1.631
 Vibration    16          0.674              1.727              1.592
 Vibration    17          0.676              1.723              1.578
 Vibration    18          0.683              1.702              1.506
 Vibration    19          0.699              1.655              1.364
 Vibration    20          0.728              1.572              1.160
 Vibration    21          0.729              1.570              1.155
 Vibration    22          0.756              1.498              1.011
 Vibration    23          0.758              1.492              1.001
 Vibration    24          0.789              1.410              0.867
 Vibration    25          0.794              1.398              0.849
 Vibration    26          0.805              1.371              0.810
 Vibration    27          0.810              1.357              0.791
 Vibration    28          0.827              1.317              0.738
 Vibration    29          0.838              1.289              0.704
 Vibration    30          0.842              1.281              0.694
 Vibration    31          0.888              1.176              0.579
 Vibration    32          0.936              1.077              0.487

 Optimization completed.
    -- Stationary point found.
 Normal termination of Gaussian 16 at Wed Jan 10 20:04:01 2024.
