 Gaussian 16, Revision A.03,
 Gaussian 16:  ES64L-G16RevA.03 25-Dec-2016

 --------------------------------------
 #P UB3LYP/6-311++G(d,p) nosym opt freq
 --------------------------------------

 -------
 Reduced
 -------
 Symbolic Z-matrix:
 Charge = -2 Multiplicity = 1

 SCF Done:  E(UB3LYP) =  -819.535445379     A.U. after   37 cycles
 Optimization completed.
    -- Stationary point found.
 Normal termination of Gaussian 16 at Wed Dec 27 21:11:06 2023.

 ----------------------------------------------------------------------
 #P Geom=AllCheck Guess=TCheck SCRF=Check GenChk UB3LYP/6-311++G(d,p) F
 req
 ----------------------------------------------------------------------

 Structure from the checkpoint file:  "181-an.chk"
 -------
 Reduced
 -------
 Charge = -2 Multiplicity = 1

                          Input orientation:
 ---------------------------------------------------------------------
 Center     Atomic      Atomic             Coordinates (Angstroms)
 Number     Number       Type             X           Y           Z
 ---------------------------------------------------------------------
      1          7           0       -2.582329   -2.274750    0.604691
      2          6           0       -2.346517   -0.933970    0.220548
      3          6           0       -3.419029   -0.093426   -0.001198
      4          6           0       -3.215283    1.272531   -0.310436
      5          6           0       -1.942569    1.802791   -0.363638
      6          8           0       -1.815654    3.163891   -0.622086
      7          6           0       -0.778118    0.988658   -0.179618
      8          6           0        0.560411    1.555671   -0.290191
      9          8           0        0.809890    2.775219   -0.552550
     10          6           0        1.653880    0.611900   -0.082864
     11          6           0        2.984802    1.085313   -0.150357
     12          6           0        4.073843    0.250278    0.012268
     13          6           0        3.859435   -1.135437    0.251012
     14          6           0        2.572968   -1.626725    0.319768
     15          6           0        1.436540   -0.786893    0.162905
     16          6           0        0.118083   -1.355624    0.252277
     17          8           0       -0.016775   -2.641393    0.443284
     18          6           0       -0.989983   -0.438967    0.111255
     19          1           0       -3.341647   -2.691337    0.081893
     20          1           0       -1.686727   -2.794847    0.543703
     21          1           0       -4.430181   -0.478415    0.113684
     22          1           0       -4.072578    1.917156   -0.508010
     23          1           0       -2.710032    3.517701   -0.551569
     24          1           0        3.106708    2.146932   -0.341583
     25          1           0        5.086168    0.647005   -0.042783
     26          1           0        4.708834   -1.804963    0.379500
     27          1           0        2.375861   -2.678299    0.500096
 ---------------------------------------------------------------------

 SCF Done:  E(UB3LYP) =  -819.535445379     A.U. after    2 cycles

 Alpha  occ. eigenvalues --  -18.90145 -18.78937 -18.78074 -14.04968  -9.97846
 Alpha  occ. eigenvalues --   -9.95503  -9.94847  -9.94534  -9.93407  -9.93172
 Alpha  occ. eigenvalues --   -9.92351  -9.92319  -9.91985  -9.91496  -9.91487
 Alpha  occ. eigenvalues --   -9.91288  -9.90834  -9.90675  -0.80890  -0.70767
 Alpha  occ. eigenvalues --   -0.70304  -0.65003  -0.60093  -0.57520  -0.52447
 Alpha  occ. eigenvalues --   -0.49828  -0.48315  -0.46809  -0.40782  -0.38553
 Alpha  occ. eigenvalues --   -0.37327  -0.33534  -0.31069  -0.29389  -0.28527
 Alpha  occ. eigenvalues --   -0.25537  -0.23965  -0.21750  -0.21121  -0.20386
 Alpha  occ. eigenvalues --   -0.18962  -0.17535  -0.17244  -0.16371  -0.14780
 Alpha  occ. eigenvalues --   -0.13675  -0.13601  -0.12540  -0.12078  -0.11535
 Alpha  occ. eigenvalues --   -0.10831  -0.09270  -0.08347  -0.07793  -0.07331
 Alpha  occ. eigenvalues --   -0.03582  -0.00240   0.00924   0.01217   0.03120
 Alpha  occ. eigenvalues --    0.04754   0.05121   0.13252
 Alpha virt. eigenvalues --    0.15143   0.15951   0.16682   0.17713   0.18891
 Alpha virt. eigenvalues --    0.20375   0.20480   0.20883   0.21869   0.22350
 Alpha virt. eigenvalues --    0.23899   0.25238   0.25504   0.25974   0.26693

  Beta  occ. eigenvalues --  -18.90145 -18.78937 -18.78074 -14.04968  -9.97846
  Beta  occ. eigenvalues --   -9.95503  -9.94847  -9.94534  -9.93407  -9.93172
  Beta  occ. eigenvalues --   -9.92351  -9.92319  -9.91985  -9.91496  -9.91487
  Beta  occ. eigenvalues --   -9.91288  -9.90834  -9.90675  -0.80890  -0.70767
  Beta  occ. eigenvalues --   -0.70304  -0.65003  -0.60093  -0.57520  -0.52447
  Beta  occ. eigenvalues --   -0.49828  -0.48315  -0.46809  -0.40782  -0.38553
  Beta  occ. eigenvalues --   -0.37327  -0.33534  -0.31069  -0.29389  -0.28527
  Beta  occ. eigenvalues --   -0.25537  -0.23965  -0.21750  -0.21121  -0.20386
  Beta  occ. eigenvalues --   -0.18962  -0.17535  -0.17244  -0.16371  -0.14780
  Beta  occ. eigenvalues --   -0.13675  -0.13601  -0.12540  -0.12078  -0.11535
  Beta  occ. eigenvalues --   -0.10831  -0.09270  -0.08347  -0.07793  -0.07331
  Beta  occ. eigenvalues --   -0.03582  -0.00240   0.00924   0.01217   0.03120
  Beta  occ. eigenvalues --    0.04754   0.05121   0.13252
  Beta virt. eigenvalues --    0.15143   0.15951   0.16682   0.17713   0.18891
  Beta virt. eigenvalues --    0.20375   0.20480   0.20883   0.21869   0.22350
  Beta virt. eigenvalues --    0.23899   0.25238   0.25504   0.25974   0.26693

 Mulliken charges and spin densities:
               1          2
     1  N   -0.440473   0.000000
     2  C   -0.120859   0.000000
     3  C   -0.034717  -0.000000
     4  C   -0.174825  -0.000000
     5  C   -0.076500  -0.000000
     6  O   -0.219331   0.000000
     7  C    0.761035  -0.000000
     8  C   -0.531721   0.000000
     9  O   -0.453241  -0.000000
    10  C    0.086729  -0.000000
    11  C    0.105940   0.000000
    12  C   -0.496823  -0.000000
    13  C   -0.525953  -0.000000
    14  C    0.139167  -0.000000
    15  C    0.329063  -0.000000
    16  C   -0.513949  -0.000000
    17  O   -0.494821  -0.000000
    18  C    0.436715  -0.000000
    19  H    0.160145   0.000000
    20  H    0.285796   0.000000
    21  H   -0.139317   0.000000
    22  H   -0.606795   0.000001
    23  H    0.121253   0.000000
    24  H    0.123584   0.000000
    25  H    0.074074   0.000000
    26  H    0.073188   0.000000
    27  H    0.132636  -0.000000
 Sum of Mulliken charges =  -2.00000  -0.00000

 Dipole moment (field-independent basis, Debye):
    X=              1.2052    Y=             -2.7127    Z=             -0.2830  Tot=              2.9819
 Quadrupole moment (field-independent basis, Debye-Ang):
   XX=           -176.5402   YY=           -168.2900   ZZ=           -123.8859
   XY=              3.5913   XZ=              2.1963   YZ=             11.6234

  Exact polarizability:1905.574-481.0591050.412 130.580 -99.027 163.765
 Approx polarizability:2689.394-780.5841038.145 164.929-127.473 232.022

                      1                      2                      3
                      A                      A                      A
 Frequencies --     38.8335                56.0844               108.3757
 Red. masses --      7.3236                 6.3907                 4.8457
 Frc consts  --      0.0065                 0.0118                 0.0335
 IR Inten    --      4.4764                 2.6813                 9.2991

                      4                      5                      6
                      A                      A                      A
 Frequencies --    127.7509               173.7115               213.7371
 Red. masses --      4.4410                 7.3358                 5.4997
 Frc consts  --      0.0427                 0.1304                 0.1480
 IR Inten    --      1.4802                 1.2683                 5.2979

                      7                      8                      9
                      A                      A                      A
 Frequencies --    253.2073               307.9458               319.8620
 Red. masses --      4.1909                 6.4032                 2.3103
 Frc consts  --      0.1583                 0.3578                 0.1393
 IR Inten    --      6.8540                31.4186                 7.9346

                     10                     11                     12
                      A                      A                      A
 Frequencies --    337.7020               359.4202               362.5539
 Red. masses --      3.5293                 7.7211                 1.6551
 Frc consts  --      0.2371                 0.5877                 0.1282
 IR Inten    --     75.6606                17.1857               117.6795

                     13                     14                     15
                      A                      A                      A
 Frequencies --    388.7432               402.2168               410.4976
 Red. masses --      7.5171                 2.3607                 4.8578
 Frc consts  --      0.6693                 0.2250                 0.4823
 IR Inten    --      0.9046               359.9159               102.8605

                     16                     17                     18
                      A                      A                      A
 Frequencies --    428.7198               443.3706               465.7249
 Red. masses --      3.4354                 3.2806                 7.5502
 Frc consts  --      0.3720                 0.3800                 0.9649
 IR Inten    --     14.8002                24.4480               236.0825

                     19                     20                     21
                      A                      A                      A
 Frequencies --    482.9347               494.1955               505.2861
 Red. masses --      4.3591                 5.1208                 6.8765
 Frc consts  --      0.5990                 0.7369                 1.0344
 IR Inten    --     76.5260               281.5894               446.8112

                     22                     23                     24
                      A                      A                      A
 Frequencies --    589.8422               594.3842               623.5242
 Red. masses --      3.8394                 3.7100                 4.6638
 Frc consts  --      0.7870                 0.7722                 1.0683
 IR Inten    --     94.8175                96.1327                50.7299

                     25                     26                     27
                      A                      A                      A
 Frequencies --    654.3396               698.8334               704.9539
 Red. masses --      6.4628                 1.5972                 5.3473
 Frc consts  --      1.6303                 0.4596                 1.5657
 IR Inten    --     26.4225                67.0396                14.0481

                     28                     29                     30
                      A                      A                      A
 Frequencies --    717.8710               743.2362               752.3810
 Red. masses --      3.6809                 1.8338                 2.7685
 Frc consts  --      1.1176                 0.5968                 0.9234
 IR Inten    --     99.8070                14.5663                55.7263

                     31                     32                     33
                      A                      A                      A
 Frequencies --    763.2615               767.8595               783.9003
 Red. masses --      2.4744                 2.1017                 1.9175
 Frc consts  --      0.8493                 0.7301                 0.6942
 IR Inten    --     24.5921                30.1664                38.0923

                     34                     35                     36
                      A                      A                      A
 Frequencies --    823.5676               853.1339               887.8154
 Red. masses --      4.1302                 6.7919                 4.7153
 Frc consts  --      1.6505                 2.9126                 2.1898
 IR Inten    --      6.0827               233.0827                75.5011

                     37                     38                     39
                      A                      A                      A
 Frequencies --    929.8159               948.9621               954.5476
 Red. masses --      1.6877                 5.1413                 1.2414
 Frc consts  --      0.8597                 2.7279                 0.6664
 IR Inten    --    246.8229                21.8749                 0.2894

                     40                     41                     42
                      A                      A                      A
 Frequencies --    962.0094              1010.5071              1043.7105
 Red. masses --      1.3515                 2.3756                 2.3058
 Frc consts  --      0.7369                 1.4292                 1.4799
 IR Inten    --      3.6864               872.7887               259.5992

                     43                     44                     45
                      A                      A                      A
 Frequencies --   1093.7773              1118.7221              1151.9026
 Red. masses --      2.1591                 1.5401                 1.7905
 Frc consts  --      1.5219                 1.1356                 1.3997
 IR Inten    --    150.6145                49.8546                72.7617

                     46                     47                     48
                      A                      A                      A
 Frequencies --   1166.0164              1186.5390              1207.6678
 Red. masses --      1.7396                 2.1270                 1.9343
 Frc consts  --      1.3935                 1.7644                 1.6621
 IR Inten    --   1058.7171               416.2242               176.9116

                     49                     50                     51
                      A                      A                      A
 Frequencies --   1217.8490              1223.0242              1250.8622
 Red. masses --      1.9683                 2.8722                 2.2422
 Frc consts  --      1.7200                 2.5313                 2.0670
 IR Inten    --    262.7593               797.2911                67.6204

                     52                     53                     54
                      A                      A                      A
 Frequencies --   1255.3985              1280.0065              1351.2972
 Red. masses --      3.0294                 5.2215                 7.5692
 Frc consts  --      2.8130                 5.0404                 8.1434
 IR Inten    --   1381.0897               460.8983               354.0391

                     55                     56                     57
                      A                      A                      A
 Frequencies --   1371.3632              1390.9854              1438.0544
 Red. masses --      2.6674                 2.6138                 4.6659
 Frc consts  --      2.9556                 2.9796                 5.6851
 IR Inten    --     96.7636               367.3412              1206.8884

                     58                     59                     60
                      A                      A                      A
 Frequencies --   1446.8874              1464.1188              1480.3033
 Red. masses --      2.8266                 2.5377                 3.6957
 Frc consts  --      3.4865                 3.2051                 4.7714
 IR Inten    --   1087.8501               604.6661               835.7164

                     61                     62                     63
                      A                      A                      A
 Frequencies --   1501.4569              1539.6085              1556.6726
 Red. masses --      4.6447                 5.2634                 6.3054
 Frc consts  --      6.1693                 7.3509                 9.0024
 IR Inten    --    310.0522                72.7262              4134.9039

                     64                     65                     66
                      A                      A                      A
 Frequencies --   1586.9305              1590.3801              1615.6713
 Red. masses --      4.1038                 4.1937                 1.4044
 Frc consts  --      6.0891                 6.2495                 2.1600
 IR Inten    --    861.1684                76.6709               260.9479

                     67                     68                     69
                      A                      A                      A
 Frequencies --   3081.4771              3089.6105              3100.8784
 Red. masses --      1.0851                 1.0827                 1.0736
 Frc consts  --      6.0706                 6.0891                 6.0824
 IR Inten    --     16.7298                60.5863               491.4609

                     70                     71                     72
                      A                      A                      A
 Frequencies --   3114.1083              3117.9054              3159.8027
 Red. masses --      1.0908                 1.0908                 1.0904
 Frc consts  --      6.2327                 6.2475                 6.4143
 IR Inten    --    372.2574                34.4616                94.7435

                     73                     74                     75
                      A                      A                      A
 Frequencies --   3166.5473              3562.7017              3767.4228
 Red. masses --      1.0907                 1.0777                 1.0649
 Frc consts  --      6.4436                 8.0593                 8.9052
 IR Inten    --    161.9978                97.3696               768.2581

 - Thermochemistry -
 -------------------
 Temperature   298.150 Kelvin.  Pressure   1.00000 Atm.
 Atom     1 has atomic number  7 and mass  14.00307

 Molecular mass:   239.05824 amu.
 Principal axes and moments of inertia in atomic units:
                           1         2         3
     Eigenvalues --  2614.559654694.871117303.69857
           X            0.98709   0.16011  -0.00442
           Y           -0.15623   0.96853   0.19378
           Z            0.03531  -0.19059   0.98103
 This molecule is an asymmetric top.
 Rotational symmetry number  1.
 Warning -- assumption of classical behavior for rotation
           may cause significant error
 Rotational temperatures (Kelvin)      0.03313     0.01845     0.01186
 Rotational constants (GHZ):           0.69027     0.38441     0.24710
 Zero-point vibrational energy     509222.1 (Joules/Mol)
                                  121.70699 (Kcal/Mol)
 Warning -- explicit consideration of  23 degrees of freedom as
           vibrations may cause significant error
 Vibrational temperatures:     55.87    80.69   155.93   183.80   249.93
          (Kelvin)            307.52   364.31   443.07   460.21   485.88
                              517.13   521.63   559.31   578.70   590.61
                              616.83   637.91   670.07   694.84   711.04
                              726.99   848.65   855.19   897.11   941.45
                             1005.47  1014.27  1032.86  1069.35  1082.51
                             1098.16  1104.78  1127.86  1184.93  1227.47
                             1277.37  1337.80  1365.34  1373.38  1384.12
                             1453.89  1501.67  1573.70  1609.59  1657.33
                             1677.64  1707.17  1737.56  1752.21  1759.66
                             1799.71  1806.24  1841.64  1944.22  1973.09
                             2001.32  2069.04  2081.75  2106.54  2129.83
                             2160.26  2215.15  2239.70  2283.24  2288.20
                             2324.59  4433.56  4445.26  4461.47  4480.51
                             4485.97  4546.25  4555.96  5125.93  5420.48

 Zero-point correction=                           0.193952 (Hartree/Particle)
 Thermal correction to Energy=                    0.207878
 Thermal correction to Enthalpy=                  0.208823
 Thermal correction to Gibbs Free Energy=         0.153455
 Sum of electronic and zero-point Energies=           -819.341493
 Sum of electronic and thermal Energies=              -819.327567
 Sum of electronic and thermal Enthalpies=            -819.326623
 Sum of electronic and thermal Free Energies=         -819.381991

                     E (Thermal)             CV                S
                      KCal/Mol        Cal/Mol-Kelvin    Cal/Mol-Kelvin
 Total                  130.446             57.085            116.532
 Electronic               0.000              0.000              0.000
 Translational            0.889              2.981             42.316
 Rotational               0.889              2.981             32.861
 Vibrational            128.668             51.123             41.355
 Vibration     1          0.594              1.981              5.318
 Vibration     2          0.596              1.975              4.590
 Vibration     3          0.606              1.943              3.298
 Vibration     4          0.611              1.925              2.980
 Vibration     5          0.627              1.875              2.395
 Vibration     6          0.644              1.820              2.012
 Vibration     7          0.664              1.757              1.708
 Vibration     8          0.698              1.659              1.373
 Vibration     9          0.706              1.636              1.311
 Vibration    10          0.718              1.600              1.223
 Vibration    11          0.734              1.556              1.125
 Vibration    12          0.736              1.549              1.111
 Vibration    13          0.757              1.494              1.005
 Vibration    14          0.768              1.465              0.955
 Vibration    15          0.775              1.447              0.925
 Vibration    16          0.790              1.408              0.863
 Vibration    17          0.803              1.376              0.816
 Vibration    18          0.823              1.326              0.750
 Vibration    19          0.839              1.288              0.702
 Vibration    20          0.850              1.263              0.673
 Vibration    21          0.861              1.238              0.645
 Vibration    22          0.947              1.053              0.467
 Vibration    23          0.952              1.044              0.459

                           ! Non-Optimized Parameters !
 Normal termination of Gaussian 16 at Wed Dec 27 22:02:36 2023.
