 Gaussian 16, Revision A.03,
 Gaussian 16:  ES64L-G16RevA.03 25-Dec-2016

 ----------------------------------------------------------------
 #P UB3LYP/6-311++G(d,p) SCRF=(PCM,Solvent=n,n-DiMethylFormamide)
 ----------------------------------------------------------------

 -------
 Reduced
 -------
 Symbolic Z-matrix:
 Charge = -2 Multiplicity = 1

                         Standard orientation:
 ---------------------------------------------------------------------
 Center     Atomic      Atomic             Coordinates (Angstroms)
 Number     Number       Type             X           Y           Z
 ---------------------------------------------------------------------
      1          7           0       -2.174772    2.838741   -0.163027
      2          6           0       -2.154724    1.429616   -0.041248
      3          6           0       -3.347487    0.736269    0.009293
      4          6           0       -3.360265   -0.678279    0.052548
      5          6           0       -2.183308   -1.397184    0.010658
      6          8           0       -2.269519   -2.785718    0.004547
      7          6           0       -0.904934   -0.750610   -0.007377
      8          6           0        0.329592   -1.526029    0.000390
      9          8           0        0.385440   -2.796697    0.025922
     10          6           0        1.557929   -0.738452   -0.016119
     11          6           0        2.800374   -1.413791   -0.032764
     12          6           0        4.006590   -0.739445   -0.026237
     13          6           0        4.009314    0.682627    0.003418
     14          6           0        2.813507    1.368753    0.022502
     15          6           0        1.559948    0.698078    0.009126
     16          6           0        0.344774    1.468106    0.022613
     17          8           0        0.409570    2.772072    0.080453
     18          6           0       -0.891640    0.721548   -0.020850
     19          1           0       -2.881377    3.260473    0.425426
     20          1           0       -1.214402    3.194998    0.001575
     21          1           0       -4.285432    1.285889   -0.035643
     22          1           0       -4.310332   -1.209884    0.118111
     23          1           0       -3.203592   -2.979044   -0.137573
     24          1           0        2.756140   -2.498359   -0.047562
     25          1           0        4.946034   -1.289367   -0.042264
     26          1           0        4.952876    1.226589    0.010382
     27          1           0        2.781549    2.453013    0.045638
 ---------------------------------------------------------------------

 SCF Done:  E(UB3LYP) =  -819.803296841     A.U. after   17 cycles

 The electronic state is 1-A.
 Alpha  occ. eigenvalues --  -19.12470 -19.02083 -19.01506 -14.27012 -10.20151
 Alpha  occ. eigenvalues --  -10.17813 -10.17803 -10.17353 -10.14936 -10.14785
 Alpha  occ. eigenvalues --  -10.14458 -10.14437 -10.14287 -10.14158 -10.13970
 Alpha  occ. eigenvalues --  -10.13436 -10.13428 -10.13289  -1.03248  -0.94186
 Alpha  occ. eigenvalues --   -0.93845  -0.87317  -0.82422  -0.79974  -0.74865
 Alpha  occ. eigenvalues --   -0.72113  -0.70658  -0.69277  -0.63337  -0.60766
 Alpha  occ. eigenvalues --   -0.59587  -0.55748  -0.53383  -0.51664  -0.50690
 Alpha  occ. eigenvalues --   -0.47574  -0.46081  -0.43926  -0.43490  -0.42469
 Alpha  occ. eigenvalues --   -0.41278  -0.39979  -0.39522  -0.39276  -0.37302
 Alpha  occ. eigenvalues --   -0.36475  -0.36107  -0.35438  -0.34941  -0.33913
 Alpha  occ. eigenvalues --   -0.33559  -0.31780  -0.31510  -0.30551  -0.30134
 Alpha  occ. eigenvalues --   -0.26196  -0.22790  -0.22343  -0.21534  -0.20150
 Alpha  occ. eigenvalues --   -0.18913  -0.17729  -0.10079
 Alpha virt. eigenvalues --   -0.01854   0.00038   0.00242   0.00653   0.01128
 Alpha virt. eigenvalues --    0.02316   0.02462   0.03037   0.03968   0.04738
 Alpha virt. eigenvalues --    0.04901   0.05278   0.06276   0.06547   0.06891

  Beta  occ. eigenvalues --  -19.12470 -19.02083 -19.01506 -14.27012 -10.20151
  Beta  occ. eigenvalues --  -10.17813 -10.17803 -10.17353 -10.14936 -10.14785
  Beta  occ. eigenvalues --  -10.14458 -10.14437 -10.14287 -10.14158 -10.13970
  Beta  occ. eigenvalues --  -10.13436 -10.13428 -10.13289  -1.03248  -0.94186
  Beta  occ. eigenvalues --   -0.93845  -0.87317  -0.82422  -0.79974  -0.74865
  Beta  occ. eigenvalues --   -0.72113  -0.70658  -0.69277  -0.63337  -0.60766
  Beta  occ. eigenvalues --   -0.59587  -0.55748  -0.53383  -0.51664  -0.50690
  Beta  occ. eigenvalues --   -0.47574  -0.46081  -0.43926  -0.43490  -0.42469
  Beta  occ. eigenvalues --   -0.41278  -0.39979  -0.39522  -0.39276  -0.37302
  Beta  occ. eigenvalues --   -0.36475  -0.36107  -0.35438  -0.34941  -0.33913
  Beta  occ. eigenvalues --   -0.33559  -0.31780  -0.31510  -0.30551  -0.30134
  Beta  occ. eigenvalues --   -0.26196  -0.22790  -0.22343  -0.21534  -0.20150
  Beta  occ. eigenvalues --   -0.18913  -0.17729  -0.10079
  Beta virt. eigenvalues --   -0.01854   0.00038   0.00242   0.00653   0.01128
  Beta virt. eigenvalues --    0.02316   0.02462   0.03037   0.03968   0.04738
  Beta virt. eigenvalues --    0.04901   0.05278   0.06276   0.06547   0.06891

 Mulliken charges and spin densities:
               1          2
     1  N   -0.485750  -0.000000
     2  C    0.013408   0.000000
     3  C   -0.324879   0.000000
     4  C   -0.353657  -0.000000
     5  C   -0.274753  -0.000000
     6  O   -0.275042   0.000000
     7  C    0.441690   0.000000
     8  C   -0.322629  -0.000000
     9  O   -0.620987  -0.000000
    10  C   -0.057756  -0.000000
    11  C    0.064543   0.000000
    12  C   -0.536232  -0.000000
    13  C   -0.560714  -0.000000
    14  C    0.093074   0.000000
    15  C    0.133117   0.000000
    16  C   -0.383754  -0.000000
    17  O   -0.630813   0.000000
    18  C    0.380549   0.000000
    19  H    0.235519   0.000000
    20  H    0.309368  -0.000000
    21  H    0.149215  -0.000000
    22  H    0.133657  -0.000000
    23  H    0.274942   0.000000
    24  H    0.139674  -0.000000
    25  H    0.154889  -0.000000
    26  H    0.154941   0.000000
    27  H    0.148381  -0.000000
 Sum of Mulliken charges =  -2.00000   0.00000

 Dipole moment (field-independent basis, Debye):
    X=             -3.5218    Y=              0.8082    Z=              0.8211  Tot=              3.7054
 Quadrupole moment (field-independent basis, Debye-Ang):
   XX=           -125.6669   YY=           -167.2487   ZZ=           -118.4124
   XY=              4.1282   XZ=             -2.9874   YZ=              5.0517

 Normal termination of Gaussian 16 at Sun Jan 14 01:32:45 2024.
