 Gaussian 16, Revision A.03,
 Gaussian 16:  ES64L-G16RevA.03 25-Dec-2016

 ----------------------------------------------------------------
 #P UB3LYP/6-311++G(d,p) SCRF=(PCM,Solvent=n,n-DiMethylFormamide)
 ----------------------------------------------------------------

 -------
 Reduced
 -------
 Symbolic Z-matrix:
 Charge = -2 Multiplicity = 1

                         Standard orientation:
 ---------------------------------------------------------------------
 Center     Atomic      Atomic             Coordinates (Angstroms)
 Number     Number       Type             X           Y           Z
 ---------------------------------------------------------------------
      1          6           0        4.031360   -2.180261    0.003262
      2          8           0        2.663677   -1.919770   -0.001393
      3          6           0        2.246307   -0.587942   -0.000893
      4          6           0        3.158329    0.447524   -0.000394
      5          6           0        2.741827    1.802095   -0.000144
      6          6           0        1.395211    2.159590   -0.000414
      7          8           0        1.002594    3.410027   -0.000310
      8          6           0        0.407941    1.061800   -0.000543
      9          6           0       -0.966833    1.405045    0.000032
     10          8           0       -1.368319    2.722705    0.000751
     11          6           0       -1.949109    0.407672    0.000149
     12          6           0       -3.345824    0.720649    0.000660
     13          6           0       -4.304584   -0.265682    0.000872
     14          6           0       -3.922699   -1.637456    0.000594
     15          6           0       -2.576993   -1.961424    0.000012
     16          6           0       -1.561102   -0.983159   -0.000301
     17          6           0       -0.162138   -1.411325   -0.001133
     18          8           0        0.119874   -2.648704   -0.001801
     19          6           0        0.828604   -0.331408   -0.000933
     20          1           0        4.132639   -3.270321    0.004201
     21          1           0        4.546826   -1.776448   -0.886015
     22          1           0        4.540672   -1.775237    0.895495
     23          1           0        4.222807    0.241230   -0.000245
     24          1           0        3.479849    2.600611    0.000400
     25          1           0       -0.476445    3.232062    0.000690
     26          1           0       -3.625573    1.768589    0.000835
     27          1           0       -5.359997    0.004098    0.001217
     28          1           0       -4.680836   -2.417984    0.000756
     29          1           0       -2.244331   -2.994976   -0.000267
 ---------------------------------------------------------------------

 SCF Done:  E(UB3LYP) =  -879.003556019     A.U. after   16 cycles

 The electronic state is 1-A.
 Alpha  occ. eigenvalues --  -19.12355 -19.08775 -19.04254 -19.02537 -10.20367
 Alpha  occ. eigenvalues --  -10.19714 -10.19178 -10.18946 -10.18270 -10.15621
 Alpha  occ. eigenvalues --  -10.15210 -10.15080 -10.15006 -10.15001 -10.14856
 Alpha  occ. eigenvalues --  -10.14684 -10.14036 -10.13885 -10.12507  -1.03976
 Alpha  occ. eigenvalues --   -1.00525  -0.95121  -0.94857  -0.83419  -0.80853
 Alpha  occ. eigenvalues --   -0.76044  -0.73054  -0.71823  -0.70760  -0.66606
 Alpha  occ. eigenvalues --   -0.64291  -0.60649  -0.59808  -0.55190  -0.54154
 Alpha  occ. eigenvalues --   -0.51132  -0.50996  -0.48216  -0.46336  -0.44845
 Alpha  occ. eigenvalues --   -0.44718  -0.43633  -0.42113  -0.41607  -0.40550
 Alpha  occ. eigenvalues --   -0.40079  -0.39441  -0.38342  -0.36958  -0.36093
 Alpha  occ. eigenvalues --   -0.35824  -0.35458  -0.34831  -0.33684  -0.32255
 Alpha  occ. eigenvalues --   -0.31975  -0.31172  -0.31122  -0.30722  -0.26269
 Alpha  occ. eigenvalues --   -0.24533  -0.23362  -0.21994  -0.21912  -0.19439
 Alpha  occ. eigenvalues --   -0.17291  -0.11590
 Alpha virt. eigenvalues --   -0.02274   0.00024   0.00035   0.00537   0.01355
 Alpha virt. eigenvalues --    0.02291   0.02342   0.03434   0.03914   0.04200
 Alpha virt. eigenvalues --    0.04213   0.04638   0.05555   0.05946   0.06688

  Beta  occ. eigenvalues --  -19.12355 -19.08775 -19.04254 -19.02537 -10.20367
  Beta  occ. eigenvalues --  -10.19714 -10.19178 -10.18946 -10.18270 -10.15621
  Beta  occ. eigenvalues --  -10.15210 -10.15080 -10.15006 -10.15001 -10.14856
  Beta  occ. eigenvalues --  -10.14684 -10.14036 -10.13885 -10.12507  -1.03976
  Beta  occ. eigenvalues --   -1.00525  -0.95121  -0.94857  -0.83419  -0.80853
  Beta  occ. eigenvalues --   -0.76044  -0.73054  -0.71823  -0.70760  -0.66606
  Beta  occ. eigenvalues --   -0.64291  -0.60649  -0.59808  -0.55190  -0.54154
  Beta  occ. eigenvalues --   -0.51132  -0.50996  -0.48216  -0.46336  -0.44845
  Beta  occ. eigenvalues --   -0.44718  -0.43633  -0.42113  -0.41607  -0.40550
  Beta  occ. eigenvalues --   -0.40079  -0.39441  -0.38342  -0.36958  -0.36093
  Beta  occ. eigenvalues --   -0.35824  -0.35458  -0.34831  -0.33684  -0.32255
  Beta  occ. eigenvalues --   -0.31975  -0.31172  -0.31122  -0.30722  -0.26269
  Beta  occ. eigenvalues --   -0.24533  -0.23362  -0.21994  -0.21912  -0.19439
  Beta  occ. eigenvalues --   -0.17291  -0.11590
  Beta virt. eigenvalues --   -0.02274   0.00024   0.00035   0.00537   0.01355
  Beta virt. eigenvalues --    0.02291   0.02342   0.03434   0.03914   0.04200
  Beta virt. eigenvalues --    0.04213   0.04638   0.05555   0.05946   0.06688

 Mulliken charges and spin densities:
               1          2
     1  C   -0.259964   0.000000
     2  O   -0.175368   0.000000
     3  C   -0.329513   0.000000
     4  C   -0.179040   0.000000
     5  C   -0.259655  -0.000000
     6  C   -0.516209   0.000000
     7  O   -0.665884  -0.000000
     8  C    0.702093  -0.000000
     9  C    0.098921   0.000000
    10  O   -0.534561  -0.000000
    11  C    0.234411  -0.000000
    12  C   -0.184153   0.000000
    13  C   -0.504589  -0.000000
    14  C   -0.552066   0.000000
    15  C   -0.028723   0.000000
    16  C   -0.000964  -0.000000
    17  C   -0.239637  -0.000000
    18  O   -0.606748   0.000000
    19  C    0.199458   0.000000
    20  H    0.181982   0.000000
    21  H    0.135070  -0.000000
    22  H    0.135210  -0.000000
    23  H    0.173397  -0.000000
    24  H    0.142733  -0.000000
    25  H    0.415419   0.000000
    26  H    0.149738  -0.000000
    27  H    0.161685  -0.000000
    28  H    0.161798  -0.000000
    29  H    0.145162   0.000000
 Sum of Mulliken charges =  -2.00000  -0.00000

 Dipole moment (field-independent basis, Debye):
    X=              0.7787    Y=             -4.0667    Z=              0.0119  Tot=              4.1406
 Quadrupole moment (field-independent basis, Debye-Ang):
   XX=           -134.6557   YY=           -183.5988   ZZ=           -122.6575
   XY=             -7.9831   XZ=              0.0261   YZ=             -0.0257

 Normal termination of Gaussian 16 at Sun Jan 14 01:36:38 2024.
