 Gaussian 16, Revision A.03,
 Gaussian 16:  ES64L-G16RevA.03 25-Dec-2016

 ----------------------------------------------------------------------
 #P UB3LYP/6-311++G(d,p) nosym opt freq SCRF=(PCM,Solvent=n,n-DiMethylF
 ormamide)
 ----------------------------------------------------------------------

 -------
 Reduced
 -------
 Symbolic Z-matrix:
 Charge = -2 Multiplicity = 1

 SCF Done:  E(UB3LYP) =  -689.574942927     A.U. after   17 cycles
 SCF Done:  E(UB3LYP) =  -689.576583869     A.U. after   13 cycles
 SCF Done:  E(UB3LYP) =  -689.576982865     A.U. after   13 cycles
 SCF Done:  E(UB3LYP) =  -689.577067307     A.U. after   12 cycles
 SCF Done:  E(UB3LYP) =  -689.577084217     A.U. after   12 cycles
 SCF Done:  E(UB3LYP) =  -689.577089475     A.U. after   11 cycles
 SCF Done:  E(UB3LYP) =  -689.577095548     A.U. after   11 cycles
 SCF Done:  E(UB3LYP) =  -689.577100746     A.U. after   11 cycles
 SCF Done:  E(UB3LYP) =  -689.577103189     A.U. after   11 cycles
 SCF Done:  E(UB3LYP) =  -689.577108375     A.U. after   11 cycles
 SCF Done:  E(UB3LYP) =  -689.577113289     A.U. after   11 cycles
 SCF Done:  E(UB3LYP) =  -689.577114407     A.U. after   10 cycles
 SCF Done:  E(UB3LYP) =  -689.577114610     A.U. after    9 cycles
 SCF Done:  E(UB3LYP) =  -689.577114701     A.U. after    9 cycles
 SCF Done:  E(UB3LYP) =  -689.577114747     A.U. after    8 cycles
 Optimization completed.
    -- Stationary point found.
 Normal termination of Gaussian 16 at Sat Feb 10 13:17:17 2024.

 ----------------------------------------------------------------------
 #P Geom=AllCheck Guess=TCheck SCRF=Check GenChk UB3LYP/6-311++G(d,p) F
 req
 ----------------------------------------------------------------------

 Structure from the checkpoint file:  "089-an.chk"
 -------
 Reduced
 -------
 Charge = -2 Multiplicity = 1

                          Input orientation:
 ---------------------------------------------------------------------
 Center     Atomic      Atomic             Coordinates (Angstroms)
 Number     Number       Type             X           Y           Z
 ---------------------------------------------------------------------
      1          6           0        1.630031    1.090564   -0.891665
      2          6           0        0.441273    1.565414   -0.251976
      3          6           0       -0.504906    0.696549    0.333103
      4          6           0       -0.331126   -0.723420    0.358667
      5          6           0        0.855010   -1.188678   -0.281476
      6          6           0        1.787959   -0.326488   -0.876211
      7          8           0        2.510069    1.883874   -1.469078
      8          8           0       -1.180850   -1.552375    0.932318
      9          8           0        2.884294   -0.898588   -1.532606
     10          6           0        4.112382   -0.770170   -0.821817
     11          6           0        0.205147    3.060304   -0.230412
     12          6           0       -1.751305    1.266176    0.975750
     13          1           0        4.346499    0.282433   -0.640381
     14          1           0        4.893615   -1.215105   -1.443224
     15          1           0        4.069495   -1.307165    0.134655
     16          8           0        1.138625   -2.559127   -0.277792
     17          6           0        0.311199   -3.315029   -1.158602
     18          1           0       -0.743389   -3.168558   -0.911094
     19          1           0        0.576072   -4.367253   -1.027772
     20          1           0        0.489862   -3.029527   -2.203502
     21          1           0        1.099940    3.573991   -0.584207
     22          1           0       -0.035380    3.429823    0.773759
     23          1           0       -0.630121    3.364988   -0.877546
     24          1           0       -2.292535    1.943231    0.303327
     25          1           0       -1.530833    1.847585    1.882456
     26          1           0       -2.420111    0.452809    1.259657
 ---------------------------------------------------------------------

 SCF Done:  E(UB3LYP) =  -689.577114747     A.U. after    1 cycles

 Alpha  occ. eigenvalues --  -19.10590 -19.10587 -19.00430 -19.00420 -10.19117
 Alpha  occ. eigenvalues --  -10.19017 -10.16482 -10.16432 -10.15735 -10.15723
 Alpha  occ. eigenvalues --  -10.13181 -10.13160 -10.11986 -10.11932  -1.02295
 Alpha  occ. eigenvalues --   -1.00490  -0.90831  -0.90491  -0.78034  -0.73198
 Alpha  occ. eigenvalues --   -0.69207  -0.67852  -0.66554  -0.61211  -0.60562
 Alpha  occ. eigenvalues --   -0.52817  -0.51849  -0.47378  -0.45635  -0.45044
 Alpha  occ. eigenvalues --   -0.43989  -0.42254  -0.41681  -0.40824  -0.40022
 Alpha  occ. eigenvalues --   -0.37722  -0.36829  -0.35671  -0.35601  -0.34869
 Alpha  occ. eigenvalues --   -0.33932  -0.32569  -0.32321  -0.30545  -0.30528
 Alpha  occ. eigenvalues --   -0.29215  -0.24921  -0.24808  -0.20769  -0.18615
 Alpha  occ. eigenvalues --   -0.18351  -0.18333  -0.11024
 Alpha virt. eigenvalues --   -0.00259   0.00888   0.01307   0.02303   0.03193
 Alpha virt. eigenvalues --    0.03644   0.03753   0.03922   0.04603   0.04649
 Alpha virt. eigenvalues --    0.05480   0.06125   0.06507   0.07305   0.07563

  Beta  occ. eigenvalues --  -19.10590 -19.10587 -19.00430 -19.00420 -10.19117
  Beta  occ. eigenvalues --  -10.19017 -10.16482 -10.16432 -10.15735 -10.15723
  Beta  occ. eigenvalues --  -10.13181 -10.13160 -10.11986 -10.11932  -1.02295
  Beta  occ. eigenvalues --   -1.00490  -0.90831  -0.90491  -0.78034  -0.73198
  Beta  occ. eigenvalues --   -0.69207  -0.67852  -0.66554  -0.61211  -0.60562
  Beta  occ. eigenvalues --   -0.52817  -0.51849  -0.47378  -0.45635  -0.45044
  Beta  occ. eigenvalues --   -0.43989  -0.42254  -0.41681  -0.40824  -0.40022
  Beta  occ. eigenvalues --   -0.37722  -0.36829  -0.35671  -0.35601  -0.34869
  Beta  occ. eigenvalues --   -0.33932  -0.32569  -0.32321  -0.30545  -0.30528
  Beta  occ. eigenvalues --   -0.29215  -0.24921  -0.24808  -0.20769  -0.18615
  Beta  occ. eigenvalues --   -0.18351  -0.18333  -0.11024
  Beta virt. eigenvalues --   -0.00259   0.00888   0.01307   0.02303   0.03193
  Beta virt. eigenvalues --    0.03644   0.03753   0.03922   0.04603   0.04649
  Beta virt. eigenvalues --    0.05480   0.06125   0.06507   0.07305   0.07563

 Mulliken charges and spin densities:
               1          2
     1  C   -0.792782   0.000000
     2  C    0.698984  -0.000000
     3  C    0.702047  -0.000000
     4  C   -0.811711  -0.000000
     5  C   -0.107653  -0.000000
     6  C   -0.062819   0.000000
     7  O   -0.745132  -0.000000
     8  O   -0.743437   0.000000
     9  O   -0.208687  -0.000000
    10  C   -0.251525   0.000000
    11  C   -0.463926  -0.000000
    12  C   -0.456839  -0.000000
    13  H    0.162462  -0.000000
    14  H    0.138667  -0.000000
    15  H    0.127690   0.000000
    16  O   -0.208548   0.000000
    17  C   -0.250226   0.000000
    18  H    0.165720   0.000000
    19  H    0.138079  -0.000000
    20  H    0.123853  -0.000000
    21  H    0.166598  -0.000000
    22  H    0.122658  -0.000000
    23  H    0.133028  -0.000000
    24  H    0.124759   0.000000
    25  H    0.132188  -0.000000
    26  H    0.166551   0.000000
 Sum of Mulliken charges =  -2.00000  -0.00000

 Dipole moment (field-independent basis, Debye):
    X=             -7.5828    Y=             -0.0036    Z=              3.1927  Tot=              8.2275
 Quadrupole moment (field-independent basis, Debye-Ang):
   XX=           -125.0725   YY=           -122.0614   ZZ=           -109.0764
   XY=            -19.0264   XZ=             24.4666   YZ=             17.2737

  Exact polarizability: 236.613   1.862 258.448 -44.922  -6.497 175.617
 Approx polarizability: 249.797   5.340 271.914 -47.944 -10.604 191.146

                      1                      2                      3
                      A                      A                      A
 Frequencies --     83.9479                87.9777                92.1141
 Red. masses --      3.2456                 1.8826                 2.2354
 Frc consts  --      0.0135                 0.0086                 0.0112
 IR Inten    --      3.7539                10.2103                15.6532

                      4                      5                      6
                      A                      A                      A
 Frequencies --     98.1413               103.8565               135.6887
 Red. masses --      2.6407                 1.8228                 1.2649
 Frc consts  --      0.0150                 0.0116                 0.0137
 IR Inten    --     18.6664                 9.1145                 4.5399

                      7                      8                      9
                      A                      A                      A
 Frequencies --    150.0958               170.4264               181.7425
 Red. masses --      2.3661                 1.2863                 2.3585
 Frc consts  --      0.0314                 0.0220                 0.0459
 IR Inten    --      1.1319                 4.7375                 8.1643

                     10                     11                     12
                      A                      A                      A
 Frequencies --    184.0257               254.0564               272.8446
 Red. masses --      1.1583                 3.5314                 4.3430
 Frc consts  --      0.0231                 0.1343                 0.1905
 IR Inten    --      3.1117                 0.9380                10.1509

                     13                     14                     15
                      A                      A                      A
 Frequencies --    326.2651               328.7482               344.8372
 Red. masses --      2.8621                 2.9502                 7.3417
 Frc consts  --      0.1795                 0.1879                 0.5144
 IR Inten    --      4.8515                 5.8257                 2.8921

                     16                     17                     18
                      A                      A                      A
 Frequencies --    352.0555               373.4865               408.9420
 Red. masses --      8.7525                 9.3288                 6.1668
 Frc consts  --      0.6392                 0.7667                 0.6076
 IR Inten    --      2.0826                14.6560                 1.9523

                     19                     20                     21
                      A                      A                      A
 Frequencies --    414.4680               467.3385               505.9000
 Red. masses --      6.9773                 7.7245                 4.8981
 Frc consts  --      0.7062                 0.9940                 0.7386
 IR Inten    --      1.1177                 6.0718                22.5342

                     22                     23                     24
                      A                      A                      A
 Frequencies --    551.4301               604.4116               633.3562
 Red. masses --      7.3697                 5.6897                 4.8811
 Frc consts  --      1.3203                 1.2246                 1.1536
 IR Inten    --     11.2416                41.1012                 2.3195

                     25                     26                     27
                      A                      A                      A
 Frequencies --    714.7299               733.2309               774.0465
 Red. masses --      3.7523                 7.3071                 8.5705
 Frc consts  --      1.1294                 2.3146                 3.0254
 IR Inten    --      0.3609                10.2945                 1.2912

                     28                     29                     30
                      A                      A                      A
 Frequencies --    873.7512               923.0957               978.5992
 Red. masses --      3.7298                 4.8724                 1.7840
 Frc consts  --      1.6777                 2.4462                 1.0066
 IR Inten    --     39.3338               240.8891                 7.8399

                     31                     32                     33
                      A                      A                      A
 Frequencies --    979.5598              1027.7549              1045.2692
 Red. masses --      4.7641                 1.3996                 4.4879
 Frc consts  --      2.6933                 0.8710                 2.8890
 IR Inten    --     44.4278                 0.7569                78.9811

                     34                     35                     36
                      A                      A                      A
 Frequencies --   1051.8236              1082.4554              1089.5261
 Red. masses --      1.6267                 3.3523                 4.6842
 Frc consts  --      1.0603                 2.3142                 3.2761
 IR Inten    --      0.0102                51.7831               619.4745

                     37                     38                     39
                      A                      A                      A
 Frequencies --   1141.6926              1162.1756              1163.7449
 Red. masses --      6.6084                 1.2671                 1.2682
 Frc consts  --      5.0751                 1.0083                 1.0119
 IR Inten    --    251.4705                10.9246                14.8585

                     40                     41                     42
                      A                      A                      A
 Frequencies --   1197.0595              1208.6765              1216.0090
 Red. masses --      4.9685                 1.4643                 1.6459
 Frc consts  --      4.1947                 1.2604                 1.4339
 IR Inten    --    218.2872                 8.3717               103.0784

                     43                     44                     45
                      A                      A                      A
 Frequencies --   1273.3835              1350.2155              1366.1729
 Red. masses --      5.1107                 5.2587                 1.7815
 Frc consts  --      4.8826                 5.6485                 1.9591
 IR Inten    --    171.4722                81.6265               380.3727

                     46                     47                     48
                      A                      A                      A
 Frequencies --   1386.6792              1392.0753              1422.6243
 Red. masses --      1.4226                 3.1292                 3.3849
 Frc consts  --      1.6117                 3.5728                 4.0362
 IR Inten    --     29.3957              1277.1289                 5.4853

                     49                     50                     51
                      A                      A                      A
 Frequencies --   1448.5923              1459.0577              1463.8463
 Red. masses --      1.3013                 1.3446                 1.1577
 Frc consts  --      1.6088                 1.6865                 1.4617
 IR Inten    --     63.9301                 1.6301                43.9840

                     52                     53                     54
                      A                      A                      A
 Frequencies --   1471.9262              1473.4340              1475.0455
 Red. masses --      1.0630                 1.0627                 1.1153
 Frc consts  --      1.3570                 1.3594                 1.4297
 IR Inten    --      6.9443                 6.9226                 0.5946

                     55                     56                     57
                      A                      A                      A
 Frequencies --   1484.8060              1494.9395              1497.8285
 Red. masses --      1.0811                 1.0965                 1.0496
 Frc consts  --      1.4043                 1.4438                 1.3873
 IR Inten    --      0.2689                19.0795                18.3314

                     58                     59                     60
                      A                      A                      A
 Frequencies --   1499.5956              1514.8653              1587.6773
 Red. masses --      1.0491                 3.2703                 8.4440
 Frc consts  --      1.3900                 4.4216                12.5407
 IR Inten    --     16.4893                 2.1938                 0.7817

                     61                     62                     63
                      A                      A                      A
 Frequencies --   2970.1163              2972.3970              2982.9430
 Red. masses --      1.0534                 1.0519                 1.0383
 Frc consts  --      5.4753                 5.4759                 5.4435
 IR Inten    --    137.0695               233.9522               197.5014

                     64                     65                     66
                      A                      A                      A
 Frequencies --   2983.5661              3009.1688              3013.1326
 Red. masses --      1.0390                 1.0888                 1.0863
 Frc consts  --      5.4491                 5.8086                 5.8108
 IR Inten    --     74.9198               120.7998                66.5262

                     67                     68                     69
                      A                      A                      A
 Frequencies --   3053.8639              3054.9014              3087.3301
 Red. masses --      1.0929                 1.0927                 1.1048
 Frc consts  --      6.0050                 6.0080                 6.2045
 IR Inten    --     91.5924                62.5313                65.0104

                     70                     71                     72
                      A                      A                      A
 Frequencies --   3088.8208              3101.7879              3105.5078
 Red. masses --      1.1052                 1.0925                 1.0914
 Frc consts  --      6.2124                 6.1927                 6.2014
 IR Inten    --     65.8313                23.7962                25.0645

 - Thermochemistry -
 -------------------
 Temperature   298.150 Kelvin.  Pressure   1.00000 Atm.
 Atom     1 has atomic number  6 and mass  12.00000

 Molecular mass:   196.07356 amu.
 Principal axes and moments of inertia in atomic units:
                           1         2         3
     Eigenvalues --  2242.885172535.437404485.89277
           X           -0.56040   0.72438   0.40153
           Y            0.78773   0.61591  -0.01172
           Z            0.25579  -0.30973   0.91577
 This molecule is an asymmetric top.
 Rotational symmetry number  1.
 Warning -- assumption of classical behavior for rotation
           may cause significant error
 Rotational temperatures (Kelvin)      0.03862     0.03416     0.01931
 Rotational constants (GHZ):           0.80465     0.71181     0.40231
 Zero-point vibrational energy     526211.3 (Joules/Mol)
                                  125.76752 (Kcal/Mol)
 Warning -- explicit consideration of  23 degrees of freedom as
           vibrations may cause significant error
 Vibrational temperatures:    120.78   126.58   132.53   141.20   149.43
          (Kelvin)            195.23   215.95   245.21   261.49   264.77
                              365.53   392.56   469.42   473.00   496.14
                              506.53   537.36   588.38   596.33   672.40
                              727.88   793.38   869.61   911.26  1028.34
                             1054.96  1113.68  1257.13  1328.13  1407.99
                             1409.37  1478.71  1503.91  1513.34  1557.41
                             1567.59  1642.64  1672.11  1674.37  1722.30
                             1739.02  1749.57  1832.11  1942.66  1965.62
                             1995.12  2002.89  2046.84  2084.20  2099.26
                             2106.15  2117.77  2119.94  2122.26  2136.30
                             2150.88  2155.04  2157.58  2179.55  2284.31
                             4273.33  4276.62  4291.79  4292.69  4329.52
                             4335.23  4393.83  4395.32  4441.98  4444.12
                             4462.78  4468.13

 Zero-point correction=                           0.200423 (Hartree/Particle)
 Thermal correction to Energy=                    0.215270
 Thermal correction to Enthalpy=                  0.216214
 Thermal correction to Gibbs Free Energy=         0.159235
 Sum of electronic and zero-point Energies=           -689.376691
 Sum of electronic and thermal Energies=              -689.361845
 Sum of electronic and thermal Enthalpies=            -689.360901
 Sum of electronic and thermal Free Energies=         -689.417880

                     E (Thermal)             CV                S
                      KCal/Mol        Cal/Mol-Kelvin    Cal/Mol-Kelvin
 Total                  135.084             53.758            119.922
 Electronic               0.000              0.000              0.000
 Translational            0.889              2.981             41.725
 Rotational               0.889              2.981             31.612
 Vibrational            133.306             47.797             46.585
 Vibration     1          0.601              1.960              3.796
 Vibration     2          0.601              1.958              3.705
 Vibration     3          0.602              1.955              3.615
 Vibration     4          0.604              1.950              3.491
 Vibration     5          0.605              1.946              3.381
 Vibration     6          0.614              1.918              2.864
 Vibration     7          0.618              1.903              2.671
 Vibration     8          0.626              1.879              2.431
 Vibration     9          0.630              1.865              2.310
 Vibration    10          0.631              1.862              2.287
 Vibration    11          0.665              1.756              1.702
 Vibration    12          0.676              1.723              1.578
 Vibration    13          0.710              1.623              1.279
 Vibration    14          0.712              1.618              1.266
 Vibration    15          0.723              1.586              1.190
 Vibration    16          0.729              1.571              1.157
 Vibration    17          0.745              1.527              1.065
 Vibration    18          0.773              1.451              0.930
 Vibration    19          0.778              1.439              0.911
 Vibration    20          0.825              1.323              0.745
 Vibration    21          0.861              1.237              0.644
 Vibration    22          0.907              1.137              0.541
 Vibration    23          0.963              1.022              0.442

                           ! Non-Optimized Parameters !
 Normal termination of Gaussian 16 at Sat Feb 10 13:54:43 2024.
