 Gaussian 16, Revision A.03,
 Gaussian 16:  ES64L-G16RevA.03 25-Dec-2016

 ----------------------------------------------------------------
 #P UB3LYP/6-311++G(d,p) SCRF=(PCM,Solvent=n,n-DiMethylFormamide)
 ----------------------------------------------------------------

 ------------------
 Quinone PCM in DMF
 ------------------
 Symbolic Z-matrix:
 Charge =  0 Multiplicity = 1

                         Standard orientation:
 ---------------------------------------------------------------------
 Center     Atomic      Atomic             Coordinates (Angstroms)
 Number     Number       Type             X           Y           Z
 ---------------------------------------------------------------------
      1          6           0       -3.724164    0.287795    0.001069
      2          6           0       -2.228681    0.356057    0.000463
      3          6           0       -1.537205    1.511141    0.000191
      4          6           0       -0.067482    1.572804   -0.000250
      5          8           0        0.502562    2.674166   -0.000533
      6          6           0        0.683475    0.315017   -0.000204
      7          6           0        2.096250    0.327028    0.000015
      8          8           0        2.803816    1.463291   -0.000132
      9          6           0        2.796320   -0.891564    0.000450
     10          6           0        2.104597   -2.090495    0.000613
     11          6           0        0.704133   -2.116361    0.000294
     12          6           0       -0.001324   -0.921322   -0.000079
     13          6           0       -1.493926   -0.951184   -0.000508
     14          8           0       -2.116582   -2.000402   -0.001554
     15          1           0       -4.163763    1.285649    0.001947
     16          1           0       -4.081508   -0.264219    0.874710
     17          1           0       -4.082036   -0.262730   -0.873324
     18          1           0       -2.037158    2.474415    0.000504
     19          1           0        2.159940    2.211359   -0.000382
     20          1           0        3.879095   -0.860716    0.000665
     21          1           0        2.657322   -3.023142    0.000971
     22          1           0        0.157787   -3.050552    0.000332
 ---------------------------------------------------------------------

 SCF Done:  E(UB3LYP) =  -649.858493527     A.U. after   14 cycles

 The electronic state is 1-A.
 Alpha  occ. eigenvalues --  -19.16784 -19.14493 -19.13957 -10.29081 -10.28762
 Alpha  occ. eigenvalues --  -10.27048 -10.22436 -10.21352 -10.20916 -10.20739
 Alpha  occ. eigenvalues --  -10.20471 -10.19837 -10.19755 -10.17993  -1.09578
 Alpha  occ. eigenvalues --   -1.07276  -1.06582  -0.89229  -0.85088  -0.79344
 Alpha  occ. eigenvalues --   -0.77536  -0.73371  -0.69422  -0.66112  -0.62893
 Alpha  occ. eigenvalues --   -0.60972  -0.55181  -0.54331  -0.53763  -0.49837
 Alpha  occ. eigenvalues --   -0.48270  -0.47360  -0.46897  -0.46705  -0.44299
 Alpha  occ. eigenvalues --   -0.43663  -0.42449  -0.41703  -0.41022  -0.40754
 Alpha  occ. eigenvalues --   -0.40516  -0.38951  -0.38168  -0.36082  -0.30422
 Alpha  occ. eigenvalues --   -0.29801  -0.28387  -0.28190  -0.25464
 Alpha virt. eigenvalues --   -0.13125  -0.05184  -0.03640  -0.00646   0.00388
 Alpha virt. eigenvalues --    0.00900   0.02166   0.02313   0.02480   0.03380
 Alpha virt. eigenvalues --    0.04065   0.04822   0.05091   0.05101   0.05865

  Beta  occ. eigenvalues --  -19.16784 -19.14493 -19.13957 -10.29081 -10.28762
  Beta  occ. eigenvalues --  -10.27048 -10.22436 -10.21352 -10.20916 -10.20739
  Beta  occ. eigenvalues --  -10.20471 -10.19837 -10.19755 -10.17993  -1.09578
  Beta  occ. eigenvalues --   -1.07276  -1.06582  -0.89229  -0.85088  -0.79344
  Beta  occ. eigenvalues --   -0.77536  -0.73371  -0.69422  -0.66112  -0.62893
  Beta  occ. eigenvalues --   -0.60972  -0.55181  -0.54331  -0.53763  -0.49837
  Beta  occ. eigenvalues --   -0.48270  -0.47360  -0.46897  -0.46705  -0.44299
  Beta  occ. eigenvalues --   -0.43663  -0.42449  -0.41703  -0.41022  -0.40754
  Beta  occ. eigenvalues --   -0.40516  -0.38951  -0.38168  -0.36082  -0.30422
  Beta  occ. eigenvalues --   -0.29801  -0.28387  -0.28190  -0.25464
  Beta virt. eigenvalues --   -0.13125  -0.05184  -0.03640  -0.00646   0.00388
  Beta virt. eigenvalues --    0.00900   0.02166   0.02313   0.02480   0.03380
  Beta virt. eigenvalues --    0.04065   0.04822   0.05091   0.05101   0.05865

 Mulliken charges and spin densities:
               1          2
     1  C   -0.299064   0.000000
     2  C    0.636626   0.000000
     3  C   -0.403041  -0.000000
     4  C   -0.930060  -0.000000
     5  O   -0.337519   0.000000
     6  C    0.978203   0.000000
     7  C   -0.243011  -0.000000
     8  O   -0.310036  -0.000000
     9  C   -0.045163   0.000000
    10  C   -0.401526  -0.000000
    11  C   -0.043951  -0.000000
    12  C    0.360358  -0.000000
    13  C   -0.425016   0.000000
    14  O   -0.270484   0.000000
    15  H    0.175648   0.000000
    16  H    0.192000   0.000000
    17  H    0.191971   0.000000
    18  H    0.206057   0.000000
    19  H    0.348523   0.000000
    20  H    0.216520   0.000000
    21  H    0.218636   0.000000
    22  H    0.184330   0.000000
 Sum of Mulliken charges =  -0.00000  -0.00000

 Dipole moment (field-independent basis, Debye):
    X=             -0.8932    Y=             -0.9618    Z=              0.0043  Tot=              1.3126
 Quadrupole moment (field-independent basis, Debye-Ang):
   XX=            -75.2251   YY=            -87.2874   ZZ=            -81.6347
   XY=            -16.4110   XZ=             -0.0066   YZ=             -0.0070

 Normal termination of Gaussian 16 at Thu Jan 25 05:44:41 2024.
