 Gaussian 16, Revision A.03,
 Gaussian 16:  ES64L-G16RevA.03 25-Dec-2016

 ----------------------------------------------------------------------
 #P UB3LYP/6-311++G(d,p) nosym opt freq SCRF=(PCM,Solvent=n,n-DiMethylF
 ormamide)
 ----------------------------------------------------------------------

 --------
 Oxidized
 --------
 Symbolic Z-matrix:
 Charge =  0 Multiplicity = 1

 SCF Done:  E(UB3LYP) =  -610.518295629     A.U. after   15 cycles
 SCF Done:  E(UB3LYP) =  -610.518733260     A.U. after   13 cycles
 SCF Done:  E(UB3LYP) =  -610.518805199     A.U. after   12 cycles
 SCF Done:  E(UB3LYP) =  -610.518749275     A.U. after   11 cycles
 SCF Done:  E(UB3LYP) =  -610.518794404     A.U. after   11 cycles
 SCF Done:  E(UB3LYP) =  -610.518806406     A.U. after   11 cycles
 SCF Done:  E(UB3LYP) =  -610.518809667     A.U. after   10 cycles
 Optimization completed.
    -- Stationary point found.
 Normal termination of Gaussian 16 at Sun Feb 11 15:19:09 2024.

 ----------------------------------------------------------------------
 #P Geom=AllCheck Guess=TCheck SCRF=Check GenChk UB3LYP/6-311++G(d,p) F
 req
 ----------------------------------------------------------------------

 Structure from the checkpoint file:  "325.chk"
 --------
 Oxidized
 --------
 Charge =  0 Multiplicity = 1

                          Input orientation:
 ---------------------------------------------------------------------
 Center     Atomic      Atomic             Coordinates (Angstroms)
 Number     Number       Type             X           Y           Z
 ---------------------------------------------------------------------
      1          6           0       -1.820627    2.812794   -0.754484
      2          6           0       -2.918979    1.985318   -0.532233
      3          6           0       -2.720301    0.654801   -0.168010
      4          6           0       -0.523899    2.316391   -0.614544
      5          6           0       -0.323038    0.969259   -0.246545
      6          6           0       -1.428971    0.146130   -0.025193
      7          6           0        0.637409    3.206864   -0.852800
      8          6           0        2.064026    2.602348   -0.682520
      9          6           0        2.158538    1.217974   -0.306399
     10          6           0        1.048451    0.455239   -0.103217
     11          8           0        0.523585    4.373535   -1.171369
     12          8           0        3.032517    3.327919   -0.875923
     13          1           0       -1.955479    3.849134   -1.037927
     14          1           0       -3.923286    2.376098   -0.642359
     15          1           0       -3.571242    0.007162    0.006387
     16          1           0       -1.280577   -0.887150    0.257351
     17          1           0        3.150693    0.795642   -0.187748
     18          8           0        1.107724   -0.837700    0.246785
     19          1           0        2.025410   -1.133390    0.326190
 ---------------------------------------------------------------------

 SCF Done:  E(UB3LYP) =  -610.518809667     A.U. after    1 cycles

 Alpha  occ. eigenvalues --  -19.19639 -19.14615 -19.12948 -10.29092 -10.28750
 Alpha  occ. eigenvalues --  -10.27749 -10.22253 -10.21297 -10.20477 -10.20402
 Alpha  occ. eigenvalues --  -10.20348 -10.20079 -10.19184  -1.11323  -1.08314
 Alpha  occ. eigenvalues --   -1.05037  -0.89947  -0.83659  -0.78903  -0.77164
 Alpha  occ. eigenvalues --   -0.71405  -0.66251  -0.63145  -0.62726  -0.56640
 Alpha  occ. eigenvalues --   -0.55631  -0.53472  -0.48831  -0.48454  -0.46887
 Alpha  occ. eigenvalues --   -0.46608  -0.46200  -0.45474  -0.43837  -0.43588
 Alpha  occ. eigenvalues --   -0.41615  -0.40291  -0.38315  -0.38134  -0.37571
 Alpha  occ. eigenvalues --   -0.31302  -0.30646  -0.28533  -0.26624  -0.25816
 Alpha virt. eigenvalues --   -0.12903  -0.06116  -0.02595  -0.00930   0.00158
 Alpha virt. eigenvalues --    0.01176   0.01536   0.02349   0.02582   0.04377
 Alpha virt. eigenvalues --    0.04419   0.05406   0.05522   0.05894   0.07158

  Beta  occ. eigenvalues --  -19.19639 -19.14615 -19.12948 -10.29092 -10.28750
  Beta  occ. eigenvalues --  -10.27749 -10.22253 -10.21297 -10.20477 -10.20402
  Beta  occ. eigenvalues --  -10.20348 -10.20079 -10.19184  -1.11323  -1.08314
  Beta  occ. eigenvalues --   -1.05037  -0.89947  -0.83659  -0.78903  -0.77164
  Beta  occ. eigenvalues --   -0.71405  -0.66251  -0.63145  -0.62726  -0.56640
  Beta  occ. eigenvalues --   -0.55631  -0.53472  -0.48831  -0.48454  -0.46887
  Beta  occ. eigenvalues --   -0.46608  -0.46200  -0.45474  -0.43837  -0.43588
  Beta  occ. eigenvalues --   -0.41615  -0.40291  -0.38315  -0.38134  -0.37571
  Beta  occ. eigenvalues --   -0.31302  -0.30646  -0.28533  -0.26624  -0.25816
  Beta virt. eigenvalues --   -0.12903  -0.06116  -0.02595  -0.00930   0.00158
  Beta virt. eigenvalues --    0.01176   0.01536   0.02349   0.02582   0.04377
  Beta virt. eigenvalues --    0.04419   0.05406   0.05522   0.05894   0.07158

 Mulliken charges and spin densities:
               1          2
     1  C    0.343988  -0.000000
     2  C   -0.348931  -0.000000
     3  C   -0.390487  -0.000000
     4  C   -0.189242   0.000000
     5  C   -0.255537  -0.000000
     6  C    0.394244  -0.000000
     7  C   -0.327820  -0.000000
     8  C   -0.154308  -0.000000
     9  C    0.293222   0.000000
    10  C    0.125438  -0.000000
    11  O   -0.279261  -0.000000
    12  O   -0.356429   0.000000
    13  H    0.182431   0.000000
    14  H    0.211912   0.000000
    15  H    0.210958  -0.000000
    16  H    0.199520   0.000000
    17  H    0.200500  -0.000000
    18  O   -0.174248  -0.000000
    19  H    0.314051   0.000000
 Sum of Mulliken charges =  -0.00000  -0.00000

 Dipole moment (field-independent basis, Debye):
    X=             -4.4885    Y=             -7.9863    Z=              2.1503  Tot=              9.4102
 Quadrupole moment (field-independent basis, Debye-Ang):
   XX=            -69.6911   YY=           -107.7188   ZZ=            -77.8369
   XY=            -25.8349   XZ=              6.9359   YZ=              8.5182

  Exact polarizability: 244.666  34.743 208.167  -8.895 -34.167  91.491
 Approx polarizability: 282.067  50.638 265.671 -13.154 -45.797 109.200

                      1                      2                      3
                      A                      A                      A
 Frequencies --     55.5158               116.0914               160.6808
 Red. masses --     11.4539                 4.3844                 7.5229
 Frc consts  --      0.0208                 0.0348                 0.1144
 IR Inten    --      0.0006                 3.8935                 3.1157

                      4                      5                      6
                      A                      A                      A
 Frequencies --    186.3816               268.1003               352.3935
 Red. masses --      4.6189                 5.7338                 6.8815
 Frc consts  --      0.0945                 0.2428                 0.5035
 IR Inten    --      4.3902                 2.8243                28.0373

                      7                      8                      9
                      A                      A                      A
 Frequencies --    373.1159               399.7506               402.8377
 Red. masses --     12.9824                10.5453                 3.1676
 Frc consts  --      1.0649                 0.9929                 0.3029
 IR Inten    --      8.9792                 8.7735                 4.0248

                     10                     11                     12
                      A                      A                      A
 Frequencies --    429.0525               461.0050               482.3201
 Red. masses --      2.2167                 8.6297                 1.7248
 Frc consts  --      0.2404                 1.0806                 0.2364
 IR Inten    --    104.3829                 2.4236                67.9229

                     13                     14                     15
                      A                      A                      A
 Frequencies --    514.0742               521.4496               647.9293
 Red. masses --      7.2173                 3.5127                 3.5854
 Frc consts  --      1.1238                 0.5628                 0.8868
 IR Inten    --     10.3613                 0.0017                 4.7348

                     16                     17                     18
                      A                      A                      A
 Frequencies --    650.3185               684.6704               713.5878
 Red. masses --      6.3536                 5.5979                 6.9405
 Frc consts  --      1.5832                 1.5461                 2.0823
 IR Inten    --      7.8777                 1.4926                 3.8848

                     19                     20                     21
                      A                      A                      A
 Frequencies --    732.6373               777.6405               811.9698
 Red. masses --      3.4197                 1.7266                 2.0148
 Frc consts  --      1.0815                 0.6152                 0.7827
 IR Inten    --     30.5078                79.1123                 4.9998

                     22                     23                     24
                      A                      A                      A
 Frequencies --    816.6241               838.8599               909.0595
 Red. masses --      4.2965                 2.3023                 1.3727
 Frc consts  --      1.6881                 0.9545                 0.6684
 IR Inten    --      4.0877                62.6571                 0.2468

                     25                     26                     27
                      A                      A                      A
 Frequencies --    967.8894               995.6481              1022.4381
 Red. masses --      7.1290                 1.3894                 1.3397
 Frc consts  --      3.9348                 0.8115                 0.8251
 IR Inten    --     62.7040                 2.4501                 0.0389

                     28                     29                     30
                      A                      A                      A
 Frequencies --   1059.4407              1098.4122              1148.1702
 Red. masses --      2.1989                 3.2782                 1.7402
 Frc consts  --      1.4542                 2.3303                 1.3516
 IR Inten    --      0.7395                93.2593                96.0518

                     31                     32                     33
                      A                      A                      A
 Frequencies --   1184.6544              1214.1466              1227.5239
 Red. masses --      1.1183                 1.5876                 1.9254
 Frc consts  --      0.9247                 1.3789                 1.7094
 IR Inten    --     13.9542               268.8526                29.1961

                     34                     35                     36
                      A                      A                      A
 Frequencies --   1261.4302              1277.5474              1311.5589
 Red. masses --      2.3275                 3.6326                 2.6327
 Frc consts  --      2.1821                 3.4932                 2.6683
 IR Inten    --    357.7790               151.5998               121.1205

                     37                     38                     39
                      A                      A                      A
 Frequencies --   1351.2288              1441.8210              1478.2143
 Red. masses --      6.9285                 2.1779                 2.3040
 Frc consts  --      7.4533                 2.6676                 2.9662
 IR Inten    --      8.8772                95.3534                62.6559

                     40                     41                     42
                      A                      A                      A
 Frequencies --   1518.4154              1592.5542              1622.1018
 Red. masses --      2.8573                 6.4729                 5.9201
 Frc consts  --      3.8814                 9.6724                 9.1777
 IR Inten    --     27.2171               702.9187               216.1329

                     43                     44                     45
                      A                      A                      A
 Frequencies --   1630.7922              1683.1421              1742.2560
 Red. masses --      6.9043                11.8470                12.7035
 Frc consts  --     10.8185                19.7742                22.7195
 IR Inten    --    438.4137               571.9492               202.9930

                     46                     47                     48
                      A                      A                      A
 Frequencies --   3174.0136              3182.3462              3194.0187
 Red. masses --      1.0920                 1.0876                 1.0915
 Frc consts  --      6.4816                 6.4897                 6.5606
 IR Inten    --      3.9514                 2.9069                 8.7562

                     49                     50                     51
                      A                      A                      A
 Frequencies --   3203.9985              3216.0615              3777.6421
 Red. masses --      1.0951                 1.0936                 1.0663
 Frc consts  --      6.6235                 6.6642                 8.9655
 IR Inten    --     11.7370                 4.3705               190.2083

 - Thermochemistry -
 -------------------
 Temperature   298.150 Kelvin.  Pressure   1.00000 Atm.
 Atom     1 has atomic number  6 and mass  12.00000

 Molecular mass:   174.03169 amu.
 Principal axes and moments of inertia in atomic units:
                           1         2         3
     Eigenvalues --  1447.386402268.207353715.59177
           X            0.92277  -0.38533  -0.00315
           Y            0.37259   0.89013   0.26239
           Z           -0.09830  -0.24330   0.96496
 This molecule is an asymmetric top.
 Rotational symmetry number  1.
 Warning -- assumption of classical behavior for rotation
           may cause significant error
 Rotational temperatures (Kelvin)      0.05984     0.03819     0.02331
 Rotational constants (GHZ):           1.24690     0.79567     0.48572
 Zero-point vibrational energy     358183.1 (Joules/Mol)
                                   85.60781 (Kcal/Mol)
 Warning -- explicit consideration of  14 degrees of freedom as
           vibrations may cause significant error
 Vibrational temperatures:     79.87   167.03   231.18   268.16   385.74
          (Kelvin)            507.02   536.83   575.15   579.59   617.31
                              663.28   693.95   739.64   750.25   932.23
                              935.66   985.09  1026.69  1054.10  1118.85
                             1168.24  1174.94  1206.93  1307.93  1392.58
                             1432.52  1471.06  1524.30  1580.37  1651.96
                             1704.45  1746.89  1766.13  1814.92  1838.11
                             1887.04  1944.12  2074.46  2126.82  2184.66
                             2291.33  2333.84  2346.35  2421.67  2506.72
                             4566.70  4578.69  4595.48  4609.84  4627.20
                             5435.18

 Zero-point correction=                           0.136425 (Hartree/Particle)
 Thermal correction to Energy=                    0.146223
 Thermal correction to Enthalpy=                  0.147167
 Thermal correction to Gibbs Free Energy=         0.100856
 Sum of electronic and zero-point Energies=           -610.382385
 Sum of electronic and thermal Energies=              -610.372586
 Sum of electronic and thermal Enthalpies=            -610.371642
 Sum of electronic and thermal Free Energies=         -610.417953

                     E (Thermal)             CV                S
                      KCal/Mol        Cal/Mol-Kelvin    Cal/Mol-Kelvin
 Total                   91.756             38.794             97.470
 Electronic               0.000              0.000              0.000
 Translational            0.889              2.981             41.370
 Rotational               0.889              2.981             30.879
 Vibrational             89.979             32.833             25.222
 Vibration     1          0.596              1.975              4.611
 Vibration     2          0.608              1.936              3.164
 Vibration     3          0.622              1.891              2.542
 Vibration     4          0.632              1.858              2.264
 Vibration     5          0.673              1.732              1.608
 Vibration     6          0.729              1.570              1.155
 Vibration     7          0.745              1.527              1.067
 Vibration     8          0.766              1.471              0.964
 Vibration     9          0.768              1.464              0.952
 Vibration    10          0.790              1.407              0.862
 Vibration    11          0.819              1.337              0.763
 Vibration    12          0.839              1.289              0.704
 Vibration    13          0.869              1.219              0.624
 Vibration    14          0.876              1.202              0.607

 Optimization completed.
    -- Stationary point found.
 Normal termination of Gaussian 16 at Sun Feb 11 15:36:38 2024.
