 Gaussian 16, Revision A.03,
 Gaussian 16:  ES64L-G16RevA.03 25-Dec-2016

 ----------------------------------------------------------------
 #P UB3LYP/6-311++G(d,p) SCRF=(PCM,Solvent=n,n-DiMethylFormamide)
 ----------------------------------------------------------------

 ------------------
 Quinone PCM in DMF
 ------------------
 Symbolic Z-matrix:
 Charge =  0 Multiplicity = 1

                         Standard orientation:
 ---------------------------------------------------------------------
 Center     Atomic      Atomic             Coordinates (Angstroms)
 Number     Number       Type             X           Y           Z
 ---------------------------------------------------------------------
      1         35           0       -2.081561    2.595310   -0.114200
      2          6           0       -0.970629    1.054441   -0.016682
      3          6           0       -1.463549   -0.200312    0.009978
      4          6           0       -0.496185   -1.355837   -0.001386
      5          8           0       -0.905033   -2.496656   -0.000404
      6          6           0        0.970535   -1.053965   -0.016445
      7          6           0        1.463456    0.200797    0.010331
      8          6           0        0.496120    1.356324   -0.001629
      9          8           0        0.904977    2.497141   -0.001294
     10          6           0        2.904898    0.553490    0.049328
     11          6           0        3.480203    1.304613   -0.982515
     12          6           0        4.831678    1.633599   -0.941794
     13          6           0        5.616786    1.240100    0.140552
     14          6           0        5.045641    0.509514    1.180977
     15          6           0        3.698803    0.162175    1.133526
     16         35           0        2.081347   -2.594823   -0.114422
     17          6           0       -2.904940   -0.553252    0.048907
     18          6           0       -3.479886   -1.304829   -0.982810
     19          6           0       -4.831095   -1.634828   -0.941828
     20          6           0       -5.616290   -1.241791    0.140623
     21          6           0       -5.045541   -0.510568    1.180818
     22          6           0       -3.698950   -0.162287    1.133135
     23          1           0        2.872386    1.627868   -1.818599
     24          1           0        5.268704    2.205773   -1.752057
     25          1           0        6.667306    1.505524    0.175232
     26          1           0        5.647982    0.207939    2.030244
     27          1           0        3.259794   -0.407564    1.943839
     28          1           0       -2.871946   -1.627802   -1.818921
     29          1           0       -5.267831   -2.207474   -1.751911
     30          1           0       -6.666595   -1.508045    0.175562
     31          1           0       -5.647983   -0.209288    2.030115
     32          1           0       -3.260192    0.407819    1.943323
 ---------------------------------------------------------------------

 SCF Done:  E(UB3LYP) =  -5990.86572228     A.U. after   16 cycles

 The electronic state is 1-A.
 Alpha  occ. eigenvalues -- -482.85178-482.85178 -62.50449 -62.50449 -56.32496
 Alpha  occ. eigenvalues --  -56.32496 -56.32110 -56.32110 -56.32062 -56.32061
 Alpha  occ. eigenvalues --  -19.15635 -19.15634 -10.30939 -10.30938 -10.27151
 Alpha  occ. eigenvalues --  -10.27150 -10.24172 -10.24171 -10.20820 -10.20819
 Alpha  occ. eigenvalues --  -10.19189 -10.19189 -10.19163 -10.19162 -10.18816
 Alpha  occ. eigenvalues --  -10.18816 -10.18699 -10.18699 -10.18683 -10.18683
 Alpha  occ. eigenvalues --   -8.71421  -8.71420  -6.54595  -6.54595  -6.53307
 Alpha  occ. eigenvalues --   -6.53306  -6.53165  -6.53164  -2.65686  -2.65685
 Alpha  occ. eigenvalues --   -2.65341  -2.65341  -2.65233  -2.65233  -2.64207
 Alpha  occ. eigenvalues --   -2.64207  -2.64205  -2.64205  -1.09420  -1.09229
 Alpha  occ. eigenvalues --   -0.90584  -0.88820  -0.87022  -0.85581  -0.80808
 Alpha  occ. eigenvalues --   -0.79839  -0.77234  -0.76361  -0.76355  -0.73909
 Alpha  occ. eigenvalues --   -0.70690  -0.66428  -0.62737  -0.62415  -0.61638
 Alpha  occ. eigenvalues --   -0.60521  -0.59348  -0.55650  -0.54038  -0.53602
 Alpha  occ. eigenvalues --   -0.50210  -0.48862  -0.48486  -0.47800  -0.47205
 Alpha  occ. eigenvalues --   -0.46865  -0.45751  -0.44492  -0.44318  -0.44285
 Alpha  occ. eigenvalues --   -0.43957  -0.43573  -0.43469  -0.42086  -0.38742
 Alpha  occ. eigenvalues --   -0.38509  -0.37232  -0.36911  -0.36638  -0.36310
 Alpha  occ. eigenvalues --   -0.35791  -0.35213  -0.31544  -0.31423  -0.31015
 Alpha  occ. eigenvalues --   -0.30261  -0.29383  -0.28899  -0.27020  -0.26997
 Alpha  occ. eigenvalues --   -0.26521  -0.26010
 Alpha virt. eigenvalues --   -0.14801  -0.06142  -0.03513  -0.03397  -0.02840
 Alpha virt. eigenvalues --   -0.02744  -0.02527  -0.02060  -0.00970  -0.00386
 Alpha virt. eigenvalues --   -0.00130   0.00985   0.01146   0.01297   0.02304

  Beta  occ. eigenvalues -- -482.85178-482.85178 -62.50449 -62.50449 -56.32496
  Beta  occ. eigenvalues --  -56.32496 -56.32110 -56.32110 -56.32062 -56.32061
  Beta  occ. eigenvalues --  -19.15635 -19.15634 -10.30939 -10.30938 -10.27151
  Beta  occ. eigenvalues --  -10.27150 -10.24172 -10.24171 -10.20820 -10.20819
  Beta  occ. eigenvalues --  -10.19189 -10.19189 -10.19163 -10.19162 -10.18816
  Beta  occ. eigenvalues --  -10.18816 -10.18699 -10.18699 -10.18683 -10.18683
  Beta  occ. eigenvalues --   -8.71421  -8.71420  -6.54595  -6.54595  -6.53307
  Beta  occ. eigenvalues --   -6.53306  -6.53165  -6.53164  -2.65686  -2.65685
  Beta  occ. eigenvalues --   -2.65341  -2.65341  -2.65233  -2.65233  -2.64207
  Beta  occ. eigenvalues --   -2.64207  -2.64205  -2.64205  -1.09420  -1.09229
  Beta  occ. eigenvalues --   -0.90584  -0.88820  -0.87022  -0.85581  -0.80808
  Beta  occ. eigenvalues --   -0.79839  -0.77234  -0.76361  -0.76355  -0.73909
  Beta  occ. eigenvalues --   -0.70690  -0.66428  -0.62737  -0.62415  -0.61638
  Beta  occ. eigenvalues --   -0.60521  -0.59348  -0.55650  -0.54038  -0.53602
  Beta  occ. eigenvalues --   -0.50210  -0.48862  -0.48486  -0.47800  -0.47205
  Beta  occ. eigenvalues --   -0.46865  -0.45751  -0.44492  -0.44318  -0.44285
  Beta  occ. eigenvalues --   -0.43957  -0.43573  -0.43469  -0.42086  -0.38742
  Beta  occ. eigenvalues --   -0.38509  -0.37232  -0.36911  -0.36638  -0.36310
  Beta  occ. eigenvalues --   -0.35791  -0.35213  -0.31544  -0.31423  -0.31015
  Beta  occ. eigenvalues --   -0.30261  -0.29383  -0.28899  -0.27020  -0.26997
  Beta  occ. eigenvalues --   -0.26521  -0.26010
  Beta virt. eigenvalues --   -0.14801  -0.06142  -0.03513  -0.03397  -0.02840
  Beta virt. eigenvalues --   -0.02744  -0.02527  -0.02060  -0.00970  -0.00386
  Beta virt. eigenvalues --   -0.00130   0.00985   0.01146   0.01297   0.02304

 Mulliken charges and spin densities:
               1          2
     1  Br  -0.026005  -0.000000
     2  C   -0.445092   0.000000
     3  C    1.046814   0.000000
     4  C   -1.042975  -0.000000
     5  O   -0.161944  -0.000000
     6  C   -0.446007  -0.000000
     7  C    1.046501  -0.000000
     8  C   -1.042903  -0.000000
     9  O   -0.162029   0.000000
    10  C    1.305673   0.000000
    11  C   -0.170779  -0.000000
    12  C   -0.302551  -0.000000
    13  C   -0.375418   0.000000
    14  C   -0.400407  -0.000000
    15  C   -0.482428   0.000000
    16  Br  -0.025993  -0.000000
    17  C    1.305023  -0.000000
    18  C   -0.170828  -0.000000
    19  C   -0.302626   0.000000
    20  C   -0.375295   0.000000
    21  C   -0.400688   0.000000
    22  C   -0.481969   0.000000
    23  H    0.235083   0.000000
    24  H    0.205651  -0.000000
    25  H    0.189284  -0.000000
    26  H    0.207058   0.000000
    27  H    0.218898   0.000000
    28  H    0.235064  -0.000000
    29  H    0.205661   0.000000
    30  H    0.189290  -0.000000
    31  H    0.207057  -0.000000
    32  H    0.218882  -0.000000
 Sum of Mulliken charges =  -0.00000  -0.00000

 Dipole moment (field-independent basis, Debye):
    X=              0.0006    Y=             -0.0017    Z=              0.1885  Tot=              0.1885
 Quadrupole moment (field-independent basis, Debye-Ang):
   XX=           -122.5235   YY=           -169.1435   ZZ=           -141.8988
   XY=              1.5512   XZ=             -0.0025   YZ=              0.0044

 Normal termination of Gaussian 16 at Sun Jan 21 06:56:56 2024.
