 Gaussian 16, Revision A.03,
 Gaussian 16:  ES64L-G16RevA.03 25-Dec-2016

 ----------------------------------------------------------------------
 #P UB3LYP/6-311++G(d,p) nosym opt freq SCRF=(PCM,Solvent=n,n-DiMethylF
 ormamide)
 ----------------------------------------------------------------------

 --------
 Oxidized
 --------
 Symbolic Z-matrix:
 Charge =  0 Multiplicity = 1

 SCF Done:  E(UB3LYP) =  -1203.95894276     A.U. after   15 cycles
 SCF Done:  E(UB3LYP) =  -1203.95912038     A.U. after   12 cycles
 SCF Done:  E(UB3LYP) =  -1203.95916495     A.U. after   12 cycles
 SCF Done:  E(UB3LYP) =  -1203.95917327     A.U. after   11 cycles
 SCF Done:  E(UB3LYP) =  -1203.95917311     A.U. after   10 cycles
 SCF Done:  E(UB3LYP) =  -1203.95917717     A.U. after   10 cycles
 SCF Done:  E(UB3LYP) =  -1203.95917731     A.U. after    9 cycles
 SCF Done:  E(UB3LYP) =  -1203.95917743     A.U. after    9 cycles
 SCF Done:  E(UB3LYP) =  -1203.95917753     A.U. after    9 cycles
 SCF Done:  E(UB3LYP) =  -1203.95917770     A.U. after    9 cycles
 SCF Done:  E(UB3LYP) =  -1203.95917788     A.U. after   10 cycles
 SCF Done:  E(UB3LYP) =  -1203.95917799     A.U. after    9 cycles
 SCF Done:  E(UB3LYP) =  -1203.95917804     A.U. after    8 cycles
 Optimization completed.
    -- Stationary point found.
 Normal termination of Gaussian 16 at Sat Feb 10 16:27:13 2024.

 ----------------------------------------------------------------------
 #P Geom=AllCheck Guess=TCheck SCRF=Check GenChk UB3LYP/6-311++G(d,p) F
 req
 ----------------------------------------------------------------------

 Structure from the checkpoint file:  "153.chk"
 --------
 Oxidized
 --------
 Charge =  0 Multiplicity = 1

                          Input orientation:
 ---------------------------------------------------------------------
 Center     Atomic      Atomic             Coordinates (Angstroms)
 Number     Number       Type             X           Y           Z
 ---------------------------------------------------------------------
      1          7           0       -2.808409   -2.006069    0.518789
      2          6           0       -2.483957   -0.719265    0.250039
      3          6           0       -3.532300    0.228360    0.115422
      4          6           0       -3.273956    1.552219   -0.159778
      5          6           0       -1.956525    2.001602   -0.314847
      6          6           0       -0.907869    1.103561   -0.186603
      7          6           0        0.471598    1.621520   -0.358300
      8          8           0        0.682591    2.801825   -0.613305
      9          6           0        1.609074    0.667886   -0.210542
     10          6           0        2.895844    1.183010   -0.367211
     11          6           0        4.000844    0.354247   -0.238975
     12          6           0        3.816762   -0.992411    0.048098
     13          6           0        2.533035   -1.514255    0.205184
     14         17           0        2.489880   -3.235415    0.569159
     15          6           0        1.388623   -0.699708    0.079036
     16          6           0       -0.015547   -1.210040    0.231761
     17          8           0       -0.215368   -2.406286    0.466270
     18          6           0       -1.133419   -0.269181    0.097826
     19          1           0       -3.774906   -2.273691    0.609402
     20          1           0       -2.071610   -2.690616    0.608485
     21          1           0       -4.553985   -0.115257    0.234567
     22          1           0       -4.098416    2.249035   -0.257027
     23          1           0       -1.741405    3.038540   -0.533006
     24          1           0        3.008246    2.235782   -0.588567
     25          1           0        5.003144    0.746849   -0.359169
     26          1           0        4.668029   -1.652243    0.153292
 ---------------------------------------------------------------------

 SCF Done:  E(UB3LYP) =  -1203.95917804     A.U. after    2 cycles

 Alpha  occ. eigenvalues -- -101.56355 -19.12885 -19.12528 -14.33732 -10.28422
 Alpha  occ. eigenvalues --  -10.28259 -10.26442 -10.25091 -10.22476 -10.21483
 Alpha  occ. eigenvalues --  -10.20725 -10.20685 -10.20418 -10.20395 -10.20026
 Alpha  occ. eigenvalues --  -10.19813 -10.19395 -10.18845  -9.47834  -7.24309
 Alpha  occ. eigenvalues --   -7.23348  -7.23228  -1.06319  -1.06072  -0.94776
 Alpha  occ. eigenvalues --   -0.91401  -0.87409  -0.85871  -0.81446  -0.77611
 Alpha  occ. eigenvalues --   -0.76512  -0.75704  -0.69138  -0.67022  -0.65546
 Alpha  occ. eigenvalues --   -0.61492  -0.59052  -0.57804  -0.55886  -0.53191
 Alpha  occ. eigenvalues --   -0.51357  -0.50633  -0.49555  -0.47935  -0.47611
 Alpha  occ. eigenvalues --   -0.45982  -0.45822  -0.45376  -0.44866  -0.43360
 Alpha  occ. eigenvalues --   -0.42094  -0.41496  -0.40239  -0.39422  -0.38520
 Alpha  occ. eigenvalues --   -0.38081  -0.37776  -0.35046  -0.33631  -0.33284
 Alpha  occ. eigenvalues --   -0.29329  -0.28534  -0.28012  -0.27001  -0.26787
 Alpha  occ. eigenvalues --   -0.22858
 Alpha virt. eigenvalues --   -0.11852  -0.07194  -0.04093  -0.02069  -0.00644
 Alpha virt. eigenvalues --   -0.00161   0.00237   0.00971   0.01809   0.02381
 Alpha virt. eigenvalues --    0.02937   0.03472   0.03774   0.04058   0.04236

  Beta  occ. eigenvalues -- -101.56355 -19.12885 -19.12528 -14.33732 -10.28422
  Beta  occ. eigenvalues --  -10.28259 -10.26442 -10.25091 -10.22476 -10.21483
  Beta  occ. eigenvalues --  -10.20725 -10.20685 -10.20418 -10.20395 -10.20026
  Beta  occ. eigenvalues --  -10.19813 -10.19395 -10.18845  -9.47834  -7.24309
  Beta  occ. eigenvalues --   -7.23348  -7.23228  -1.06319  -1.06072  -0.94776
  Beta  occ. eigenvalues --   -0.91401  -0.87409  -0.85871  -0.81446  -0.77611
  Beta  occ. eigenvalues --   -0.76512  -0.75704  -0.69138  -0.67022  -0.65546
  Beta  occ. eigenvalues --   -0.61492  -0.59052  -0.57804  -0.55886  -0.53191
  Beta  occ. eigenvalues --   -0.51357  -0.50633  -0.49555  -0.47935  -0.47611
  Beta  occ. eigenvalues --   -0.45982  -0.45822  -0.45376  -0.44866  -0.43360
  Beta  occ. eigenvalues --   -0.42094  -0.41496  -0.40239  -0.39422  -0.38520
  Beta  occ. eigenvalues --   -0.38081  -0.37776  -0.35046  -0.33631  -0.33284
  Beta  occ. eigenvalues --   -0.29329  -0.28534  -0.28012  -0.27001  -0.26787
  Beta  occ. eigenvalues --   -0.22858
  Beta virt. eigenvalues --   -0.11852  -0.07194  -0.04093  -0.02069  -0.00644
  Beta virt. eigenvalues --   -0.00161   0.00237   0.00971   0.01809   0.02381
  Beta virt. eigenvalues --    0.02937   0.03472   0.03774   0.04058   0.04236

 Mulliken charges and spin densities:
               1          2
     1  N   -0.425558  -0.000000
     2  C    0.371892  -0.000000
     3  C   -0.176991  -0.000000
     4  C   -0.434630  -0.000000
     5  C    0.080929   0.000000
     6  C    0.173317   0.000000
     7  C   -0.835633  -0.000000
     8  O   -0.271029   0.000000
     9  C    0.044701   0.000000
    10  C    0.430663   0.000000
    11  C   -0.654969   0.000000
    12  C   -0.049918  -0.000000
    13  C    1.209369   0.000000
    14  Cl   0.365687  -0.000000
    15  C   -0.020534  -0.000000
    16  C   -1.472547   0.000000
    17  O   -0.207878  -0.000000
    18  C    0.015579  -0.000000
    19  H    0.314083  -0.000000
    20  H    0.337654   0.000000
    21  H    0.188809   0.000000
    22  H    0.210622  -0.000000
    23  H    0.176311   0.000000
    24  H    0.193192  -0.000000
    25  H    0.209683   0.000000
    26  H    0.227195  -0.000000
 Sum of Mulliken charges =  -0.00000   0.00000

 Dipole moment (field-independent basis, Debye):
    X=             -2.4034    Y=             -0.2689    Z=              0.1906  Tot=              2.4259
 Quadrupole moment (field-independent basis, Debye-Ang):
   XX=            -71.4766   YY=           -122.5482   ZZ=           -113.9032
   XY=              5.0690   XZ=             -2.7624   YZ=              1.6922

  Exact polarizability: 398.457 -13.761 335.175  -9.126 -41.944 134.169
 Approx polarizability: 433.015  -3.231 419.125 -11.918 -54.714 159.330

                      1                      2                      3
                      A                      A                      A
 Frequencies --     19.2727                43.9589                76.0409
 Red. masses --      8.3536                 8.2006                10.6999
 Frc consts  --      0.0018                 0.0093                 0.0365
 IR Inten    --      5.4456                 3.2549                19.7536

                      4                      5                      6
                      A                      A                      A
 Frequencies --    142.3661               172.7403               177.0152
 Red. masses --      2.9743                 9.8256                 3.6632
 Frc consts  --      0.0355                 0.1727                 0.0676
 IR Inten    --     57.6537                 2.3622                41.2994

                      7                      8                      9
                      A                      A                      A
 Frequencies --    205.6099               216.7416               262.3175
 Red. masses --      3.8589                 1.6016                 6.4172
 Frc consts  --      0.0961                 0.0443                 0.2602
 IR Inten    --     52.7702               138.1762                 0.4593

                     10                     11                     12
                      A                      A                      A
 Frequencies --    271.5188               339.6098               355.1714
 Red. masses --      8.0629                 5.7915                11.6511
 Frc consts  --      0.3502                 0.3936                 0.8660
 IR Inten    --      0.2809                 2.4371                 5.0501

                     13                     14                     15
                      A                      A                      A
 Frequencies --    396.8006               415.1564               430.1980
 Red. masses --      7.5264                 5.4964                10.8900
 Frc consts  --      0.6982                 0.5582                 1.1874
 IR Inten    --      1.3027                 1.6026                42.2856

                     16                     17                     18
                      A                      A                      A
 Frequencies --    432.8194               460.2305               487.6802
 Red. masses --      5.1157                 6.8153                 3.7370
 Frc consts  --      0.5646                 0.8505                 0.5237
 IR Inten    --      1.1545                18.3426                 0.3611

                     19                     20                     21
                      A                      A                      A
 Frequencies --    493.0597               505.0316               561.3462
 Red. masses --      6.8364                 4.8325                 6.0774
 Frc consts  --      0.9792                 0.7262                 1.1283
 IR Inten    --      8.0052                11.8032                 0.8837

                     22                     23                     24
                      A                      A                      A
 Frequencies --    565.2746               624.1245               628.7210
 Red. masses --      4.3942                 1.0732                 6.5475
 Frc consts  --      0.8273                 0.2463                 1.5249
 IR Inten    --      6.0345                18.5352                 6.7490

                     25                     26                     27
                      A                      A                      A
 Frequencies --    664.3540               701.0398               724.6009
 Red. masses --      4.0302                 7.0153                 3.0585
 Frc consts  --      1.0480                 2.0313                 0.9461
 IR Inten    --     17.9366                20.4829                 2.1481

                     28                     29                     30
                      A                      A                      A
 Frequencies --    751.5993               758.1815               794.1645
 Red. masses --      8.0429                 2.5163                 4.7102
 Frc consts  --      2.6769                 0.8522                 1.7503
 IR Inten    --    104.9609               110.0002                 2.7952

                     31                     32                     33
                      A                      A                      A
 Frequencies --    796.5316               810.3388               836.1235
 Red. masses --      6.9222                 1.6064                 2.3470
 Frc consts  --      2.5876                 0.6215                 0.9667
 IR Inten    --     34.9360                 0.0371                48.7589

                     34                     35                     36
                      A                      A                      A
 Frequencies --    917.7340               917.9570               920.0954
 Red. masses --      1.4507                 7.1794                 6.4322
 Frc consts  --      0.7199                 3.5644                 3.2083
 IR Inten    --      0.9266                59.7869                15.6125

                     37                     38                     39
                      A                      A                      A
 Frequencies --    953.2699              1004.4053              1016.6707
 Red. masses --      1.3865                 1.3244                 1.3403
 Frc consts  --      0.7423                 0.7872                 0.8163
 IR Inten    --      0.0637                 0.3469                 0.8238

                     40                     41                     42
                      A                      A                      A
 Frequencies --   1020.0898              1064.7735              1094.4084
 Red. masses --      2.3335                 2.6522                 2.4785
 Frc consts  --      1.4306                 1.7716                 1.7490
 IR Inten    --    104.4450                12.8845                 1.9827

                     43                     44                     45
                      A                      A                      A
 Frequencies --   1126.1369              1147.1191              1172.7201
 Red. masses --      2.3521                 2.1703                 2.1362
 Frc consts  --      1.7575                 1.6826                 1.7310
 IR Inten    --     26.3606                84.1827                 5.1933

                     46                     47                     48
                      A                      A                      A
 Frequencies --   1194.4047              1200.0057              1240.6631
 Red. masses --      1.1907                 1.3174                 2.0717
 Frc consts  --      1.0008                 1.1177                 1.8788
 IR Inten    --     63.2492                11.9692                50.9871

                     49                     50                     51
                      A                      A                      A
 Frequencies --   1258.8086              1316.8620              1330.3181
 Red. masses --      4.8518                 2.4922                 9.0751
 Frc consts  --      4.5298                 2.5463                 9.4627
 IR Inten    --   1376.2392               214.6684               130.8581

                     52                     53                     54
                      A                      A                      A
 Frequencies --   1357.4228              1400.1673              1445.6117
 Red. masses --      4.8720                 5.5374                 3.4966
 Frc consts  --      5.2892                 6.3961                 4.3053
 IR Inten    --     10.4764               102.5286                42.3817

                     55                     56                     57
                      A                      A                      A
 Frequencies --   1464.8296              1478.0101              1485.1856
 Red. masses --      2.3419                 2.5556                 3.1382
 Frc consts  --      2.9606                 3.2893                 4.0784
 IR Inten    --     49.8270                29.5535                23.7456

                     58                     59                     60
                      A                      A                      A
 Frequencies --   1568.1284              1590.0983              1595.6267
 Red. masses --      3.1255                 3.2197                 2.8807
 Frc consts  --      4.5283                 4.7963                 4.3213
 IR Inten    --    459.5061                90.9021                65.1717

                     61                     62                     63
                      A                      A                      A
 Frequencies --   1610.1239              1629.2861              1659.4513
 Red. masses --      5.9769                 4.2642                 7.3907
 Frc consts  --      9.1295                 6.6693                11.9912
 IR Inten    --    254.1314               336.7460               492.3755

                     64                     65                     66
                      A                      A                      A
 Frequencies --   1691.7897              3170.3314              3187.5683
 Red. masses --     11.2676                 1.0882                 1.0940
 Frc consts  --     19.0008                 6.4439                 6.5490
 IR Inten    --    316.5242                10.4522                25.1816

                     67                     68                     69
                      A                      A                      A
 Frequencies --   3189.7296              3206.5932              3213.6725
 Red. masses --      1.0888                 1.0931                 1.0934
 Frc consts  --      6.5268                 6.6223                 6.6534
 IR Inten    --      4.8509                 1.8499                12.2591

                     70                     71                     72
                      A                      A                      A
 Frequencies --   3214.1676              3543.7568              3694.9041
 Red. masses --      1.0941                 1.0482                 1.1033
 Frc consts  --      6.6596                 7.7561                 8.8747
 IR Inten    --      1.5172               136.4683               166.6338

 - Thermochemistry -
 -------------------
 Temperature   298.150 Kelvin.  Pressure   1.00000 Atm.
 Atom     1 has atomic number  7 and mass  14.00307

 Molecular mass:   257.02436 amu.
 Principal axes and moments of inertia in atomic units:
                           1         2         3
     Eigenvalues --  2842.246035499.768638341.70907
           X            0.93349   0.35625   0.04110
           Y           -0.35703   0.91251   0.19963
           Z            0.03361  -0.20103   0.97901
 This molecule is an asymmetric top.
 Rotational symmetry number  1.
 Warning -- assumption of classical behavior for rotation
           may cause significant error
 Rotational temperatures (Kelvin)      0.03047     0.01575     0.01038
 Rotational constants (GHZ):           0.63497     0.32815     0.21635
 Zero-point vibrational energy     486955.7 (Joules/Mol)
                                  116.38521 (Kcal/Mol)
 Warning -- explicit consideration of  22 degrees of freedom as
           vibrations may cause significant error
 Vibrational temperatures:     27.73    63.25   109.41   204.83   248.53
          (Kelvin)            254.69   295.83   311.84   377.42   390.66
                              488.62   511.01   570.91   597.32   618.96
                              622.73   662.17   701.66   709.40   726.63
                              807.65   813.30   897.98   904.59   955.86
                             1008.64  1042.54  1081.38  1090.85  1142.63
                             1146.03  1165.90  1203.00  1320.41  1320.74
                             1323.81  1371.54  1445.12  1462.76  1467.68
                             1531.97  1574.61  1620.26  1650.45  1687.28
                             1718.48  1726.54  1785.04  1811.14  1894.67
                             1914.03  1953.03  2014.53  2079.91  2107.56
                             2126.53  2136.85  2256.19  2287.80  2295.75
                             2316.61  2344.18  2387.58  2434.11  4561.40
                             4586.20  4589.31  4613.57  4623.76  4624.47
                             5098.68  5316.14

 Zero-point correction=                           0.185472 (Hartree/Particle)
 Thermal correction to Energy=                    0.199585
 Thermal correction to Enthalpy=                  0.200529
 Thermal correction to Gibbs Free Energy=         0.143239
 Sum of electronic and zero-point Energies=          -1203.773706
 Sum of electronic and thermal Energies=             -1203.759594
 Sum of electronic and thermal Enthalpies=           -1203.758649
 Sum of electronic and thermal Free Energies=        -1203.815939

                     E (Thermal)             CV                S
                      KCal/Mol        Cal/Mol-Kelvin    Cal/Mol-Kelvin
 Total                  125.241             55.555            120.576
 Electronic               0.000              0.000              0.000
 Translational            0.889              2.981             42.532
 Rotational               0.889              2.981             33.233
 Vibrational            123.464             49.593             44.811
 Vibration     1          0.593              1.986              6.708
 Vibration     2          0.595              1.980              5.072
 Vibration     3          0.599              1.965              3.991
 Vibration     4          0.616              1.911              2.772
 Vibration     5          0.626              1.876              2.405
 Vibration     6          0.628              1.871              2.360
 Vibration     7          0.640              1.832              2.082
 Vibration     8          0.646              1.816              1.986
 Vibration     9          0.670              1.742              1.646
 Vibration    10          0.675              1.726              1.587
 Vibration    11          0.720              1.596              1.214
 Vibration    12          0.731              1.565              1.143
 Vibration    13          0.763              1.477              0.974
 Vibration    14          0.779              1.437              0.909
 Vibration    15          0.791              1.404              0.858
 Vibration    16          0.794              1.399              0.849
 Vibration    17          0.818              1.338              0.765
 Vibration    18          0.844              1.277              0.690
 Vibration    19          0.849              1.265              0.676
 Vibration    20          0.860              1.239              0.646
 Vibration    21          0.917              1.115              0.521
 Vibration    22          0.921              1.106              0.513

                           ! Non-Optimized Parameters !
 Normal termination of Gaussian 16 at Sat Feb 10 16:59:28 2024.
