 Q-Chem 5.4, Q-Chem, Inc., Pleasanton, CA (2021)
 Q-Chem 5.4.0 for Intel X86 EM64T Linux

User input:
--------------------------------------------------------------
$molecule
0 1
O                 -2.7338800000     -2.5401090000      0.5391060000
C                 -2.5589750000     -1.2207930000      0.3975860000
C                 -3.7169080000     -0.4109910000      0.4075950000
C                 -3.6263620000      0.9509920000      0.2683990000
C                 -2.3725490000      1.5833040000      0.1110210000
O                 -2.3711230000      2.9154060000     -0.0184430000
C                 -1.2035190000      0.8015970000      0.0974120000
C                  0.0955900000      1.4387250000     -0.0639690000
O                  0.1790860000      2.6935750000     -0.1921840000
C                  1.2977990000      0.6177080000     -0.0763050000
C                  2.5588150000      1.2208070000     -0.2314100000
O                  2.7334800000      2.5401910000     -0.3729260000
C                  3.7168530000      0.4111410000     -0.2414160000
C                  3.6264430000     -0.9508730000     -0.1022280000
C                  2.3726810000     -1.5833520000      0.0551380000
O                  2.3714040000     -2.9154400000      0.1845800000
C                  1.2035310000     -0.8017320000      0.0687460000
C                 -0.0955730000     -1.4388850000      0.2301160000
O                 -0.1788720000     -2.6937810000      0.3583810000
C                 -1.2978480000     -0.6178530000      0.2424690000
H                 -1.8399040000     -2.9577780000      0.5112750000
H                 -4.6760690000     -0.8997610000      0.5284610000
H                 -4.5114910000      1.5754840000      0.2754980000
H                 -1.4306180000      3.1979450000     -0.1179110000
H                  1.8395040000      2.9578580000     -0.3451270000
H                  4.6759470000      0.9000300000     -0.3622740000
H                  4.5116430000     -1.5752620000     -0.1093280000
H                  1.4309150000     -3.1981510000      0.2840270000
$end
$rem
MAX_SCF_CYCLES=200
BASIS  =  6-311++G(d,p)
GUI  =  2
JOB_TYPE  =  SP
METHOD  =  B3LYP
SOLVENT_METHOD = COSMO
$end
$solvent
dielectric 37.219
opticaldielectric 1.43
$end

--------------------------------------------------------------

             Standard Nuclear Orientation (Angstroms)
    I     Atom           X                Y                Z
 ----------------------------------------------------------------
    1      O      -2.5657918629    -2.7478840692     0.0000169827
    2      C      -2.4784641578    -1.4123735867     0.0000065409
    3      C      -3.6904269807    -0.6858514554    -0.0000121766
    4      C      -3.6903106911     0.6862169771    -0.0000149744
    5      C      -2.4782190984     1.4124864237     0.0000176406
    6      O      -2.5652582220     2.7480323383     0.0000209244
    7      C      -1.2570211353     0.7149495324     0.0000145111
    8      C       0.0000611031     1.4493910577    -0.0000192472
    9      O       0.0002379843     2.7135347039     0.0000153312
   10      C       1.2570561293     0.7148904961    -0.0000260611
   11      C       2.4782931792     1.4124056461    -0.0000056223
   12      O       2.5653768533     2.7479674056    -0.0000237794
   13      C       3.6903503181     0.6860251320     0.0000371588
   14      C       3.6903721580    -0.6860642977     0.0000393647
   15      C       2.4783443465    -1.4124949392    -0.0000173784
   16      O       2.5655322104    -2.7480149046    -0.0000298235
   17      C       1.2570334225    -0.7150522166    -0.0000327452
   18      C      -0.0000412534    -1.4495171128    -0.0000119331
   19      O      -0.0000222246    -2.7136985094     0.0000136481
   20      C      -1.2571042160    -0.7150077358     0.0000081823
   21      H      -1.6438882617    -3.1007421039     0.0000807506
   22      H      -4.6173343835    -1.2465092759    -0.0000552289
   23      H      -4.6171025802     1.2470652575    -0.0000493029
   24      H      -1.6433110731     3.1005735119     0.0000071302
   25      H       1.6434756089     3.1008267011    -0.0001194982
   26      H       4.6171818068     1.2467958512     0.0000945275
   27      H       4.6172272248    -1.2468055537     0.0000880228
   28      H       1.6436150076    -3.1007236302    -0.0000522309
 ----------------------------------------------------------------

    9    -989.9868095989      6.79e-06  Convergence criterion met
 Total energy in the final basis set =     -989.9868095989
    4    -990.0022742405      9.29e-06  Convergence criterion met
 Total energy in the final basis set =     -990.0022742405

                    Orbital Energies (a.u.)
 --------------------------------------------------------------

 Alpha MOs
 -- Occupied --
-19.1677 -19.1677 -19.1677 -19.1677 -19.1455 -19.1454 -10.2931 -10.2931
-10.2702 -10.2702 -10.2702 -10.2702 -10.2142 -10.2142 -10.2138 -10.2138
-10.2045 -10.2045 -10.2039 -10.2039  -1.1010  -1.0992  -1.0897  -1.0885
 -1.0590  -1.0580  -0.8982  -0.8787  -0.8253  -0.7855  -0.7793  -0.7634
 -0.7102  -0.6857  -0.6771  -0.6417  -0.6294  -0.5905  -0.5661  -0.5604
 -0.5564  -0.5510  -0.5478  -0.5044  -0.4924  -0.4800  -0.4741  -0.4710
 -0.4676  -0.4494  -0.4455  -0.4424  -0.4396  -0.4392  -0.4348  -0.4228
 -0.4119  -0.4006  -0.3995  -0.3955  -0.3829  -0.3828  -0.3421  -0.3337
 -0.3084  -0.2996  -0.2897  -0.2854  -0.2486  -0.2286

          Ground-State Mulliken Net Atomic Charges

     Atom                 Charge (a.u.)
  ----------------------------------------
      1 O                    -0.346126
      2 C                    -0.283421
      3 C                    -0.117495
      4 C                    -0.117202
      5 C                    -0.283000
      6 O                    -0.346241
      7 C                     0.500564
      8 C                    -0.352043
      9 O                    -0.435597
     10 C                     0.500583
     11 C                    -0.283041
     12 O                    -0.346323
     13 C                    -0.117488
     14 C                    -0.117101
     15 C                    -0.283206
     16 O                    -0.346143
     17 C                     0.500464
     18 C                    -0.351925
     19 O                    -0.435580
     20 C                     0.500464
     21 H                     0.388879
     22 H                     0.251271
     23 H                     0.250799
     24 H                     0.388959
     25 H                     0.388967
     26 H                     0.251276
     27 H                     0.250814
     28 H                     0.388892
  ----------------------------------------
  Sum of atomic charges =     0.000000

                    Cartesian Multipole Moments
 -----------------------------------------------------------------
    Charge (ESU x 10^10)
                 0.0000
    Dipole Moment (Debye)
         X      -0.0014      Y      -0.0007      Z      -0.0002
       Tot       0.0016
    Quadrupole Moments (Debye-Ang)
        XX    -100.0440     XY       0.0024     YY    -131.7472
        XZ       0.0007     YZ      -0.0007     ZZ    -115.4175

 Total job time:  78.31s(wall), 582.03s(cpu)
        *  Thank you very much for using Q-Chem.  Have a nice day.  *
