 Q-Chem 5.4, Q-Chem, Inc., Pleasanton, CA (2021)
 Q-Chem 5.4.0 for Intel X86 EM64T Linux

User input:
--------------------------------------------------------------
$molecule
-2 1
C                  2.5253330000     -0.8927360000     -0.1340740000
C                  1.2172920000     -0.1562900000     -0.0000950000
C                  1.1492730000      1.2041670000      0.3193880000
Cl                 2.7171350000      2.0896070000      0.5762120000
C                 -0.0242500000      2.0149940000      0.4751920000
O                 -0.0392520000      3.2612460000      0.7690540000
C                 -1.1781040000      1.1934700000      0.2460850000
C                 -1.2133610000     -0.1674760000     -0.0766580000
C                 -2.5035780000     -0.9158550000     -0.2925160000
C                  0.0109590000     -0.9109740000     -0.2149750000
O                  0.0262370000     -2.1815690000     -0.5142520000
Cl                -2.7670940000      2.0644510000      0.4033670000
H                  3.1144520000     -0.8694210000      0.7944930000
H                  2.2918960000     -1.9297870000     -0.3873800000
H                  3.1679500000     -0.4631280000     -0.9164890000
H                 -3.1508010000     -0.8969280000      0.5966030000
H                 -3.0988730000     -0.4928020000     -1.1149410000
H                 -2.2452140000     -1.9509690000     -0.5290140000
$end

$rem
BASIS  =  6-311++G(d,p)
GUI  =  2
JOB_TYPE  =  SP
METHOD  =  B3LYP
SCF_CONVERGENCE  = 8
SOLVENT_METHOD = sm12
$end

$smx
solvent dimethylformamide
charges CM5
$end

--------------------------------------------------------------

             Standard Nuclear Orientation (Angstroms)
    I     Atom           X                Y                Z
 ----------------------------------------------------------------
    1      C       2.5253330000    -0.8927360000    -0.1340740000
    2      C       1.2172920000    -0.1562900000    -0.0000950000
    3      C       1.1492730000     1.2041670000     0.3193880000
    4      Cl      2.7171350000     2.0896070000     0.5762120000
    5      C      -0.0242500000     2.0149940000     0.4751920000
    6      O      -0.0392520000     3.2612460000     0.7690540000
    7      C      -1.1781040000     1.1934700000     0.2460850000
    8      C      -1.2133610000    -0.1674760000    -0.0766580000
    9      C      -2.5035780000    -0.9158550000    -0.2925160000
   10      C       0.0109590000    -0.9109740000    -0.2149750000
   11      O       0.0262370000    -2.1815690000    -0.5142520000
   12      Cl     -2.7670940000     2.0644510000     0.4033670000
   13      H       3.1144520000    -0.8694210000     0.7944930000
   14      H       2.2918960000    -1.9297870000    -0.3873800000
   15      H       3.1679500000    -0.4631280000    -0.9164890000
   16      H      -3.1508010000    -0.8969280000     0.5966030000
   17      H      -3.0988730000    -0.4928020000    -1.1149410000
   18      H      -2.2452140000    -1.9509690000    -0.5290140000
 ----------------------------------------------------------------

   17   -1379.4611858274      4.19e-09  Convergence criterion met
 Total energy in the final basis set =    -1379.7322825089

                    Orbital Energies (a.u.)
 --------------------------------------------------------------

 Alpha MOs
 -- Occupied --
********-101.5234 -19.0158 -19.0128 -10.1865 -10.1859 -10.1858 -10.1782
-10.1593 -10.1593 -10.1471 -10.1471  -9.4363  -9.4363  -7.2003  -7.2002
 -7.1919  -7.1919  -7.1911  -7.1911  -0.9359  -0.9271  -0.8356  -0.8291
 -0.7708  -0.7463  -0.7078  -0.6395  -0.6343  -0.5359  -0.5294  -0.4757
 -0.4301  -0.4193  -0.4076  -0.4036  -0.3922  -0.3792  -0.3718  -0.3623
 -0.3560  -0.3315  -0.3284  -0.3183  -0.3152  -0.2859  -0.2857  -0.2790
 -0.2212  -0.2077  -0.1982  -0.1921  -0.1208

          Ground-State Mulliken Net Atomic Charges

     Atom                 Charge (a.u.)
  ----------------------------------------
      1 C                     0.242130
      2 C                    -0.495955
      3 C                     0.405267
      4 Cl                    0.936003
      5 C                    -1.633893
      6 O                    -0.368580
      7 C                     0.408199
      8 C                    -0.495908
      9 C                     0.244323
     10 C                    -2.720688
     11 O                    -0.422225
     12 Cl                    0.935310
     13 H                     0.171094
     14 H                     0.140411
     15 H                     0.171369
     16 H                     0.171100
     17 H                     0.171450
     18 H                     0.140593
  ----------------------------------------
  Sum of atomic charges =    -2.000000

                    Cartesian Multipole Moments
 -----------------------------------------------------------------
    Charge (ESU x 10^10)
                -9.6064
    Dipole Moment (Debye)
         X       0.0839      Y      -7.0517      Z      -1.6631
       Tot       7.2456
    Quadrupole Moments (Debye-Ang)
        XX    -120.5581     XY       0.6203     YY    -155.6286
        XZ      -0.6620     YZ     -14.5277     ZZ     -97.4944

 Total job time:  241.80s(wall), 1759.40s(cpu)
        *  Thank you very much for using Q-Chem.  Have a nice day.  *
