 Q-Chem 5.4, Q-Chem, Inc., Pleasanton, CA (2021)
 Q-Chem 5.4.0 for Intel X86 EM64T Linux

User input:
--------------------------------------------------------------
$molecule
-1 2
C                 -0.6761620000      3.2713240000      0.7697650000
C                 -1.4982530000      3.4080840000     -0.3333400000
C                 -1.0465230000      3.0004900000     -1.6048970000
C                  0.6197870000      2.7257640000      0.6430180000
C                  1.0779510000      2.3128500000     -0.6411290000
C                  0.2224420000      2.4624930000     -1.7465350000
C                  1.4799190000      2.5832230000      1.7985190000
C                  2.7877980000      2.0143160000      1.5685680000
C                  3.2656180000      1.6117120000      0.3393330000
C                  2.4249270000      1.7335750000     -0.8322250000
O                  1.1718690000      2.9188240000      2.9894220000
O                  2.8159460000      1.3671430000     -1.9713140000
O                  3.5407330000      1.9077280000      2.7022580000
C                  4.6447330000      1.0250670000      0.1828670000
C                  4.6617420000     -0.5143270000      0.2499960000
C                  6.0612510000     -1.1096250000      0.0611960000
C                  6.0936410000     -2.6409180000      0.1280190000
C                  7.4926570000     -3.2401520000     -0.0573620000
C                  7.5231040000     -4.7714520000      0.0100130000
C                  8.9227240000     -5.3708570000     -0.1693840000
C                  8.9501940000     -6.9022370000     -0.1020790000
C                 10.3508080000     -7.5003870000     -0.2717740000
C                 10.3669830000     -9.0398150000     -0.2016960000
C                 11.7462830000     -9.6382420000     -0.3633770000
C                 12.5586120000     -9.9036720000      0.7389400000
C                 12.2749090000     -9.9171580000     -1.6317730000
C                 13.5544420000    -10.4311420000     -1.7901850000
C                 14.3567820000    -10.6868870000     -0.6716730000
C                 13.8483060000    -10.4236810000      0.6018350000
O                 15.6059660000    -11.1800850000     -0.9399130000
C                 16.5226650000    -11.4682550000      0.1274160000
C                 16.1969750000    -12.8184840000      0.8117820000
C                 17.9185680000    -11.4837500000     -0.4889940000
C                 19.0047770000    -11.6688590000      0.5932970000
C                 18.5479430000    -12.6039590000      1.7407760000
C                 17.4651330000    -13.5772140000      1.2597600000
H                 -1.0010240000      3.5775510000      1.7578000000
H                 -2.4930840000      3.8295910000     -0.2210270000
H                 -1.6928810000      3.1082840000     -2.4708910000
H                  0.5953910000      2.1398590000     -2.7120720000
H                  2.9351010000      2.2784040000      3.3820000000
H                  5.3031330000      1.4242080000      0.9613850000
H                  5.0378550000      1.3325260000     -0.7914970000
H                  3.9899600000     -0.9022680000     -0.5231690000
H                  4.2553390000     -0.8344220000      1.2169560000
H                  6.7359340000     -0.7013650000      0.8263560000
H                  6.4638690000     -0.7820960000     -0.9066280000
H                  5.4212910000     -3.0485040000     -0.6381500000
H                  5.6861250000     -2.9683910000      1.0936760000
H                  8.1649950000     -2.8318350000      0.7089860000
H                  7.9005400000     -2.9130790000     -1.0229650000
H                  6.8538110000     -5.1798000000     -0.7585710000
H                  7.1114060000     -5.0985080000      0.9739390000
H                  9.5915740000     -4.9635580000      0.6001420000
H                  9.3355330000     -5.0440160000     -1.1327220000
H                  8.2858580000     -7.3099850000     -0.8753490000
H                  8.5314710000     -7.2290120000      0.8589470000
H                 11.0181970000     -7.1010130000      0.5015310000
H                 10.7742360000     -7.1809890000     -1.2317500000
H                  9.7028620000     -9.4376260000     -0.9776550000
H                  9.9428130000     -9.3562770000      0.7578940000
H                 12.1805310000     -9.7090740000      1.7381580000
H                 11.6705560000     -9.7294450000     -2.5141810000
H                 13.9554190000    -10.6431120000     -2.7744670000
H                 14.4321910000    -10.6228700000      1.4901900000
H                 16.4752740000    -10.6488170000      0.8552080000
H                 15.6267860000    -13.4244380000      0.1018430000
H                 15.5453810000    -12.6518540000      1.6741410000
H                 18.0787280000    -10.5559900000     -1.0430010000
H                 17.9613170000    -12.2971110000     -1.2209600000
H                 19.2863860000    -10.6947320000      1.0054570000
H                 19.9051110000    -12.0717760000      0.1196620000
H                 18.1443120000    -12.0093250000      2.5690200000
H                 19.4047440000    -13.1489050000      2.1473690000
H                 17.2081040000    -14.2906330000      2.0481010000
H                 17.8600650000    -14.1706300000      0.4274420000
$end
$rem
MAX_SCF_CYCLES=200
BASIS  =  6-311++G(d,p)
GUI  =  2
JOB_TYPE  =  SP
THRESH = 14
METHOD  =  B3LYP
SCF_CONVERGENCE  = 6
SOLVENT_METHOD = COSMO
$end
$solvent
dielectric 37.219
opticaldielectric 1.43
$end

--------------------------------------------------------------

             Standard Nuclear Orientation (Angstroms)
    I     Atom           X                Y                Z
 ----------------------------------------------------------------
    1      C      11.8292028947    -0.2367239399     0.7936135287
    2      C      12.5134962391     0.9581181976     0.6692252814
    3      C      11.8992829108     2.0610665447     0.0420913267
    4      C      10.5140414510    -0.3721565373     0.2984441491
    5      C       9.8914407793     0.7414984838    -0.3352644887
    6      C      10.6088037286     1.9451207486    -0.4488203954
    7      C       9.7984674474    -1.6236614237     0.4288930656
    8      C       8.4580761199    -1.6646368550    -0.1084636305
    9      C       7.8286166834    -0.6092478839    -0.7340478023
   10      C       8.5157760904     0.6569532278    -0.8708205689
   11      O      10.2586178292    -2.6793143516     0.9762789542
   12      O       7.9745359387     1.6500380970    -1.4235714708
   13      O       7.8448072332    -2.8734784836     0.0531789428
   14      C       6.4247641063    -0.7323641640    -1.2675573820
   15      C       5.3508667518    -0.2630538105    -0.2670466324
   16      C       3.9261277590    -0.3617110016    -0.8229568327
   17      C       2.8466818161     0.0998882115     0.1629921012
   18      C       1.4196007779    -0.0002322667    -0.3884685688
   19      C       0.3415592852     0.4615391028     0.5989218518
   20      C      -1.0860487059     0.3560349769     0.0500957543
   21      C      -2.1619904620     0.8188960280     1.0392965696
   22      C      -3.5894065014     0.7041269887     0.4937593016
   23      C      -4.6627095822     1.1711471513     1.4962181727
   24      C      -6.0748481692     1.0566208299     0.9675666401
   25      C      -6.8408366578    -0.0896316637     1.1792293762
   26      C      -6.6559524889     2.0863334049     0.2138572941
   27      C      -7.9375972618     1.9731968007    -0.3067821175
   28      C      -8.6895966094     0.8127621848    -0.0874363667
   29      C      -8.1338931146    -0.2227519711     0.6665874565
   30      O      -9.9354502208     0.7987903032    -0.6560409711
   31      C     -10.7928510652    -0.3440206600    -0.5096951678
   32      C     -11.4852387154    -0.3656037866     0.8751090281
   33      C     -11.8170423135    -0.2680824881    -1.6384166788
   34      C     -12.7259989995    -1.5167096257    -1.6524579189
   35      C     -13.0348905662    -2.0436922035    -0.2288383308
   36      C     -12.9246123630    -0.9210363865     0.8096999775
   37      H      12.2803031045    -1.0988974637     1.2718277814
   38      H      13.5250157471     1.0479940504     1.0548698011
   39      H      12.4374906054     2.9992571805    -0.0552463690
   40      H      10.1116785689     2.7771199065    -0.9347106399
   41      H       8.5421768792    -3.3936682895     0.5106919435
   42      H       6.2271174931    -1.7737913339    -1.5418922875
   43      H       6.3476416905    -0.1179110361    -2.1703090836
   44      H       5.5659527596     0.7743002207     0.0108166711
   45      H       5.4288526612    -0.8621777701     0.6481607365
   46      H       3.7229200837    -1.4000764433    -1.1193468696
   47      H       3.8560060870     0.2368639001    -1.7410259112
   48      H       3.0486606419     1.1381192899     0.4570611207
   49      H       2.9203778712    -0.4951622220     1.0829296918
   50      H       1.2181357422    -1.0388695399    -0.6829084947
   51      H       1.3453633548     0.5947862298    -1.3083469501
   52      H       0.5407878857     1.5011215914     0.8904673680
   53      H       0.4185624471    -0.1307344966     1.5202777550
   54      H      -1.2856757547    -0.6838597188    -0.2400613168
   55      H      -1.1640017279     0.9474948102    -0.8715088268
   56      H      -1.9659588284     1.8607076086     1.3252117220
   57      H      -2.0797212924     0.2314256684     1.9633053274
   58      H      -3.7934247743    -0.3358376118     0.2113438874
   59      H      -3.6801657603     1.2916545333    -0.4278883618
   60      H      -4.4599915961     2.2117952906     1.7743899402
   61      H      -4.5693896597     0.5831889098     2.4162604831
   62      H      -6.4281583570    -0.9050002706     1.7658475575
   63      H      -6.0931031390     2.9970649349     0.0324977422
   64      H      -8.3787644484     2.7738147083    -0.8889396309
   65      H      -8.6898125228    -1.1278317323     0.8704422928
   66      H     -10.1898391517    -1.2495399228    -0.6504688686
   67      H     -11.4937931084     0.6578375494     1.2608599629
   68      H     -10.8944854028    -0.9594980650     1.5781762029
   69      H     -11.2956265478    -0.1585123434    -2.5920589502
   70      H     -12.4125212754     0.6405447586    -1.5007244458
   71      H     -12.2559572084    -2.3100698924    -2.2421553909
   72      H     -13.6579897362    -1.2648752938    -2.1674785687
   73      H     -12.3285712026    -2.8394772788     0.0363687058
   74      H     -14.0291785882    -2.4987513808    -0.2022970673
   75      H     -13.2269343848    -1.2775685434     1.7986379559
   76      H     -13.6238129864    -0.1191822977     0.5469917834
 ----------------------------------------------------------------

   14   -1544.9147759132      9.26e-07  Convergence criterion met
 Total energy in the final basis set =    -1544.9147759132
    6   -1545.0029848265      6.48e-07  Convergence criterion met
 Total energy in the final basis set =    -1545.0029848265

                    Orbital Energies (a.u.)
 --------------------------------------------------------------

 Alpha MOs
 -- Occupied --
-19.1509 -19.1445 -19.0889 -19.0770 -10.2353 -10.2256 -10.2254 -10.2234
-10.2225 -10.1756 -10.1751 -10.1738 -10.1735 -10.1734 -10.1729 -10.1721
-10.1711 -10.1708 -10.1707 -10.1694 -10.1652 -10.1634 -10.1632 -10.1625
-10.1622 -10.1616 -10.1600 -10.1599 -10.1569 -10.1566 -10.1559 -10.1552
-10.1548 -10.1544 -10.1543 -10.1539  -1.0654  -1.0646  -1.0026  -0.9989
 -0.8616  -0.8591  -0.8294  -0.8142  -0.8071  -0.7943  -0.7783  -0.7622
 -0.7525  -0.7512  -0.7454  -0.7390  -0.7311  -0.7125  -0.6886  -0.6697
 -0.6484  -0.6330  -0.6227  -0.6174  -0.6109  -0.6044  -0.5897  -0.5765
 -0.5739  -0.5704  -0.5682  -0.5661  -0.5409  -0.5373  -0.5327  -0.5052
 -0.4917  -0.4874  -0.4851  -0.4790  -0.4727  -0.4660  -0.4580  -0.4526
 -0.4502  -0.4449  -0.4397  -0.4373  -0.4291  -0.4277  -0.4268  -0.4233
 -0.4211  -0.4194  -0.4167  -0.4133  -0.4037  -0.3993  -0.3963  -0.3917
 -0.3897  -0.3878  -0.3822  -0.3759  -0.3750  -0.3728  -0.3704  -0.3659
 -0.3593  -0.3565  -0.3529  -0.3520  -0.3460  -0.3446  -0.3407  -0.3362
 -0.3343  -0.3318  -0.3279  -0.3241  -0.3229  -0.3197  -0.3180  -0.3174
 -0.3156  -0.3143  -0.3011  -0.2999  -0.2941  -0.2689  -0.2630  -0.2595
 -0.2587  -0.2423  -0.2285  -0.2209  -0.1534

 Beta MOs
 -- Occupied --
-19.1509 -19.1440 -19.0828 -19.0718 -10.2353 -10.2256 -10.2240 -10.2216
-10.2203 -10.1754 -10.1751 -10.1738 -10.1735 -10.1729 -10.1723 -10.1720
-10.1707 -10.1703 -10.1702 -10.1696 -10.1652 -10.1632 -10.1626 -10.1625
-10.1622 -10.1616 -10.1600 -10.1599 -10.1569 -10.1567 -10.1559 -10.1552
-10.1548 -10.1544 -10.1542 -10.1539  -1.0654  -1.0624  -0.9935  -0.9885
 -0.8616  -0.8568  -0.8294  -0.8124  -0.8063  -0.7935  -0.7774  -0.7613
 -0.7522  -0.7491  -0.7449  -0.7390  -0.7307  -0.7118  -0.6863  -0.6639
 -0.6468  -0.6328  -0.6221  -0.6164  -0.6100  -0.6039  -0.5886  -0.5759
 -0.5739  -0.5692  -0.5680  -0.5649  -0.5409  -0.5355  -0.5327  -0.5029
 -0.4917  -0.4874  -0.4829  -0.4785  -0.4726  -0.4652  -0.4573  -0.4517
 -0.4500  -0.4449  -0.4386  -0.4291  -0.4288  -0.4262  -0.4259  -0.4230
 -0.4210  -0.4155  -0.4134  -0.4121  -0.4026  -0.3976  -0.3939  -0.3913
 -0.3880  -0.3810  -0.3788  -0.3754  -0.3740  -0.3719  -0.3683  -0.3612
 -0.3591  -0.3538  -0.3519  -0.3479  -0.3454  -0.3400  -0.3349  -0.3336
 -0.3319  -0.3298  -0.3272  -0.3238  -0.3227  -0.3195  -0.3179  -0.3174
 -0.3155  -0.3141  -0.3008  -0.2999  -0.2939  -0.2595  -0.2577  -0.2517
 -0.2495  -0.2374  -0.2210  -0.2198

          Ground-State Mulliken Net Atomic Charges

     Atom                 Charge (a.u.)    Spin (a.u.)
  --------------------------------------------------------
      1 C                     0.029162       0.076369
      2 C                    -0.398634      -0.001675
      3 C                    -0.456483       0.072626
      4 C                     0.333931      -0.009566
      5 C                    -0.003152       0.060800
      6 C                     0.090305       0.004300
      7 C                    -0.776475       0.178864
      8 C                    -0.621357       0.055743
      9 C                     1.825592       0.051348
     10 C                    -0.709637       0.081753
     11 O                    -0.556125       0.222219
     12 O                    -0.483218       0.193101
     13 O                    -0.301283       0.016271
     14 C                    -0.281666       0.011735
     15 C                    -0.652619      -0.002626
     16 C                    -0.210215       0.002335
     17 C                    -0.157112      -0.002057
     18 C                    -0.267086      -0.000520
     19 C                    -0.280985      -0.000081
     20 C                    -0.213750       0.000178
     21 C                    -0.234140      -0.000011
     22 C                    -0.469087       0.000006
     23 C                    -0.756864       0.000010
     24 C                     1.294095      -0.000034
     25 C                    -0.418190       0.000027
     26 C                    -0.523255       0.000035
     27 C                    -0.206383      -0.000031
     28 C                    -0.365290       0.000026
     29 C                    -0.012115      -0.000028
     30 O                    -0.051382       0.000002
     31 C                    -0.054314      -0.000000
     32 C                    -0.048078      -0.000000
     33 C                    -0.597205      -0.000000
     34 C                    -0.508908      -0.000000
     35 C                    -0.296018       0.000000
     36 C                    -0.477653      -0.000000
     37 H                     0.181780      -0.004072
     38 H                     0.204320      -0.000635
     39 H                     0.200052      -0.005102
     40 H                     0.178266      -0.000297
     41 H                     0.308603      -0.003440
     42 H                     0.216959      -0.000559
     43 H                     0.201087       0.002417
     44 H                     0.181652      -0.001580
     45 H                     0.171552       0.002104
     46 H                     0.116606      -0.000356
     47 H                     0.119536       0.000500
     48 H                     0.128651      -0.000031
     49 H                     0.129441      -0.000057
     50 H                     0.137861      -0.000007
     51 H                     0.138169       0.000004
     52 H                     0.138638       0.000003
     53 H                     0.138077      -0.000004
     54 H                     0.128917      -0.000006
     55 H                     0.132102      -0.000001
     56 H                     0.127754      -0.000002
     57 H                     0.124162       0.000001
     58 H                     0.161015       0.000002
     59 H                     0.158895      -0.000001
     60 H                     0.180473      -0.000000
     61 H                     0.175815      -0.000001
     62 H                     0.213227      -0.000003
     63 H                     0.200923      -0.000003
     64 H                     0.217114       0.000003
     65 H                     0.211763       0.000003
     66 H                     0.203059       0.000000
     67 H                     0.192680      -0.000000
     68 H                     0.134776       0.000000
     69 H                     0.178480      -0.000000
     70 H                     0.187143      -0.000000
     71 H                     0.161944       0.000000
     72 H                     0.167510       0.000000
     73 H                     0.139748       0.000000
     74 H                     0.191590       0.000000
     75 H                     0.195464       0.000000
     76 H                     0.139789       0.000000
  --------------------------------------------------------
  Sum of atomic charges =    -1.000000

                    Cartesian Multipole Moments
 -----------------------------------------------------------------
    Charge (ESU x 10^10)
                -4.8032
    Dipole Moment (Debye)
         X     -43.2437      Y       0.7824      Z       2.1715
       Tot      43.3053
    Quadrupole Moments (Debye-Ang)
        XX    -588.7426     XY      55.2873     YY    -242.3360
        XZ       5.9139     YZ       7.5554     ZZ    -234.3014

 Total job time:  1270.57s(wall), 9387.61s(cpu)
        *  Thank you very much for using Q-Chem.  Have a nice day.  *
