 Q-Chem 5.4, Q-Chem, Inc., Pleasanton, CA (2021)
 Q-Chem 5.4.0 for Intel X86 EM64T Linux

User input:
--------------------------------------------------------------
$molecule
0 1
O                  3.4356750000      2.6729760000      0.8131640000
C                  3.0695800000      1.5253250000      0.5903380000
C                  4.0705390000      0.4228530000      0.4298270000
C                  5.4314620000      0.7204770000      0.5415370000
C                  6.3826540000     -0.2828990000      0.3946780000
C                  5.9826100000     -1.5964160000      0.1340010000
C                  4.6316910000     -1.9022870000      0.0212360000
C                  3.6681050000     -0.8989220000      0.1680000000
C                  2.2247920000     -1.2571290000      0.0448030000
O                  1.8748590000     -2.4050510000     -0.1818870000
C                  1.2279510000     -0.1556400000      0.2133890000
C                 -0.1205660000     -0.4678470000      0.0999480000
C                 -1.1189370000      0.5220950000      0.2412310000
C                 -0.6835680000      1.8495480000      0.4994580000
C                  0.6601900000      2.1516850000      0.6046780000
C                  1.6459300000      1.1653950000      0.4667940000
N                 -2.4527850000      0.2125960000      0.1347570000
C                 -2.9162330000     -1.1805000000      0.1632520000
C                 -4.3281600000     -1.2645400000      0.7478860000
C                 -5.3527100000     -0.4606150000     -0.0785450000
C                 -4.6783170000      0.7285500000     -0.7916170000
C                 -3.4693200000      1.2599420000     -0.0176450000
H                  5.7180350000      1.7452510000      0.7431410000
H                  7.4368920000     -0.0450570000      0.4825590000
H                  6.7257530000     -2.3775450000      0.0198110000
H                  4.2977930000     -2.9127270000     -0.1799590000
H                 -0.3712080000     -1.4941560000     -0.1267150000
H                 -1.4070130000      2.6399570000      0.6452080000
H                  0.9769110000      3.1669830000      0.8114550000
H                 -2.8891400000     -1.6269290000     -0.8417320000
H                 -2.2358120000     -1.7601160000      0.7890060000
H                 -4.2930590000     -0.8852250000      1.7741740000
H                 -4.6214930000     -2.3154390000      0.8149760000
H                 -5.8301530000     -1.1046290000     -0.8226220000
H                 -6.1507430000     -0.1052650000      0.5797820000
H                 -4.3370850000      0.4251850000     -1.7864800000
H                 -5.3891800000      1.5452980000     -0.9425130000
H                 -3.7846590000      1.6517550000      0.9613190000
H                 -3.0312830000      2.0930620000     -0.5708050000
$end
$rem
MAX_SCF_CYCLES=200
BASIS  =  6-311++G(d,p)
GUI  =  2
JOB_TYPE  =  SP
METHOD  =  B3LYP
SOLVENT_METHOD = COSMO
$end
$solvent
dielectric 37.219
opticaldielectric 1.43
$end

--------------------------------------------------------------

             Standard Nuclear Orientation (Angstroms)
    I     Atom           X                Y                Z
 ----------------------------------------------------------------
    1      O      -2.7059458845    -2.7372347932     0.1691806246
    2      C      -2.3636975006    -1.5632754115     0.0952535865
    3      C      -3.3881057470    -0.4729665785     0.0249570374
    4      C      -4.7434876925    -0.8128960808     0.0485853402
    5      C      -5.7159525326     0.1785739689    -0.0177204614
    6      C      -5.3429801389     1.5224244717    -0.1086711576
    7      C      -3.9977802621     1.8704349585    -0.1327782284
    8      C      -3.0129309281     0.8792726146    -0.0660851121
    9      C      -1.5764918312     1.2825953146    -0.0908982537
   10      O      -1.2502580778     2.4569028113    -0.1692552585
   11      C      -0.5565134768     0.1922238524    -0.0126328922
   12      C       0.7861374019     0.5465488632    -0.0367694892
   13      C       1.8055647363    -0.4298437052     0.0273878583
   14      C       1.3977729348    -1.7880588967     0.1129223955
   15      C       0.0598946015    -2.1313151388     0.1302514238
   16      C      -0.9469361998    -1.1586546582     0.0695337477
   17      N       3.1333862856    -0.0793597540     0.0092836045
   18      C       3.5571628835     1.3111696068     0.2170189425
   19      C       4.9444166369     1.3588310554     0.8617304275
   20      C       6.0195490700     0.6808293962    -0.0119916721
   21      C       5.4039655605    -0.4320780074    -0.8837055281
   22      C       4.1830483102    -1.0780065002    -0.2239924765
   23      H      -5.0089026803    -1.8605401992     0.1187757513
   24      H      -6.7657465847    -0.0921452473     0.0010732032
   25      H      -6.1026863845     2.2942075011    -0.1602537634
   26      H      -3.6847102124     2.9048901781    -0.2023902880
   27      H       1.0165131512     1.5978174416    -0.1330455576
   28      H       2.1369254833    -2.5731982492     0.1939891897
   29      H      -0.2360826532    -3.1708501971     0.2055061613
   30      H       3.5538477416     1.8712461180    -0.7297276098
   31      H       2.8391425268     1.7978442846     0.8789026473
   32      H       4.8829988591     0.8614673568     1.8349910382
   33      H       5.2062476759     2.4011682104     1.0615097746
   34      H       6.5054994056     1.4182219218    -0.6573295424
   35      H       6.8029366066     0.2694667189     0.6311330791
   36      H       5.0903894039    -0.0224705941    -1.8491659109
   37      H       6.1418927173    -1.2089903716    -1.1006013390
   38      H       4.4737511344    -1.5741709036     0.7144314031
   39      H       3.7880965528    -1.8506445869    -0.8865593258
 ----------------------------------------------------------------

    9    -939.7252915847      3.73e-06  Convergence criterion met
 Total energy in the final basis set =     -939.7252915847
    5    -939.7433307235      4.38e-06  Convergence criterion met
 Total energy in the final basis set =     -939.7433307235

                    Orbital Energies (a.u.)
 --------------------------------------------------------------

 Alpha MOs
 -- Occupied --
-19.1296 -19.1188 -14.3458 -10.2811 -10.2720 -10.2373 -10.2052 -10.2049
-10.2038 -10.2032 -10.2027 -10.1938 -10.1934 -10.1926 -10.1916 -10.1904
-10.1884 -10.1862 -10.1853 -10.1689 -10.1688 -10.1649  -1.0643  -1.0536
 -0.9655  -0.8868  -0.8719  -0.8158  -0.7940  -0.7755  -0.7734  -0.7615
 -0.7535  -0.6891  -0.6757  -0.6560  -0.6421  -0.6228  -0.6062  -0.5809
 -0.5642  -0.5560  -0.5364  -0.5177  -0.5079  -0.4972  -0.4846  -0.4804
 -0.4568  -0.4542  -0.4520  -0.4488  -0.4472  -0.4435  -0.4353  -0.4342
 -0.4198  -0.4163  -0.4143  -0.4002  -0.3926  -0.3841  -0.3768  -0.3715
 -0.3691  -0.3670  -0.3589  -0.3371  -0.3283  -0.3196  -0.2987  -0.2844
 -0.2812  -0.2755  -0.2725  -0.2700  -0.2115

          Ground-State Mulliken Net Atomic Charges

     Atom                 Charge (a.u.)
  ----------------------------------------
      1 O                    -0.335477
      2 C                    -0.651710
      3 C                    -0.000692
      4 C                     0.162420
      5 C                    -0.472353
      6 C                    -0.463781
      7 C                     0.092029
      8 C                     0.430443
      9 C                    -0.751537
     10 O                    -0.295423
     11 C                     0.514428
     12 C                     0.150246
     13 C                    -0.782316
     14 C                     0.045956
     15 C                     0.184047
     16 C                     0.264709
     17 N                     0.341383
     18 C                    -0.254487
     19 C                    -0.350139
     20 C                    -0.563360
     21 C                    -0.322936
     22 C                    -0.250190
     23 H                     0.197113
     24 H                     0.223870
     25 H                     0.226137
     26 H                     0.195551
     27 H                     0.195237
     28 H                     0.246148
     29 H                     0.207357
     30 H                     0.190993
     31 H                     0.183181
     32 H                     0.182596
     33 H                     0.191981
     34 H                     0.163287
     35 H                     0.167657
     36 H                     0.182396
     37 H                     0.192959
     38 H                     0.190291
     39 H                     0.171973
  ----------------------------------------
  Sum of atomic charges =    -0.000017

                    Cartesian Multipole Moments
 -----------------------------------------------------------------
    Charge (ESU x 10^10)
                -0.0001
    Dipole Moment (Debye)
         X       5.7980      Y       1.3479      Z      -0.0566
       Tot       5.9529
    Quadrupole Moments (Debye-Ang)
        XX     -83.1328     XY     -12.4536     YY    -140.2496
        XZ       0.5790     YZ       1.4162     ZZ    -131.8563

 Total job time:  106.33s(wall), 820.99s(cpu)
        *  Thank you very much for using Q-Chem.  Have a nice day.  *
