 Q-Chem 5.4, Q-Chem, Inc., Pleasanton, CA (2021)
 Q-Chem 5.4.0 for Intel X86 EM64T Linux

User input:
--------------------------------------------------------------
$molecule
0 1
C                 -0.9371220000     -1.5861600000      3.6441100000
C                  0.3608830000     -1.9966680000      3.1005820000
C                  0.9145810000     -1.4548870000      1.9987530000
C                  0.1362120000     -0.3545590000      1.2882350000
C                 -1.1492280000      0.0599380000      1.8169000000
C                 -1.7059450000     -0.4924650000      2.9340170000
O                 -1.4044880000     -2.1046820000      4.6483450000
O                  0.5913900000      0.1774600000      0.2773250000
N                 -2.8793990000     -0.2146700000      3.5388990000
C                 -3.9268950000      0.7668520000      3.1879690000
C                 -5.0216420000      0.6109910000      4.2555380000
C                 -4.5224530000      0.4532390000      1.8019060000
C                 -3.3668010000      2.2012660000      3.2420150000
C                  2.2711490000     -1.8976350000      1.4471430000
C                  2.8944960000     -3.0157010000      2.3041290000
C                  2.0965120000     -2.4402210000      0.0055250000
C                  3.2502940000     -0.6957980000      1.4424070000
H                  0.8405990000     -2.7824290000      3.6692350000
H                 -1.6295270000      0.8442910000      1.2506100000
H                 -3.0375190000     -0.7871630000      4.3608890000
H                 -4.6274230000      0.8191700000      5.2544020000
H                 -5.4347940000     -0.4017930000      4.2482990000
H                 -5.8378420000      1.3097240000      4.0625960000
H                 -4.9346530000     -0.5585700000      1.7842310000
H                 -3.7807840000      0.5294600000      1.0062250000
H                 -5.3281950000      1.1566970000      1.5765930000
H                 -2.9689640000      2.4179060000      4.2363820000
H                 -4.1627460000      2.9187620000      3.0263520000
H                 -2.5682120000      2.3608190000      2.5168970000
H                  3.0761230000     -2.6927200000      3.3330570000
H                  3.8583370000     -3.2992140000      1.8742860000
H                  2.2693010000     -3.9126630000      2.3285060000
H                  1.4074680000     -3.2901290000     -0.0092220000
H                  3.0639460000     -2.7882480000     -0.3686340000
H                  1.7194590000     -1.6715020000     -0.6662540000
H                  3.3850260000     -0.3001120000      2.4536590000
H                  2.8945580000      0.1050420000      0.7970660000
H                  4.2279600000     -1.0284160000      1.0810460000
$end

$rem
BASIS  =  6-311++G(d,p)
GUI  =  2
JOB_TYPE  =  SP
METHOD  =  B3LYP
SCF_CONVERGENCE  = 8
SOLVENT_METHOD = sm12
$end

$smx
solvent dimethylformamide
charges CM5
$end

--------------------------------------------------------------

             Standard Nuclear Orientation (Angstroms)
    I     Atom           X                Y                Z
 ----------------------------------------------------------------
    1      C      -0.9371220000    -1.5861600000     3.6441100000
    2      C       0.3608830000    -1.9966680000     3.1005820000
    3      C       0.9145810000    -1.4548870000     1.9987530000
    4      C       0.1362120000    -0.3545590000     1.2882350000
    5      C      -1.1492280000     0.0599380000     1.8169000000
    6      C      -1.7059450000    -0.4924650000     2.9340170000
    7      O      -1.4044880000    -2.1046820000     4.6483450000
    8      O       0.5913900000     0.1774600000     0.2773250000
    9      N      -2.8793990000    -0.2146700000     3.5388990000
   10      C      -3.9268950000     0.7668520000     3.1879690000
   11      C      -5.0216420000     0.6109910000     4.2555380000
   12      C      -4.5224530000     0.4532390000     1.8019060000
   13      C      -3.3668010000     2.2012660000     3.2420150000
   14      C       2.2711490000    -1.8976350000     1.4471430000
   15      C       2.8944960000    -3.0157010000     2.3041290000
   16      C       2.0965120000    -2.4402210000     0.0055250000
   17      C       3.2502940000    -0.6957980000     1.4424070000
   18      H       0.8405990000    -2.7824290000     3.6692350000
   19      H      -1.6295270000     0.8442910000     1.2506100000
   20      H      -3.0375190000    -0.7871630000     4.3608890000
   21      H      -4.6274230000     0.8191700000     5.2544020000
   22      H      -5.4347940000    -0.4017930000     4.2482990000
   23      H      -5.8378420000     1.3097240000     4.0625960000
   24      H      -4.9346530000    -0.5585700000     1.7842310000
   25      H      -3.7807840000     0.5294600000     1.0062250000
   26      H      -5.3281950000     1.1566970000     1.5765930000
   27      H      -2.9689640000     2.4179060000     4.2363820000
   28      H      -4.1627460000     2.9187620000     3.0263520000
   29      H      -2.5682120000     2.3608190000     2.5168970000
   30      H       3.0761230000    -2.6927200000     3.3330570000
   31      H       3.8583370000    -3.2992140000     1.8742860000
   32      H       2.2693010000    -3.9126630000     2.3285060000
   33      H       1.4074680000    -3.2901290000    -0.0092220000
   34      H       3.0639460000    -2.7882480000    -0.3686340000
   35      H       1.7194590000    -1.6715020000    -0.6662540000
   36      H       3.3850260000    -0.3001120000     2.4536590000
   37      H       2.8945580000     0.1050420000     0.7970660000
   38      H       4.2279600000    -1.0284160000     1.0810460000
 ----------------------------------------------------------------

   16    -751.5438355353      2.82e-09  Convergence criterion met
 Total energy in the final basis set =     -751.5572501225

                    Orbital Energies (a.u.)
 --------------------------------------------------------------

 Alpha MOs
 -- Occupied --
-19.1402 -19.1108 -14.3497 -10.2851 -10.2657 -10.2454 -10.2323 -10.2154
-10.2022 -10.1955 -10.1739 -10.1639 -10.1631 -10.1631 -10.1612 -10.1603
-10.1603  -1.0737  -1.0435  -0.9614  -0.8598  -0.8274  -0.8004  -0.7557
 -0.6994  -0.6964  -0.6944  -0.6902  -0.6884  -0.6409  -0.6080  -0.5796
 -0.5559  -0.5327  -0.5098  -0.4861  -0.4811  -0.4629  -0.4626  -0.4498
 -0.4453  -0.4398  -0.4391  -0.4373  -0.4297  -0.4163  -0.4039  -0.4007
 -0.3888  -0.3850  -0.3821  -0.3734  -0.3723  -0.3689  -0.3612  -0.3562
 -0.3429  -0.3416  -0.3368  -0.3299  -0.2927  -0.2875  -0.2602  -0.2301

          Ground-State Mulliken Net Atomic Charges

     Atom                 Charge (a.u.)
  ----------------------------------------
      1 C                    -0.707739
      2 C                    -0.182660
      3 C                     1.017491
      4 C                    -1.676607
      5 C                    -0.688105
      6 C                     1.101209
      7 O                    -0.256524
      8 O                    -0.334914
      9 N                     0.017466
     10 C                    -0.161263
     11 C                    -0.068904
     12 C                    -0.373361
     13 C                    -0.373939
     14 C                     0.400150
     15 C                     0.029683
     16 C                    -0.736659
     17 C                    -0.737742
     18 H                     0.306569
     19 H                     0.175048
     20 H                     0.384713
     21 H                     0.183298
     22 H                     0.183316
     23 H                     0.193674
     24 H                     0.130151
     25 H                     0.107644
     26 H                     0.218500
     27 H                     0.130525
     28 H                     0.218299
     29 H                     0.107324
     30 H                     0.169576
     31 H                     0.200741
     32 H                     0.169389
     33 H                     0.143021
     34 H                     0.188677
     35 H                     0.095077
     36 H                     0.143332
     37 H                     0.094902
     38 H                     0.188641
  ----------------------------------------
  Sum of atomic charges =     0.000000

                    Cartesian Multipole Moments
 -----------------------------------------------------------------
    Charge (ESU x 10^10)
                 0.0000
    Dipole Moment (Debye)
         X      -2.9177      Y       0.4189      Z       1.8336
       Tot       3.4714
    Quadrupole Moments (Debye-Ang)
        XX     -84.5142     XY     -10.1324     YY    -105.2991
        XZ      -7.7372     YZ       7.7636     ZZ    -107.3771

 Total job time:  1233.87s(wall), 9711.38s(cpu)
        *  Thank you very much for using Q-Chem.  Have a nice day.  *
