 Q-Chem 5.4, Q-Chem, Inc., Pleasanton, CA (2021)
 Q-Chem 5.4.0 for Intel X86 EM64T Linux

User input:
--------------------------------------------------------------
$molecule
-1 2
C                 -4.0962640000      3.6185530000      1.5406020000
C                 -4.5738490000      3.8342000000      0.2593170000
C                 -3.9805760000      3.1857550000     -0.8413480000
C                 -2.9097360000      2.3271780000     -0.6224070000
C                 -2.4027800000      2.0871050000      0.6582430000
C                 -3.0119950000      2.7496350000      1.7654290000
C                 -2.5161670000      2.5277040000      3.1102000000
C                 -1.4006070000      1.6196940000      3.2437410000
C                 -0.8028910000      0.9739560000      2.1874480000
C                 -1.2574150000      1.1610900000      0.8377290000
O                 -2.9868920000      3.0678110000      4.1655630000
O                 -0.7291590000      0.5833600000     -0.1448130000
O                 -0.9785550000      1.4502910000      4.5274560000
O                 -5.6434650000      4.7066220000      0.1449990000
C                 -6.1655030000      4.9583750000     -1.1417930000
H                 -4.5544160000      4.1184590000      2.3852300000
H                 -4.3420620000      3.3434830000     -1.8494360000
H                 -2.4340670000      1.8148560000     -1.4513800000
H                  0.0327000000      0.3034750000      2.3553760000
H                 -1.5942860000      2.0320650000      5.0245200000
H                 -6.9880700000      5.6614630000     -1.0023170000
H                 -6.5513500000      4.0455590000     -1.6136910000
H                 -5.4178460000      5.4099030000     -1.8065690000
$end
$rem
MAX_SCF_CYCLES=200
BASIS  =  6-311++G(d,p)
GUI  =  2
JOB_TYPE  =  SP
METHOD  =  B3LYP
SOLVENT_METHOD = COSMO
$end
$solvent
dielectric 37.219
opticaldielectric 1.43
$end

--------------------------------------------------------------

             Standard Nuclear Orientation (Angstroms)
    I     Atom           X                Y                Z
 ----------------------------------------------------------------
    1      C       1.0847799806    -1.0717879435    -0.0000686778
    2      C       2.2436753631    -0.3146592883    -0.0000054900
    3      C       2.1762715553     1.0922429580     0.0000874902
    4      C       0.9304994483     1.7085543956     0.0000510943
    5      C      -0.2591515372     0.9740924331    -0.0000598000
    6      C      -0.1782238558    -0.4504778407    -0.0000921193
    7      C      -1.3888477445    -1.2491627702    -0.0000804414
    8      C      -2.6385596241    -0.5245872579     0.0000510943
    9      C      -2.7332252816     0.8469211440     0.0000450227
   10      C      -1.5637262207     1.6809622074    -0.0001299138
   11      O      -1.4282159987    -2.5241289655    -0.0000687312
   12      O      -1.6224670583     2.9358584756    -0.0000507521
   13      O      -3.7399840733    -1.3255951469     0.0001644806
   14      O       3.4348616543    -1.0213008931    -0.0000318035
   15      C       4.6436266049    -0.2928613399     0.0000646019
   16      H       1.1395164061    -2.1535502307    -0.0000672001
   17      H       3.0729133267     1.6987288905     0.0002030888
   18      H       0.8491940743     2.7899056322     0.0001077728
   19      H      -3.7038844883     1.3304266819     0.0001007107
   20      H      -3.3411551875    -2.2231439139     0.0001159179
   21      H       5.4438021841    -1.0345633011     0.0000088602
   22      H       4.7416768567     0.3389707467     0.8922378150
   23      H       4.7416685062     0.3391375474    -0.8919896826
 ----------------------------------------------------------------

   11    -725.1489755069      3.96e-06  Convergence criterion met
 Total energy in the final basis set =     -725.1489755069
    5    -725.2373401090      4.84e-06  Convergence criterion met
 Total energy in the final basis set =     -725.2373401090

                    Orbital Energies (a.u.)
 --------------------------------------------------------------

 Alpha MOs
 -- Occupied --
-19.1571 -19.1493 -19.0916 -19.0805 -10.2382 -10.2319 -10.2300 -10.2255
-10.2154 -10.1822 -10.1762 -10.1752 -10.1726 -10.1703 -10.1577  -1.0693
 -1.0684  -1.0066  -1.0016  -0.8631  -0.8052  -0.7632  -0.7451  -0.7013
 -0.6742  -0.6288  -0.6043  -0.5780  -0.5456  -0.5261  -0.4918  -0.4859
 -0.4821  -0.4680  -0.4391  -0.4380  -0.4287  -0.4245  -0.4166  -0.4106
 -0.3937  -0.3901  -0.3786  -0.3642  -0.3587  -0.3574  -0.3326  -0.3180
 -0.2708  -0.2658  -0.2509  -0.2473  -0.2291  -0.1567

 Beta MOs
 -- Occupied --
-19.1569 -19.1488 -19.0850 -19.0757 -10.2383 -10.2307 -10.2288 -10.2223
-10.2154 -10.1822 -10.1764 -10.1745 -10.1718 -10.1694 -10.1567  -1.0682
 -1.0669  -0.9982  -0.9903  -0.8610  -0.8006  -0.7614  -0.7433  -0.6990
 -0.6656  -0.6271  -0.6017  -0.5755  -0.5444  -0.5242  -0.4883  -0.4850
 -0.4805  -0.4675  -0.4371  -0.4282  -0.4236  -0.4218  -0.4132  -0.4080
 -0.3887  -0.3854  -0.3643  -0.3630  -0.3550  -0.3430  -0.3321  -0.3104
 -0.2599  -0.2556  -0.2426  -0.2368  -0.2242

          Ground-State Mulliken Net Atomic Charges

     Atom                 Charge (a.u.)    Spin (a.u.)
  --------------------------------------------------------
      1 C                    -0.267971       0.098613
      2 C                    -0.498371      -0.013484
      3 C                     0.090573       0.057838
      4 C                     0.081142      -0.011951
      5 C                     0.363181       0.046156
      6 C                     0.715616      -0.000732
      7 C                    -0.786393       0.183661
      8 C                    -0.356172       0.094329
      9 C                     0.549516       0.076998
     10 C                    -0.592276       0.058813
     11 O                    -0.540136       0.240168
     12 O                    -0.526722       0.168896
     13 O                    -0.307711       0.018113
     14 O                    -0.233229       0.002988
     15 C                    -0.364434       0.000580
     16 H                     0.198722      -0.006636
     17 H                     0.246920      -0.003715
     18 H                     0.177664      -0.000179
     19 H                     0.214280      -0.007361
     20 H                     0.303159      -0.003133
     21 H                     0.196602       0.000009
     22 H                     0.168037       0.000014
     23 H                     0.168005       0.000014
  --------------------------------------------------------
  Sum of atomic charges =    -1.000000

                    Cartesian Multipole Moments
 -----------------------------------------------------------------
    Charge (ESU x 10^10)
                -4.8032
    Dipole Moment (Debye)
         X      10.3573      Y      -0.4600      Z       0.0003
       Tot      10.3675
    Quadrupole Moments (Debye-Ang)
        XX     -96.7771     XY      10.2153     YY    -125.3835
        XZ       0.0024     YZ       0.0007     ZZ     -91.8492

 Total job time:  58.25s(wall), 430.29s(cpu)
        *  Thank you very much for using Q-Chem.  Have a nice day.  *
