 Q-Chem 5.4, Q-Chem, Inc., Pleasanton, CA (2021)
 Q-Chem 5.4.0 for Intel X86 EM64T Linux

User input:
--------------------------------------------------------------
$molecule
-1 2
C                 -1.9325660000      3.0532710000      0.2295580000
C                 -2.8669730000      2.2384850000      0.8414190000
C                 -2.5621400000      0.8870120000      1.1016470000
C                 -0.6670480000      2.5500750000     -0.1426180000
C                 -0.3569670000      1.1846820000      0.1199260000
C                 -1.3244870000      0.3775180000      0.7432940000
C                  0.3105410000      3.4038200000     -0.7834930000
C                  1.5766680000      2.7982380000     -1.1263020000
C                  1.9067790000      1.4797070000     -0.8939270000
C                  0.9527710000      0.6046620000     -0.2470030000
O                  0.1381360000      4.6356110000     -1.0642400000
O                  1.2162480000     -0.6022370000     -0.0051260000
H                 -2.1436340000      4.0956720000      0.0189130000
H                 -3.8367930000      2.6391520000      1.1223180000
H                 -3.2966620000      0.2476250000      1.5822990000
H                 -1.0627510000     -0.6575280000      0.9320340000
C                  3.2523700000      0.9230190000     -1.2814350000
O                  2.4480640000      3.6626720000     -1.7236010000
H                  3.6481590000      1.4825390000     -2.1353260000
H                  3.1153990000     -0.1193870000     -1.5866460000
H                  1.9218140000      4.4923880000     -1.7511090000
C                  4.2803860000      0.9618110000     -0.1339760000
C                  5.6372340000      0.3636240000     -0.5205810000
C                  6.6713670000      0.3940240000      0.6107660000
C                  8.0251930000     -0.2073140000      0.2183140000
H                  3.8673160000      0.4137770000      0.7195980000
H                  4.4169420000      2.0010330000      0.1886320000
H                  6.0393000000      0.9036800000     -1.3892020000
H                  5.4929240000     -0.6749850000     -0.8476820000
H                  6.2704710000     -0.1454510000      1.4776330000
H                  6.8150010000      1.4309770000      0.9392640000
H                  7.9184940000     -1.2549970000     -0.0826040000
H                  8.7403320000     -0.1707250000      1.0468050000
H                  8.4668410000      0.3328100000     -0.6261080000
$end
$rem
MAX_SCF_CYCLES=200
BASIS  =  6-311++G(d,p)
GUI  =  2
JOB_TYPE  =  SP
METHOD  =  B3LYP
SOLVENT_METHOD = PCM
$end
$pcm
theory = CPCM
$end
$solvent
dielectric 37.219
opticaldielectric 1.43
$end

--------------------------------------------------------------

             Standard Nuclear Orientation (Angstroms)
    I     Atom           X                Y                Z
 ----------------------------------------------------------------
    1      C      -1.9325660000     3.0532710000     0.2295580000
    2      C      -2.8669730000     2.2384850000     0.8414190000
    3      C      -2.5621400000     0.8870120000     1.1016470000
    4      C      -0.6670480000     2.5500750000    -0.1426180000
    5      C      -0.3569670000     1.1846820000     0.1199260000
    6      C      -1.3244870000     0.3775180000     0.7432940000
    7      C       0.3105410000     3.4038200000    -0.7834930000
    8      C       1.5766680000     2.7982380000    -1.1263020000
    9      C       1.9067790000     1.4797070000    -0.8939270000
   10      C       0.9527710000     0.6046620000    -0.2470030000
   11      O       0.1381360000     4.6356110000    -1.0642400000
   12      O       1.2162480000    -0.6022370000    -0.0051260000
   13      H      -2.1436340000     4.0956720000     0.0189130000
   14      H      -3.8367930000     2.6391520000     1.1223180000
   15      H      -3.2966620000     0.2476250000     1.5822990000
   16      H      -1.0627510000    -0.6575280000     0.9320340000
   17      C       3.2523700000     0.9230190000    -1.2814350000
   18      O       2.4480640000     3.6626720000    -1.7236010000
   19      H       3.6481590000     1.4825390000    -2.1353260000
   20      H       3.1153990000    -0.1193870000    -1.5866460000
   21      H       1.9218140000     4.4923880000    -1.7511090000
   22      C       4.2803860000     0.9618110000    -0.1339760000
   23      C       5.6372340000     0.3636240000    -0.5205810000
   24      C       6.6713670000     0.3940240000     0.6107660000
   25      C       8.0251930000    -0.2073140000     0.2183140000
   26      H       3.8673160000     0.4137770000     0.7195980000
   27      H       4.4169420000     2.0010330000     0.1886320000
   28      H       6.0393000000     0.9036800000    -1.3892020000
   29      H       5.4929240000    -0.6749850000    -0.8476820000
   30      H       6.2704710000    -0.1454510000     1.4776330000
   31      H       6.8150010000     1.4309770000     0.9392640000
   32      H       7.9184940000    -1.2549970000    -0.0826040000
   33      H       8.7403320000    -0.1707250000     1.0468050000
   34      H       8.4668410000     0.3328100000    -0.6261080000
 ----------------------------------------------------------------

    8    -807.2988669371      7.13e-06  Convergence criterion met
 Total energy in the final basis set =     -807.2988669371

                    Orbital Energies (a.u.)
 --------------------------------------------------------------

 Alpha MOs
 -- Occupied --
-19.1437 -19.0875 -19.0750 -10.2245 -10.2223 -10.2218 -10.1746 -10.1726
-10.1720 -10.1709 -10.1705 -10.1691 -10.1625 -10.1569 -10.1565 -10.1546
-10.1538 -10.1507  -1.0638  -1.0010  -0.9971  -0.8585  -0.8130  -0.7910
 -0.7600  -0.7507  -0.7261  -0.6845  -0.6588  -0.6211  -0.6090  -0.5802
 -0.5703  -0.5675  -0.5367  -0.5044  -0.4843  -0.4695  -0.4570  -0.4522
 -0.4380  -0.4284  -0.4263  -0.4195  -0.4173  -0.4019  -0.4013  -0.3905
 -0.3880  -0.3782  -0.3688  -0.3649  -0.3517  -0.3452  -0.3435  -0.3378
 -0.3270  -0.3214  -0.3161  -0.3148  -0.2676  -0.2613  -0.2579  -0.2409
 -0.2278  -0.1518

 Beta MOs
 -- Occupied --
-19.1431 -19.0815 -19.0701 -10.2230 -10.2209 -10.2191 -10.1745 -10.1719
-10.1715 -10.1701 -10.1700 -10.1693 -10.1617 -10.1569 -10.1565 -10.1545
-10.1538 -10.1507  -1.0615  -0.9922  -0.9869  -0.8561  -0.8105  -0.7894
 -0.7583  -0.7486  -0.7251  -0.6799  -0.6536  -0.6196  -0.6069  -0.5789
 -0.5695  -0.5656  -0.5349  -0.5021  -0.4818  -0.4684  -0.4561  -0.4512
 -0.4312  -0.4256  -0.4232  -0.4183  -0.4123  -0.3990  -0.3977  -0.3894
 -0.3783  -0.3763  -0.3644  -0.3573  -0.3497  -0.3412  -0.3365  -0.3300
 -0.3252  -0.3211  -0.3152  -0.3141  -0.2561  -0.2509  -0.2484  -0.2362
 -0.2191

          Ground-State Mulliken Net Atomic Charges

     Atom                 Charge (a.u.)    Spin (a.u.)
  --------------------------------------------------------
      1 C                     0.119121       0.074314
      2 C                    -0.406446       0.001717
      3 C                    -0.441311       0.069439
      4 C                     0.277719      -0.003120
      5 C                     0.064233       0.056320
      6 C                     0.098049       0.007137
      7 C                    -0.798423       0.172693
      8 C                    -0.551266       0.063449
      9 C                     1.902034       0.042427
     10 C                    -0.718314       0.085879
     11 O                    -0.540933       0.223966
     12 O                    -0.481315       0.189665
     13 H                     0.175707      -0.003808
     14 H                     0.198579      -0.000970
     15 H                     0.194824      -0.004862
     16 H                     0.172298      -0.000632
     17 C                    -0.423071       0.010235
     18 O                    -0.298325       0.016800
     19 H                     0.210666      -0.000509
     20 H                     0.195001       0.002363
     21 H                     0.303509      -0.003388
     22 C                    -0.441830      -0.001465
     23 C                    -0.201035       0.003291
     24 C                    -0.187105      -0.001320
     25 C                    -0.683195       0.000043
     26 H                     0.166207      -0.001639
     27 H                     0.157709       0.001645
     28 H                     0.115518      -0.000241
     29 H                     0.114904       0.000478
     30 H                     0.133859      -0.000045
     31 H                     0.134317       0.000089
     32 H                     0.145493      -0.000020
     33 H                     0.147665       0.000064
     34 H                     0.145148       0.000004
  --------------------------------------------------------
  Sum of atomic charges =    -1.000008

                    Cartesian Multipole Moments
 -----------------------------------------------------------------
    Charge (ESU x 10^10)
                -4.8032
    Dipole Moment (Debye)
         X      -4.3380      Y      -9.1483      Z       2.9328
       Tot      10.5409
    Quadrupole Moments (Debye-Ang)
        XX    -118.5709     XY      -2.4181     YY    -158.7450
        XZ       1.0590     YZ      10.9115     ZZ    -117.1220

 Total job time:  83.71s(wall), 530.96s(cpu)
        *  Thank you very much for using Q-Chem.  Have a nice day.  *
