 Gaussian 16, Revision A.03,
 Gaussian 16:  ES64L-G16RevA.03 25-Dec-2016

 ----------------------------------------------------------------------
 #P UB3LYP/6-311++G(d,p) nosym opt freq SCRF=(PCM,Solvent=n,n-DiMethylF
 ormamide)
 ----------------------------------------------------------------------

 -------
 Radical
 -------
 Symbolic Z-matrix:
 Charge = -1 Multiplicity = 2

 SCF Done:  E(UB3LYP) =  -778.785063189     A.U. after   15 cycles
 SCF Done:  E(UB3LYP) =  -778.785163618     A.U. after   12 cycles
 SCF Done:  E(UB3LYP) =  -778.785181126     A.U. after   12 cycles
 Optimization completed.
    -- Stationary point found.
 Normal termination of Gaussian 16 at Sat Feb 10 10:07:26 2024.

 ----------------------------------------------------------------------
 #P Geom=AllCheck Guess=TCheck SCRF=Check GenChk UB3LYP/6-311++G(d,p) F
 req
 ----------------------------------------------------------------------

 Structure from the checkpoint file:  "028-rad.chk"
 -------
 Radical
 -------
 Charge = -1 Multiplicity = 2

                          Input orientation:
 ---------------------------------------------------------------------
 Center     Atomic      Atomic             Coordinates (Angstroms)
 Number     Number       Type             X           Y           Z
 ---------------------------------------------------------------------
      1          9           0       -2.684365    0.540371   -0.014880
      2          6           0       -1.359796    0.275598   -0.007642
      3          6           0       -0.468180    1.305522   -0.017499
      4          9           0       -0.919958    2.578143   -0.034799
      5          6           0        0.965469    1.115636   -0.010351
      6          8           0        1.786717    2.065781   -0.018891
      7          6           0        1.359797   -0.275597    0.007633
      8          6           0        0.468180   -1.305531    0.017490
      9          9           0        0.919946   -2.578154    0.034834
     10          6           0       -0.965475   -1.115624    0.010289
     11          8           0       -1.786707   -2.065787    0.018900
     12          9           0        2.684371   -0.540358    0.014915
 ---------------------------------------------------------------------

 SCF Done:  E(UB3LYP) =  -778.785181126     A.U. after    1 cycles

 Alpha  occ. eigenvalues --  -24.70648 -24.70648 -24.70645 -24.70645 -19.10443
 Alpha  occ. eigenvalues --  -19.10442 -10.27018 -10.27016 -10.26952 -10.26950
 Alpha  occ. eigenvalues --  -10.25589 -10.25587  -1.25167  -1.25093  -1.23793
 Alpha  occ. eigenvalues --   -1.23734  -1.02851  -1.02632  -0.86417  -0.77220
 Alpha  occ. eigenvalues --   -0.72615  -0.64820  -0.63856  -0.57801  -0.56493
 Alpha  occ. eigenvalues --   -0.56449  -0.53928  -0.51348  -0.50577  -0.49411
 Alpha  occ. eigenvalues --   -0.47399  -0.46615  -0.45993  -0.44362  -0.43589
 Alpha  occ. eigenvalues --   -0.41517  -0.40538  -0.40158  -0.39709  -0.39390
 Alpha  occ. eigenvalues --   -0.29911  -0.27453  -0.27324  -0.26049  -0.18676
 Alpha virt. eigenvalues --   -0.02029  -0.00853   0.00936   0.02086   0.02747
 Alpha virt. eigenvalues --    0.05521   0.05622   0.05688   0.07392   0.08239
 Alpha virt. eigenvalues --    0.08779   0.09142   0.09188   0.11201   0.12034

  Beta  occ. eigenvalues --  -24.70621 -24.70620 -24.70618 -24.70617 -19.09717
  Beta  occ. eigenvalues --  -19.09716 -10.26917 -10.26916 -10.26850 -10.26849
  Beta  occ. eigenvalues --  -10.25441 -10.25440  -1.25096  -1.25028  -1.23723
  Beta  occ. eigenvalues --   -1.23669  -1.01601  -1.01353  -0.85819  -0.77015
  Beta  occ. eigenvalues --   -0.71553  -0.64519  -0.63514  -0.57650  -0.56327
  Beta  occ. eigenvalues --   -0.56258  -0.53845  -0.50727  -0.50424  -0.49135
  Beta  occ. eigenvalues --   -0.46938  -0.46378  -0.45471  -0.44163  -0.42926
  Beta  occ. eigenvalues --   -0.41404  -0.40034  -0.39373  -0.38595  -0.36492
  Beta  occ. eigenvalues --   -0.26735  -0.26729  -0.26669  -0.25367
  Beta virt. eigenvalues --   -0.11249  -0.01902   0.00654   0.02119   0.02816
  Beta virt. eigenvalues --    0.03588   0.05577   0.05643   0.05813   0.07518
  Beta virt. eigenvalues --    0.08289   0.08884   0.09210   0.09292   0.11209

 Mulliken charges and spin densities:
               1          2
     1  F   -0.230137   0.002700
     2  C    0.159300   0.084418
     3  C    0.159443   0.084848
     4  F   -0.229682   0.002728
     5  C    0.129929   0.058157
     6  O   -0.488898   0.267152
     7  C    0.159400   0.084417
     8  C    0.159325   0.084838
     9  F   -0.229680   0.002727
    10  C    0.130037   0.058160
    11  O   -0.488904   0.267155
    12  F   -0.230135   0.002700
 Sum of Mulliken charges =  -1.00000   1.00000

 Dipole moment (field-independent basis, Debye):
    X=             -0.0000    Y=              0.0000    Z=             -0.0001  Tot=              0.0001
 Quadrupole moment (field-independent basis, Debye-Ang):
   XX=            -92.6777   YY=            -96.3480   ZZ=            -63.9418
   XY=            -12.6758   XZ=              0.0580   YZ=              0.3499

  Exact polarizability: 152.253  49.461 166.551  -0.280  -1.188  55.224
 Approx polarizability: 179.792  63.793 198.376  -0.391  -1.428  63.262

                      1                      2                      3
                      A                      A                      A
 Frequencies --    104.0236               126.7795               157.5700
 Red. masses --     16.5047                18.3696                17.3830
 Frc consts  --      0.1052                 0.1740                 0.2543
 IR Inten    --      7.9785                 0.2095                 0.0000

                      4                      5                      6
                      A                      A                      A
 Frequencies --    210.8405               278.4504               296.0884
 Red. masses --     13.7892                18.4160                18.5244
 Frc consts  --      0.3612                 0.8413                 0.9568
 IR Inten    --     18.8229                 0.0000                 0.2790

                      7                      8                      9
                      A                      A                      A
 Frequencies --    299.2847               317.3764               351.0215
 Red. masses --     16.6179                17.2548                16.0682
 Frc consts  --      0.8770                 1.0240                 1.1665
 IR Inten    --      0.0000                 0.5950                11.5294

                     10                     11                     12
                      A                      A                      A
 Frequencies --    360.3123               401.5842               426.3723
 Red. masses --     12.6512                12.6571                15.9315
 Frc consts  --      0.9677                 1.2026                 1.7064
 IR Inten    --      0.0000                 0.0000                 0.0000

                     13                     14                     15
                      A                      A                      A
 Frequencies --    439.8774               556.5238               610.8706
 Red. masses --     15.4927                15.5282                16.5166
 Frc consts  --      1.7662                 2.8336                 3.6314
 IR Inten    --      0.0000                 0.0000                 0.0495

                     16                     17                     18
                      A                      A                      A
 Frequencies --    617.5445               697.7216               716.9392
 Red. masses --     12.2395                12.1425                12.2151
 Frc consts  --      2.7501                 3.4828                 3.6992
 IR Inten    --      0.0006                 0.0000                 3.8613

                     19                     20                     21
                      A                      A                      A
 Frequencies --    806.8947               958.1229              1044.9462
 Red. masses --     12.6187                14.1534                13.3717
 Frc consts  --      4.8406                 7.6551                 8.6025
 IR Inten    --      0.0000               522.6186               350.8024

                     22                     23                     24
                      A                      A                      A
 Frequencies --   1072.5185              1226.5874              1229.7030
 Red. masses --     13.7371                13.3035                12.2004
 Frc consts  --      9.3101                11.7927                10.8698
 IR Inten    --      0.0000                 0.0018               236.6160

                     25                     26                     27
                      A                      A                      A
 Frequencies --   1295.8078              1425.5324              1528.0570
 Red. masses --     12.4523                12.0460                12.8980
 Frc consts  --     12.3192                14.4227                17.7440
 IR Inten    --    407.7472                 0.0000              1530.0904

                     28                     29                     30
                      A                      A                      A
 Frequencies --   1568.0570              1580.6916              1683.5955
 Red. masses --     13.0914                12.1533                12.0466
 Frc consts  --     18.9653                17.8912                20.1183
 IR Inten    --      0.0001               214.3966                 0.0000

 - Thermochemistry -
 -------------------
 Temperature   298.150 Kelvin.  Pressure   1.00000 Atm.
 Atom     1 has atomic number  9 and mass  18.99840

 Molecular mass:   179.98344 amu.
 Principal axes and moments of inertia in atomic units:
                           1         2         3
     Eigenvalues --  1611.296391791.690143402.98638
           X            0.75615   0.65439  -0.00325
           Y           -0.65431   0.75613   0.01218
           Z            0.01043  -0.00709   0.99992
 This molecule is an asymmetric top.
 Rotational symmetry number  1.
 Warning -- assumption of classical behavior for rotation
           may cause significant error
 Rotational temperatures (Kelvin)      0.05375     0.04834     0.02545
 Rotational constants (GHZ):           1.12006     1.00728     0.53034
 Zero-point vibrational energy     133920.1 (Joules/Mol)
                                   32.00768 (Kcal/Mol)
 Warning -- explicit consideration of  16 degrees of freedom as
           vibrations may cause significant error
 Vibrational temperatures:    149.67   182.41   226.71   303.35   400.63
          (Kelvin)            426.01   430.60   456.63   505.04   518.41
                              577.79   613.45   632.89   800.71   878.91
                              888.51  1003.87  1031.52  1160.94  1378.53
                             1503.44  1543.11  1764.79  1769.27  1864.38
                             2051.02  2198.53  2256.08  2274.26  2422.32

 Zero-point correction=                           0.051007 (Hartree/Particle)
 Thermal correction to Energy=                    0.060644
 Thermal correction to Enthalpy=                  0.061588
 Thermal correction to Gibbs Free Energy=         0.015144
 Sum of electronic and zero-point Energies=           -778.734174
 Sum of electronic and thermal Energies=              -778.724537
 Sum of electronic and thermal Enthalpies=            -778.723593
 Sum of electronic and thermal Free Energies=         -778.770037

                     E (Thermal)             CV                S
                      KCal/Mol        Cal/Mol-Kelvin    Cal/Mol-Kelvin
 Total                   38.055             34.955             97.750
 Electronic               0.000              0.000              1.377
 Translational            0.889              2.981             41.470
 Rotational               0.889              2.981             30.664
 Vibrational             36.277             28.994             24.239
 Vibration     1          0.605              1.946              3.377
 Vibration     2          0.611              1.926              2.994
 Vibration     3          0.621              1.894              2.579
 Vibration     4          0.643              1.824              2.036
 Vibration     5          0.679              1.713              1.543
 Vibration     6          0.690              1.681              1.439
 Vibration     7          0.692              1.675              1.421
 Vibration     8          0.704              1.640              1.324
 Vibration     9          0.728              1.573              1.162
 Vibration    10          0.735              1.554              1.121
 Vibration    11          0.767              1.467              0.957
 Vibration    12          0.788              1.413              0.871
 Vibration    13          0.800              1.383              0.827
 Vibration    14          0.912              1.125              0.531
 Vibration    15          0.970              1.009              0.431
 Vibration    16          0.977              0.995              0.420

 Optimization completed.
    -- Stationary point found.
 Normal termination of Gaussian 16 at Sat Feb 10 10:16:33 2024.
