 Gaussian 16, Revision A.03,
 Gaussian 16:  ES64L-G16RevA.03 25-Dec-2016

 ----------------------------------------------------------------------
 #P UB3LYP/6-311++G(d,p) nosym opt freq SCRF=(PCM,Solvent=n,n-DiMethylF
 ormamide)
 ----------------------------------------------------------------------

 -------
 Reduced
 -------
 Symbolic Z-matrix:
 Charge = -2 Multiplicity = 1

 SCF Done:  E(UB3LYP) =  -846.714509176     A.U. after   18 cycles
 SCF Done:  E(UB3LYP) =  -846.716600130     A.U. after   14 cycles
 SCF Done:  E(UB3LYP) =  -846.716917251     A.U. after   13 cycles
 SCF Done:  E(UB3LYP) =  -846.716937752     A.U. after   13 cycles
 SCF Done:  E(UB3LYP) =  -846.716960084     A.U. after   12 cycles
 SCF Done:  E(UB3LYP) =  -846.716961981     A.U. after   11 cycles
 SCF Done:  E(UB3LYP) =  -846.716962583     A.U. after   10 cycles
 SCF Done:  E(UB3LYP) =  -846.716962727     A.U. after   11 cycles
 Optimization completed.
    -- Stationary point found.
 Normal termination of Gaussian 16 at Sun Feb 11 03:30:40 2024.

 ----------------------------------------------------------------------
 #P Geom=AllCheck Guess=TCheck SCRF=Check GenChk UB3LYP/6-311++G(d,p) F
 req
 ----------------------------------------------------------------------

 Structure from the checkpoint file:  "284-an.chk"
 -------
 Reduced
 -------
 Charge = -2 Multiplicity = 1

                          Input orientation:
 ---------------------------------------------------------------------
 Center     Atomic      Atomic             Coordinates (Angstroms)
 Number     Number       Type             X           Y           Z
 ---------------------------------------------------------------------
      1          6           0        0.003993    3.917577    0.184413
      2          6           0       -0.502998    3.521859    1.403537
      3          6           0       -0.169716    2.245957    1.928569
      4          6           0        0.864628    3.079712   -0.582539
      5          6           0        1.206839    1.774026   -0.047483
      6          6           0        0.664190    1.410553    1.209002
      7          6           0        1.379011    3.498931   -1.841687
      8          6           0        2.216702    2.578361   -2.496270
      9          6           0        2.575649    1.303346   -2.017924
     10          6           0        2.079284    0.853913   -0.761738
     11          8           0        1.137122    4.663188   -2.440020
     12          8           0        2.375172   -0.318275   -0.267489
     13          1           0       -0.245683    4.891404   -0.224092
     14          1           0       -1.156863    4.184419    1.963454
     15          1           0       -0.566780    1.931573    2.888959
     16          1           0        0.929270    0.434039    1.599808
     17          8           0        2.686415    3.034380   -3.719482
     18          6           0        3.487041    0.417743   -2.835164
     19          6           0        4.990797    0.625805   -2.561520
     20          6           0        5.894676   -0.278437   -3.407449
     21          6           0        7.391710   -0.077010   -3.146300
     22          6           0        8.294932   -0.975226   -3.999534
     23          6           0        9.788291   -0.765804   -3.730219
     24          1           0        2.252303    3.921363   -3.747064
     25          1           0        3.307211    0.585095   -3.903522
     26          1           0        3.239962   -0.627107   -2.620363
     27          1           0        5.187834    0.445401   -1.498060
     28          1           0        5.248976    1.674739   -2.751033
     29          1           0        5.688213   -0.100603   -4.471575
     30          1           0        5.633927   -1.328554   -3.218772
     31          1           0        7.601910   -0.260864   -2.084316
     32          1           0        7.652843    0.973566   -3.330770
     33          1           0        8.086671   -0.790613   -5.060679
     34          1           0        8.035213   -2.025152   -3.816120
     35          1           0       10.085220    0.267556   -3.937161
     36          1           0       10.403734   -1.419864   -4.354836
     37          1           0       10.033904   -0.977045   -2.684359
 ---------------------------------------------------------------------

 SCF Done:  E(UB3LYP) =  -846.716962727     A.U. after    1 cycles

 Alpha  occ. eigenvalues --  -19.10816 -19.02199 -19.01302 -10.17478 -10.16995
 Alpha  occ. eigenvalues --  -10.15832 -10.15762 -10.15375 -10.15214 -10.15087
 Alpha  occ. eigenvalues --  -10.14737 -10.14580 -10.14369 -10.14365 -10.14280
 Alpha  occ. eigenvalues --  -10.13971 -10.13720 -10.13279 -10.12395  -1.01875
 Alpha  occ. eigenvalues --   -0.92281  -0.91436  -0.82169  -0.79807  -0.77429
 Alpha  occ. eigenvalues --   -0.75127  -0.72005  -0.71650  -0.68072  -0.64402
 Alpha  occ. eigenvalues --   -0.62182  -0.58558  -0.57657  -0.56748  -0.55304
 Alpha  occ. eigenvalues --   -0.53252  -0.49963  -0.47135  -0.46855  -0.44596
 Alpha  occ. eigenvalues --   -0.43430  -0.42697  -0.42012  -0.41777  -0.40476
 Alpha  occ. eigenvalues --   -0.39760  -0.38814  -0.38441  -0.36974  -0.36688
 Alpha  occ. eigenvalues --   -0.35892  -0.35282  -0.34798  -0.34503  -0.33696
 Alpha  occ. eigenvalues --   -0.33303  -0.32148  -0.31859  -0.31672  -0.30948
 Alpha  occ. eigenvalues --   -0.30633  -0.29936  -0.29116  -0.29082  -0.22690
 Alpha  occ. eigenvalues --   -0.21972  -0.20994  -0.19253  -0.18880  -0.11111
 Alpha virt. eigenvalues --   -0.00396  -0.00103   0.00307   0.01042   0.01311
 Alpha virt. eigenvalues --    0.01633   0.01986   0.02240   0.02679   0.03395
 Alpha virt. eigenvalues --    0.03534   0.04456   0.04875   0.05155   0.05496

  Beta  occ. eigenvalues --  -19.10816 -19.02199 -19.01302 -10.17478 -10.16995
  Beta  occ. eigenvalues --  -10.15832 -10.15762 -10.15375 -10.15214 -10.15087
  Beta  occ. eigenvalues --  -10.14737 -10.14580 -10.14369 -10.14365 -10.14280
  Beta  occ. eigenvalues --  -10.13971 -10.13720 -10.13279 -10.12395  -1.01875
  Beta  occ. eigenvalues --   -0.92281  -0.91436  -0.82169  -0.79807  -0.77429
  Beta  occ. eigenvalues --   -0.75127  -0.72005  -0.71650  -0.68072  -0.64402
  Beta  occ. eigenvalues --   -0.62182  -0.58558  -0.57657  -0.56748  -0.55304
  Beta  occ. eigenvalues --   -0.53252  -0.49963  -0.47135  -0.46855  -0.44596
  Beta  occ. eigenvalues --   -0.43430  -0.42697  -0.42012  -0.41777  -0.40476
  Beta  occ. eigenvalues --   -0.39760  -0.38814  -0.38441  -0.36974  -0.36688
  Beta  occ. eigenvalues --   -0.35892  -0.35282  -0.34798  -0.34503  -0.33696
  Beta  occ. eigenvalues --   -0.33303  -0.32148  -0.31859  -0.31672  -0.30948
  Beta  occ. eigenvalues --   -0.30633  -0.29936  -0.29116  -0.29082  -0.22690
  Beta  occ. eigenvalues --   -0.21972  -0.20994  -0.19253  -0.18880  -0.11111
  Beta virt. eigenvalues --   -0.00396  -0.00103   0.00307   0.01042   0.01311
  Beta virt. eigenvalues --    0.01633   0.01986   0.02240   0.02679   0.03395
  Beta virt. eigenvalues --    0.03534   0.04456   0.04875   0.05155   0.05496

 Mulliken charges and spin densities:
               1          2
     1  C   -0.074602   0.000000
     2  C   -0.375084  -0.000000
     3  C   -0.472333  -0.000000
     4  C    0.480674   0.000000
     5  C   -0.030523   0.000000
     6  C   -0.001897  -0.000000
     7  C   -1.005192  -0.000000
     8  C   -0.682951  -0.000000
     9  C    2.014975   0.000000
    10  C   -0.768284  -0.000000
    11  O   -0.755878  -0.000000
    12  O   -0.677613   0.000000
    13  H    0.144269  -0.000000
    14  H    0.155497  -0.000000
    15  H    0.150305  -0.000000
    16  H    0.144346   0.000000
    17  O   -0.334809   0.000000
    18  C   -0.279338   0.000000
    19  C   -0.529782  -0.000000
    20  C   -0.101673   0.000000
    21  C   -0.208601   0.000000
    22  C   -0.199799   0.000000
    23  C   -0.679253   0.000000
    24  H    0.273284   0.000000
    25  H    0.190552   0.000000
    26  H    0.180202   0.000000
    27  H    0.164104  -0.000000
    28  H    0.150505  -0.000000
    29  H    0.106069  -0.000000
    30  H    0.105330  -0.000000
    31  H    0.116521  -0.000000
    32  H    0.117980  -0.000000
    33  H    0.130269  -0.000000
    34  H    0.131328  -0.000000
    35  H    0.140014  -0.000000
    36  H    0.141400   0.000000
    37  H    0.139989   0.000000
 Sum of Mulliken charges =  -2.00000  -0.00000

 Dipole moment (field-independent basis, Debye):
    X=            -16.4282    Y=            -20.9380    Z=             11.9596  Tot=             29.1774
 Quadrupole moment (field-independent basis, Debye-Ang):
   XX=           -165.8391   YY=           -214.6418   ZZ=           -160.3923
   XY=            -23.7585   XZ=             23.4210   YZ=             41.6955

  Exact polarizability: 306.273 -60.062 338.253 -92.437 -12.535 372.193
 Approx polarizability: 315.734 -60.889 379.767 -98.832 -25.150 419.934

                      1                      2                      3
                      A                      A                      A
 Frequencies --     24.6412                29.6288                45.7230
 Red. masses --      4.7319                 5.0877                 1.5641
 Frc consts  --      0.0017                 0.0026                 0.0019
 IR Inten    --      4.2589                 2.0732                 0.0135

                      4                      5                      6
                      A                      A                      A
 Frequencies --     67.4516                87.2590               110.3351
 Red. masses --      3.2791                 5.0163                 4.6120
 Frc consts  --      0.0088                 0.0225                 0.0331
 IR Inten    --      3.5217                14.6866                 1.0273

                      7                      8                      9
                      A                      A                      A
 Frequencies --    126.8756               141.0137               142.5273
 Red. masses --      1.6790                 3.5919                 2.6082
 Frc consts  --      0.0159                 0.0421                 0.0312
 IR Inten    --      0.1576                 3.4374                 1.6021

                     10                     11                     12
                      A                      A                      A
 Frequencies --    167.2269               192.7577               238.4777
 Red. masses --      6.7358                 7.1203                 3.6367
 Frc consts  --      0.1110                 0.1559                 0.1219
 IR Inten    --      2.8288                 3.0772                 0.1936

                     13                     14                     15
                      A                      A                      A
 Frequencies --    243.6246               254.4030               304.7860
 Red. masses --      1.1230                 4.7576                 2.7063
 Frc consts  --      0.0393                 0.1814                 0.1481
 IR Inten    --      0.2378                16.4334                 2.7320

                     16                     17                     18
                      A                      A                      A
 Frequencies --    319.1355               324.6510               363.1547
 Red. masses --      4.5669                 5.6583                 9.5331
 Frc consts  --      0.2740                 0.3514                 0.7407
 IR Inten    --      7.1681                26.5734                 6.8109

                     19                     20                     21
                      A                      A                      A
 Frequencies --    374.1118               412.7059               430.6650
 Red. masses --      5.7983                 4.2062                 3.5622
 Frc consts  --      0.4781                 0.4221                 0.3893
 IR Inten    --      0.0813                 7.9924                 2.4089

                     22                     23                     24
                      A                      A                      A
 Frequencies --    440.2257               465.6533               491.8714
 Red. masses --      8.6189                 3.2660                 6.0557
 Frc consts  --      0.9841                 0.4172                 0.8632
 IR Inten    --      7.5276                 6.1724                 5.6584

                     25                     26                     27
                      A                      A                      A
 Frequencies --    529.1587               561.5142               635.8817
 Red. masses --      6.0472                 5.2668                 6.0497
 Frc consts  --      0.9976                 0.9784                 1.4413
 IR Inten    --      1.6831                 5.4946                65.5044

                     28                     29                     30
                      A                      A                      A
 Frequencies --    667.4949               689.6535               693.0459
 Red. masses --      5.4136                 3.2458                 3.3525
 Frc consts  --      1.4211                 0.9096                 0.9487
 IR Inten    --      7.5100                 6.6322                67.2010

                     31                     32                     33
                      A                      A                      A
 Frequencies --    705.1232               727.2508               738.9499
 Red. masses --      3.7784                 1.1190                 1.2759
 Frc consts  --      1.1068                 0.3487                 0.4105
 IR Inten    --     10.8829                10.5920               100.4240

                     34                     35                     36
                      A                      A                      A
 Frequencies --    740.0952               753.3685               775.4284
 Red. masses --      1.2825                 1.9026                 3.1818
 Frc consts  --      0.4139                 0.6362                 1.1272
 IR Inten    --    109.5170                 0.9069                 9.1111

                     37                     38                     39
                      A                      A                      A
 Frequencies --    785.5542               839.3868               850.9783
 Red. masses --      1.3459                 1.4912                 1.9696
 Frc consts  --      0.4893                 0.6190                 0.8404
 IR Inten    --      2.0839                 0.3753                61.9955

                     40                     41                     42
                      A                      A                      A
 Frequencies --    891.8833               907.4875               929.9634
 Red. masses --      1.9966                 1.7762                 5.1693
 Frc consts  --      0.9358                 0.8618                 2.6340
 IR Inten    --      1.3434                38.5298                71.0622

                     43                     44                     45
                      A                      A                      A
 Frequencies --    959.7110               967.9164               989.7085
 Red. masses --      1.3670                 1.2341                 2.0338
 Frc consts  --      0.7418                 0.6812                 1.1738
 IR Inten    --      3.2680                 0.0103                39.5055

                     46                     47                     48
                      A                      A                      A
 Frequencies --   1002.5407              1018.4276              1020.9236
 Red. masses --      2.2727                 2.1876                 3.0091
 Frc consts  --      1.3458                 1.3368                 1.8479
 IR Inten    --     32.9311                82.7687                 2.8532

                     49                     50                     51
                      A                      A                      A
 Frequencies --   1034.0834              1047.0016              1062.8765
 Red. masses --      3.0187                 2.7467                 2.2633
 Frc consts  --      1.9019                 1.7740                 1.5065
 IR Inten    --    363.8112                54.8816                 0.3639

                     52                     53                     54
                      A                      A                      A
 Frequencies --   1094.5924              1110.3447              1127.2795
 Red. masses --      2.4279                 1.8379                 1.9321
 Frc consts  --      1.7139                 1.3350                 1.4466
 IR Inten    --     89.1399               179.2529                21.4025

                     55                     56                     57
                      A                      A                      A
 Frequencies --   1128.5916              1160.3539              1180.7261
 Red. masses --      2.0263                 2.1755                 1.7851
 Frc consts  --      1.5206                 1.7258                 1.4663
 IR Inten    --      4.2459                48.7907               104.6537

                     58                     59                     60
                      A                      A                      A
 Frequencies --   1215.0818              1233.7454              1246.0507
 Red. masses --      1.6831                 2.4971                 1.2755
 Frc consts  --      1.4641                 2.2395                 1.1668
 IR Inten    --      2.2874               260.8709                 2.9227

                     61                     62                     63
                      A                      A                      A
 Frequencies --   1271.1170              1285.9007              1308.6242
 Red. masses --      1.6031                 1.7478                 1.4528
 Frc consts  --      1.5261                 1.7028                 1.4658
 IR Inten    --     13.0545               162.3698                14.5466

                     64                     65                     66
                      A                      A                      A
 Frequencies --   1316.1093              1317.1095              1323.4153
 Red. masses --      1.2901                 5.3534                 1.0454
 Frc consts  --      1.3167                 5.4717                 1.0788
 IR Inten    --     98.4675               560.9929                 2.2240

                     67                     68                     69
                      A                      A                      A
 Frequencies --   1328.6088              1340.6567              1353.8804
 Red. masses --      1.1223                 1.5245                 1.6615
 Frc consts  --      1.1672                 1.6144                 1.7943
 IR Inten    --     45.4127               129.6727                24.0615

                     70                     71                     72
                      A                      A                      A
 Frequencies --   1373.6412              1383.0544              1390.7459
 Red. masses --      1.7374                 3.8758                 1.6184
 Frc consts  --      1.9315                 4.3680                 1.8443
 IR Inten    --    227.0412              1223.7935                 2.4032

                     73                     74                     75
                      A                      A                      A
 Frequencies --   1402.5535              1420.8031              1434.9896
 Red. masses --      1.2459                 4.9626                 2.5480
 Frc consts  --      1.4440                 5.9024                 3.0914
 IR Inten    --      2.5630                96.9373               117.3063

                     76                     77                     78
                      A                      A                      A
 Frequencies --   1460.0302              1461.6510              1470.5173
 Red. masses --      2.5426                 1.1399                 1.0718
 Frc consts  --      3.1934                 1.4349                 1.3655
 IR Inten    --     54.0289                13.4042                 0.8608

                     79                     80                     81
                      A                      A                      A
 Frequencies --   1476.0526              1485.7077              1487.6861
 Red. masses --      1.0739                 1.0789                 1.0402
 Frc consts  --      1.3785                 1.4031                 1.3564
 IR Inten    --      1.9537                 2.2338                10.1721

                     82                     83                     84
                      A                      A                      A
 Frequencies --   1496.4434              1505.5073              1516.4513
 Red. masses --      1.0894                 1.0967                 4.2580
 Frc consts  --      1.4373                 1.4645                 5.7691
 IR Inten    --      1.1642                16.1922                 5.0519

                     85                     86                     87
                      A                      A                      A
 Frequencies --   1545.0964              1595.1968              1612.9004
 Red. masses --      5.2241                 5.2406                 5.8452
 Frc consts  --      7.3481                 7.8571                 8.9591
 IR Inten    --    302.3638               143.9046                11.2916

                     88                     89                     90
                      A                      A                      A
 Frequencies --   2984.3169              2988.7075              3000.6382
 Red. masses --      1.0575                 1.0579                 1.0597
 Frc consts  --      5.5489                 5.5675                 5.6217
 IR Inten    --     12.9451                39.3774                65.6573

                     91                     92                     93
                      A                      A                      A
 Frequencies --   3001.0762              3001.8019              3008.9244
 Red. masses --      1.0680                 1.0866                 1.0612
 Frc consts  --      5.6673                 5.7690                 5.6605
 IR Inten    --     47.1678                 8.8455               235.1126

                     94                     95                     96
                      A                      A                      A
 Frequencies --   3012.2635              3014.9430              3029.8329
 Red. masses --      1.0355                 1.1004                 1.1022
 Frc consts  --      5.5359                 5.8931                 5.9615
 IR Inten    --     63.0227                12.7236                 5.6245

                     97                     98                     99
                      A                      A                      A
 Frequencies --   3037.5235              3054.0460              3070.9479
 Red. masses --      1.1048                 1.1056                 1.1026
 Frc consts  --      6.0057                 6.0756                 6.1264
 IR Inten    --     94.1330               166.8719               118.4538

                    100                    101                    102
                      A                      A                      A
 Frequencies --   3075.1708              3134.5969              3149.6903
 Red. masses --      1.1011                 1.0841                 1.0878
 Frc consts  --      6.1352                 6.2762                 6.3584
 IR Inten    --     75.8322                14.0693                24.4463

                    103                    104                    105
                      A                      A                      A
 Frequencies --   3162.6956              3170.6416              3379.3468
 Red. masses --      1.0924                 1.0938                 1.0638
 Frc consts  --      6.4377                 6.4789                 7.1578
 IR Inten    --     62.5498                68.6574               267.2381

 - Thermochemistry -
 -------------------
 Temperature   298.150 Kelvin.  Pressure   1.00000 Atm.
 Atom     1 has atomic number  6 and mass  12.00000

 Molecular mass:   258.12559 amu.
 Principal axes and moments of inertia in atomic units:
                           1         2         3
     Eigenvalues --  2305.27637********************
           X            0.82179   0.04538   0.56799
           Y           -0.38483  -0.69092   0.61199
           Z           -0.42020   0.72151   0.55033
 This molecule is an asymmetric top.
 Rotational symmetry number  1.
 Warning -- assumption of classical behavior for rotation
           may cause significant error
 Rotational temperatures (Kelvin)      0.03757     0.00719     0.00638
 Rotational constants (GHZ):           0.78287     0.14987     0.13303
 Zero-point vibrational energy     792302.9 (Joules/Mol)
                                  189.36493 (Kcal/Mol)
 Warning -- explicit consideration of  26 degrees of freedom as
           vibrations may cause significant error
 Vibrational temperatures:     35.45    42.63    65.79    97.05   125.55
          (Kelvin)            158.75   182.55   202.89   205.07   240.60
                              277.34   343.12   350.52   366.03   438.52
                              459.16   467.10   522.50   538.26   593.79
                              619.63   633.39   669.97   707.69   761.34
                              807.89   914.89   960.38   992.26   997.14
                             1014.51  1046.35  1063.18  1064.83  1083.93
                             1115.67  1130.24  1207.69  1224.37  1283.22
                             1305.67  1338.01  1380.81  1392.62  1423.97
                             1442.43  1465.29  1468.88  1487.82  1506.40
                             1529.24  1574.87  1597.54  1621.90  1623.79
                             1669.49  1698.80  1748.23  1775.08  1792.79
                             1828.85  1850.12  1882.82  1893.59  1895.03
                             1904.10  1911.57  1928.91  1947.93  1976.36
                             1989.91  2000.97  2017.96  2044.22  2064.63
                             2100.66  2102.99  2115.75  2123.71  2137.60
                             2140.45  2153.05  2166.09  2181.84  2223.05
                             2295.13  2320.60  4293.77  4300.08  4317.25
                             4317.88  4318.92  4329.17  4333.98  4337.83
                             4359.25  4370.32  4394.09  4418.41  4424.48
                             4509.99  4531.70  4550.41  4561.85  4862.13

 Zero-point correction=                           0.301772 (Hartree/Particle)
 Thermal correction to Energy=                    0.319906
 Thermal correction to Enthalpy=                  0.320850
 Thermal correction to Gibbs Free Energy=         0.254063
 Sum of electronic and zero-point Energies=           -846.415191
 Sum of electronic and thermal Energies=              -846.397056
 Sum of electronic and thermal Enthalpies=            -846.396112
 Sum of electronic and thermal Free Energies=         -846.462900

                     E (Thermal)             CV                S
                      KCal/Mol        Cal/Mol-Kelvin    Cal/Mol-Kelvin
 Total                  200.744             69.217            140.566
 Electronic               0.000              0.000              0.000
 Translational            0.889              2.981             42.545
 Rotational               0.889              2.981             34.287
 Vibrational            198.967             63.256             63.735
 Vibration     1          0.593              1.985              6.220
 Vibration     2          0.593              1.984              5.854
 Vibration     3          0.595              1.979              4.994
 Vibration     4          0.598              1.970              4.226
 Vibration     5          0.601              1.958              3.721
 Vibration     6          0.606              1.941              3.263
 Vibration     7          0.611              1.926              2.993
 Vibration     8          0.615              1.912              2.790
 Vibration     9          0.616              1.911              2.770
 Vibration    10          0.624              1.883              2.466
 Vibration    11          0.635              1.850              2.201
 Vibration    12          0.656              1.782              1.814
 Vibration    13          0.659              1.773              1.776
 Vibration    14          0.665              1.755              1.700
 Vibration    15          0.696              1.665              1.390
 Vibration    16          0.705              1.637              1.315
 Vibration    17          0.709              1.626              1.287
 Vibration    18          0.737              1.548              1.109
 Vibration    19          0.745              1.525              1.063
 Vibration    20          0.776              1.443              0.917
 Vibration    21          0.792              1.403              0.856
 Vibration    22          0.800              1.382              0.826
 Vibration    23          0.823              1.326              0.750
 Vibration    24          0.848              1.268              0.679
 Vibration    25          0.884              1.185              0.589
 Vibration    26          0.917              1.115              0.521

 Optimization completed.
    -- Stationary point found.
 Normal termination of Gaussian 16 at Sun Feb 11 04:40:42 2024.
