 Gaussian 16, Revision A.03,
 Gaussian 16:  ES64L-G16RevA.03 25-Dec-2016

 ----------------------------------------------------------------
 #P UB3LYP/6-311++G(d,p) SCRF=(PCM,Solvent=n,n-DiMethylFormamide)
 ----------------------------------------------------------------

 ------------------
 Quinone PCM in DMF
 ------------------
 Symbolic Z-matrix:
 Charge =  0 Multiplicity = 1

                         Standard orientation:
 ---------------------------------------------------------------------
 Center     Atomic      Atomic             Coordinates (Angstroms)
 Number     Number       Type             X           Y           Z
 ---------------------------------------------------------------------
      1          8           0       -0.037619    2.912200   -0.000018
      2          6           0        0.283992    1.732786    0.000048
      3          6           0        1.690865    1.327412   -0.000067
      4          6           0        2.045054    0.025986   -0.000013
      5          8           0        3.314570   -0.391484    0.000044
      6          6           0        1.030651   -1.078053    0.000067
      7          8           0        1.446979   -2.229002   -0.000112
      8          6           0       -0.396158   -0.706751    0.000037
      9          6           0       -1.378233   -1.701579    0.000031
     10          6           0       -2.722615   -1.344747   -0.000001
     11          6           0       -3.087212    0.003139   -0.000013
     12          6           0       -2.111311    0.997825   -0.000005
     13          6           0       -0.761666    0.651654    0.000012
     14          1           0        2.434253    2.115119   -0.000096
     15          1           0       -1.071948   -2.740517    0.000034
     16          1           0       -3.486237   -2.113800   -0.000018
     17          1           0       -4.135675    0.278792   -0.000025
     18          1           0       -2.375905    2.048067    0.000019
     19          1           0        3.283867   -1.367409    0.000207
 ---------------------------------------------------------------------

 SCF Done:  E(UB3LYP) =  -610.528125665     A.U. after   15 cycles

 The electronic state is 1-A.
 Alpha  occ. eigenvalues --  -19.18759 -19.15644 -19.13225 -10.30018 -10.28537
 Alpha  occ. eigenvalues --  -10.27931 -10.21579 -10.21391 -10.20561 -10.20368
 Alpha  occ. eigenvalues --  -10.20164 -10.20143 -10.20065  -1.11742  -1.07557
 Alpha  occ. eigenvalues --   -1.06553  -0.89685  -0.83995  -0.78513  -0.77897
 Alpha  occ. eigenvalues --   -0.70581  -0.66414  -0.64614  -0.60983  -0.58005
 Alpha  occ. eigenvalues --   -0.54965  -0.53094  -0.49907  -0.48834  -0.47613
 Alpha  occ. eigenvalues --   -0.47282  -0.45708  -0.45179  -0.44166  -0.42894
 Alpha  occ. eigenvalues --   -0.41452  -0.41274  -0.38674  -0.38160  -0.37479
 Alpha  occ. eigenvalues --   -0.30892  -0.29537  -0.28414  -0.28398  -0.27172
 Alpha virt. eigenvalues --   -0.13110  -0.06022  -0.03195  -0.00786   0.00346
 Alpha virt. eigenvalues --    0.01109   0.01980   0.02335   0.02731   0.04281
 Alpha virt. eigenvalues --    0.04408   0.05108   0.05673   0.06536   0.07121

  Beta  occ. eigenvalues --  -19.18759 -19.15644 -19.13225 -10.30018 -10.28537
  Beta  occ. eigenvalues --  -10.27931 -10.21579 -10.21391 -10.20561 -10.20368
  Beta  occ. eigenvalues --  -10.20164 -10.20143 -10.20065  -1.11742  -1.07557
  Beta  occ. eigenvalues --   -1.06553  -0.89685  -0.83995  -0.78513  -0.77897
  Beta  occ. eigenvalues --   -0.70581  -0.66414  -0.64614  -0.60983  -0.58005
  Beta  occ. eigenvalues --   -0.54965  -0.53094  -0.49907  -0.48834  -0.47613
  Beta  occ. eigenvalues --   -0.47282  -0.45708  -0.45179  -0.44166  -0.42894
  Beta  occ. eigenvalues --   -0.41452  -0.41274  -0.38674  -0.38160  -0.37479
  Beta  occ. eigenvalues --   -0.30892  -0.29537  -0.28414  -0.28398  -0.27172
  Beta virt. eigenvalues --   -0.13110  -0.06022  -0.03195  -0.00786   0.00346
  Beta virt. eigenvalues --    0.01109   0.01980   0.02335   0.02731   0.04281
  Beta virt. eigenvalues --    0.04408   0.05108   0.05673   0.06536   0.07121

 Mulliken charges and spin densities:
               1          2
     1  O   -0.310807   0.000000
     2  C   -0.441178   0.000000
     3  C    0.398379   0.000000
     4  C   -0.221918   0.000000
     5  O   -0.225472   0.000000
     6  C   -0.547901   0.000000
     7  O   -0.298484   0.000000
     8  C    0.253439  -0.000000
     9  C    0.282001   0.000000
    10  C   -0.372966  -0.000000
    11  C   -0.336584   0.000000
    12  C    0.299300   0.000000
    13  C    0.174874   0.000000
    14  H    0.238270  -0.000000
    15  H    0.189605  -0.000000
    16  H    0.214407  -0.000000
    17  H    0.214447   0.000000
    18  H    0.183192  -0.000000
    19  H    0.307394  -0.000000
 Sum of Mulliken charges =  -0.00000  -0.00000

 Dipole moment (field-independent basis, Debye):
    X=             -2.7641    Y=             -3.0944    Z=              0.0007  Tot=              4.1492
 Quadrupole moment (field-independent basis, Debye-Ang):
   XX=            -62.9330   YY=            -86.0869   ZZ=            -75.4835
   XY=              3.0602   XZ=              0.0015   YZ=             -0.0011

 Normal termination of Gaussian 16 at Sun Jan 21 08:07:04 2024.
