 Gaussian 16, Revision A.03,
 Gaussian 16:  ES64L-G16RevA.03 25-Dec-2016

 ----------------------------------------------------------------------
 #P UB3LYP/6-311++G(d,p) nosym opt freq SCRF=(PCM,Solvent=n,n-DiMethylF
 ormamide)
 ----------------------------------------------------------------------

 -------
 Reduced
 -------
 Symbolic Z-matrix:
 Charge = -2 Multiplicity = 1

 SCF Done:  E(UB3LYP) =  -1161.60409989     A.U. after   19 cycles
 SCF Done:  E(UB3LYP) =  -1161.60429561     A.U. after   15 cycles
 SCF Done:  E(UB3LYP) =  -1161.60420853     A.U. after   15 cycles
 SCF Done:  E(UB3LYP) =  -1161.60433113     A.U. after   15 cycles
 SCF Done:  E(UB3LYP) =  -1161.60433392     A.U. after   13 cycles
 SCF Done:  E(UB3LYP) =  -1161.60433547     A.U. after   13 cycles
 SCF Done:  E(UB3LYP) =  -1161.60433634     A.U. after   13 cycles
 SCF Done:  E(UB3LYP) =  -1161.60376433     A.U. after   18 cycles
 SCF Done:  E(UB3LYP) =  -1161.60440456     A.U. after   15 cycles
 SCF Done:  E(UB3LYP) =  -1161.59738979     A.U. after   17 cycles
 SCF Done:  E(UB3LYP) =  -1161.60418603     A.U. after   17 cycles
 SCF Done:  E(UB3LYP) =  -1161.60446572     A.U. after   12 cycles
 SCF Done:  E(UB3LYP) =  -1161.60443169     A.U. after   17 cycles
 SCF Done:  E(UB3LYP) =  -1161.60449812     A.U. after   15 cycles
 SCF Done:  E(UB3LYP) =  -1161.60450341     A.U. after   12 cycles
 SCF Done:  E(UB3LYP) =  -1161.60450458     A.U. after   13 cycles
 SCF Done:  E(UB3LYP) =  -1161.60450526     A.U. after   13 cycles
 SCF Done:  E(UB3LYP) =  -1161.60450541     A.U. after   11 cycles
 SCF Done:  E(UB3LYP) =  -1161.60450545     A.U. after   12 cycles
 Optimization completed.
    -- Stationary point found.
 Normal termination of Gaussian 16 at Sun Feb 11 00:37:04 2024.

 ----------------------------------------------------------------------
 #P Geom=AllCheck Guess=TCheck SCRF=Check GenChk UB3LYP/6-311++G(d,p) F
 req
 ----------------------------------------------------------------------

 Structure from the checkpoint file:  "066-an.chk"
 -------
 Reduced
 -------
 Charge = -2 Multiplicity = 1

                          Input orientation:
 ---------------------------------------------------------------------
 Center     Atomic      Atomic             Coordinates (Angstroms)
 Number     Number       Type             X           Y           Z
 ---------------------------------------------------------------------
      1          6           0        1.297671   -0.573565    1.837925
      2          6           0        0.822346   -1.585506    0.936673
      3          6           0       -0.338249   -1.467105    0.192850
      4          6           0       -1.198769   -0.318016    0.238123
      5          6           0       -0.755201    0.695742    1.114484
      6          6           0        0.442137    0.575973    1.864009
      7          8           0        2.369064   -0.714880    2.545661
      8          8           0       -2.293922   -0.237369   -0.477283
      9         16           0        0.867544    1.926822    2.928038
     10          6           0        0.815427    1.312729    4.631011
     11          6           0       -0.394921    1.364619    5.324284
     12          6           0        1.967248    0.800362    5.225395
     13          6           0        1.902689    0.338576    6.540099
     14          6           0       -0.449022    0.895438    6.635267
     15          6           0        0.698970    0.384212    7.244000
     16          8           0        2.245959    2.424197    2.686991
     17          8           0       -0.206667    2.952916    2.839821
     18          1           0        1.422933   -2.489623    0.859794
     19          1           0       -0.631645   -2.282993   -0.465397
     20          1           0       -1.343841    1.600710    1.210460
     21          1           0       -1.275442    1.775314    4.846920
     22          1           0        2.885371    0.757037    4.658333
     23          1           0        2.794029   -0.057836    7.013143
     24          1           0       -1.384167    0.936387    7.181969
     25          1           0        0.654384    0.022397    8.265049
 ---------------------------------------------------------------------

 SCF Done:  E(UB3LYP) =  -1161.60450545     A.U. after    2 cycles

 Alpha  occ. eigenvalues --  -89.03171 -19.09859 -19.09793 -19.02751 -19.01635
 Alpha  occ. eigenvalues --  -10.20265 -10.19257 -10.18672 -10.18341 -10.18279
 Alpha  occ. eigenvalues --  -10.18167 -10.18094 -10.17658 -10.16354 -10.13931
 Alpha  occ. eigenvalues --  -10.13667 -10.13469  -8.09549  -6.05860  -6.05734
 Alpha  occ. eigenvalues --   -6.05598  -1.08648  -0.98058  -0.94363  -0.92328
 Alpha  occ. eigenvalues --   -0.86883  -0.79958  -0.77147  -0.75684  -0.73266
 Alpha  occ. eigenvalues --   -0.67750  -0.64892  -0.61545  -0.60344  -0.56515
 Alpha  occ. eigenvalues --   -0.55170  -0.52061  -0.47608  -0.46957  -0.46439
 Alpha  occ. eigenvalues --   -0.44962  -0.44590  -0.43538  -0.43005  -0.42658
 Alpha  occ. eigenvalues --   -0.40100  -0.38278  -0.37502  -0.36432  -0.36416
 Alpha  occ. eigenvalues --   -0.35418  -0.34518  -0.33010  -0.32543  -0.31761
 Alpha  occ. eigenvalues --   -0.30715  -0.28991  -0.28513  -0.26937  -0.26444
 Alpha  occ. eigenvalues --   -0.23554  -0.23030  -0.20488  -0.19776  -0.13171
 Alpha virt. eigenvalues --   -0.03758  -0.01953  -0.00114   0.00072   0.01018
 Alpha virt. eigenvalues --    0.01526   0.02107   0.02736   0.03485   0.04015
 Alpha virt. eigenvalues --    0.04231   0.04595   0.05393   0.05997   0.06518

  Beta  occ. eigenvalues --  -89.03171 -19.09859 -19.09793 -19.02751 -19.01635
  Beta  occ. eigenvalues --  -10.20265 -10.19257 -10.18672 -10.18341 -10.18279
  Beta  occ. eigenvalues --  -10.18167 -10.18094 -10.17658 -10.16354 -10.13931
  Beta  occ. eigenvalues --  -10.13667 -10.13469  -8.09549  -6.05860  -6.05734
  Beta  occ. eigenvalues --   -6.05598  -1.08648  -0.98058  -0.94363  -0.92328
  Beta  occ. eigenvalues --   -0.86883  -0.79958  -0.77147  -0.75684  -0.73266
  Beta  occ. eigenvalues --   -0.67750  -0.64892  -0.61545  -0.60344  -0.56515
  Beta  occ. eigenvalues --   -0.55170  -0.52061  -0.47608  -0.46957  -0.46439
  Beta  occ. eigenvalues --   -0.44962  -0.44590  -0.43538  -0.43005  -0.42658
  Beta  occ. eigenvalues --   -0.40100  -0.38278  -0.37502  -0.36432  -0.36416
  Beta  occ. eigenvalues --   -0.35418  -0.34518  -0.33010  -0.32543  -0.31761
  Beta  occ. eigenvalues --   -0.30715  -0.28991  -0.28513  -0.26937  -0.26444
  Beta  occ. eigenvalues --   -0.23554  -0.23030  -0.20488  -0.19776  -0.13171
  Beta virt. eigenvalues --   -0.03758  -0.01953  -0.00114   0.00072   0.01018
  Beta virt. eigenvalues --    0.01526   0.02107   0.02736   0.03485   0.04015
  Beta virt. eigenvalues --    0.04231   0.04595   0.05393   0.05997   0.06518

 Mulliken charges and spin densities:
               1          2
     1  C   -0.735240  -0.000000
     2  C   -0.012944   0.000000
     3  C    0.085729  -0.000000
     4  C   -0.654588   0.000000
     5  C    0.016932  -0.000000
     6  C    0.332415  -0.000000
     7  O   -0.592295  -0.000000
     8  O   -0.735514  -0.000000
     9  S    0.341284   0.000000
    10  C    0.472246  -0.000000
    11  C   -0.005695  -0.000000
    12  C   -0.247885   0.000000
    13  C   -0.450035   0.000000
    14  C   -0.502847   0.000000
    15  C   -0.327250   0.000000
    16  O   -0.286056  -0.000000
    17  O   -0.319002  -0.000000
    18  H    0.159946  -0.000000
    19  H    0.157958  -0.000000
    20  H    0.210968   0.000000
    21  H    0.233993   0.000000
    22  H    0.264587  -0.000000
    23  H    0.205031   0.000000
    24  H    0.202995  -0.000000
    25  H    0.185265  -0.000000
 Sum of Mulliken charges =  -2.00000  -0.00000

 Dipole moment (field-independent basis, Debye):
    X=             -1.4356    Y=             -4.9918    Z=            -10.1340  Tot=             11.3876
 Quadrupole moment (field-independent basis, Debye-Ang):
   XX=           -158.1196   YY=           -143.1537   ZZ=           -128.5441
   XY=             -6.4999   XZ=            -29.7284   YZ=            -16.9457

  Exact polarizability: 286.576 -25.062 250.484  47.282  29.926 329.722
 Approx polarizability: 346.053 -39.020 285.143  49.017  22.658 337.461

                      1                      2                      3
                      A                      A                      A
 Frequencies --     31.1669                38.9829                60.8972
 Red. masses --      8.3857                 4.3173                 4.9275
 Frc consts  --      0.0048                 0.0039                 0.0108
 IR Inten    --      4.8982                 1.7499                 2.8278

                      4                      5                      6
                      A                      A                      A
 Frequencies --    120.8217               159.0749               172.1202
 Red. masses --      6.4321                 8.4239                10.9334
 Frc consts  --      0.0553                 0.1256                 0.1908
 IR Inten    --     11.2221                21.6971                 1.5888

                      7                      8                      9
                      A                      A                      A
 Frequencies --    179.4312               226.6981               274.3436
 Red. masses --      6.7324                 5.9199                10.7613
 Frc consts  --      0.1277                 0.1793                 0.4772
 IR Inten    --      3.3303                 5.6276                 1.8361

                     10                     11                     12
                      A                      A                      A
 Frequencies --    288.3360               303.1365               330.8652
 Red. masses --     12.6501                 8.3966                 6.9271
 Frc consts  --      0.6196                 0.4546                 0.4468
 IR Inten    --     13.2470                 5.3185                 1.1273

                     13                     14                     15
                      A                      A                      A
 Frequencies --    388.6354               408.6612               413.2332
 Red. masses --      8.8044                 7.6723                 2.8772
 Frc consts  --      0.7835                 0.7549                 0.2895
 IR Inten    --      6.2876                 1.5611                 0.0680

                     16                     17                     18
                      A                      A                      A
 Frequencies --    437.5283               462.0887               478.4182
 Red. masses --      4.4795                 5.2335                10.3471
 Frc consts  --      0.5052                 0.6584                 1.3954
 IR Inten    --      4.9305                 7.2800                 8.9400

                     19                     20                     21
                      A                      A                      A
 Frequencies --    516.9357               552.2436               580.3179
 Red. masses --      5.1195                 5.2468                 4.5974
 Frc consts  --      0.8060                 0.9428                 0.9122
 IR Inten    --    106.0290               159.9580               188.0860

                     22                     23                     24
                      A                      A                      A
 Frequencies --    592.9764               626.4151               685.7568
 Red. masses --      3.6061                 6.4442                 7.4219
 Frc consts  --      0.7471                 1.4898                 2.0564
 IR Inten    --     92.9583                 0.4946                14.8355

                     25                     26                     27
                      A                      A                      A
 Frequencies --    699.9656               712.5111               723.5041
 Red. masses --      1.9308                 4.4062                 4.2104
 Frc consts  --      0.5574                 1.3179                 1.2985
 IR Inten    --     72.3703                46.2308                71.1857

                     28                     29                     30
                      A                      A                      A
 Frequencies --    762.2571               810.8734               816.1057
 Red. masses --      1.7642                 6.4547                 1.6415
 Frc consts  --      0.6039                 2.5005                 0.6441
 IR Inten    --     15.0302               172.5497                14.8215

                     31                     32                     33
                      A                      A                      A
 Frequencies --    837.2996               848.0411               884.3824
 Red. masses --      1.9024                 1.2499                 7.8266
 Frc consts  --      0.7858                 0.5296                 3.6067
 IR Inten    --     91.7632                 1.4770                80.2067

                     34                     35                     36
                      A                      A                      A
 Frequencies --    932.9556               935.0957               987.5588
 Red. masses --      1.3657                 1.3142                 1.4202
 Frc consts  --      0.7004                 0.6771                 0.8161
 IR Inten    --      1.8612                 0.4627                 2.9114

                     37                     38                     39
                      A                      A                      A
 Frequencies --    992.7257              1007.3851              1011.2033
 Red. masses --      2.8798                 1.3132                 5.5467
 Frc consts  --      1.6721                 0.7852                 3.3416
 IR Inten    --     58.4725                 0.0289                43.5199

                     40                     41                     42
                      A                      A                      A
 Frequencies --   1027.3986              1044.8551              1092.3791
 Red. masses --      6.2309                 2.8091                 1.6201
 Frc consts  --      3.8751                 1.8069                 1.1391
 IR Inten    --    402.9682               127.4160                31.6389

                     43                     44                     45
                      A                      A                      A
 Frequencies --   1094.4134              1113.3714              1161.7755
 Red. masses --      3.0751                 1.4079                15.6120
 Frc consts  --      2.1701                 1.0282                12.4152
 IR Inten    --    124.9882                53.3947               352.8338

                     46                     47                     48
                      A                      A                      A
 Frequencies --   1175.6954              1190.3202              1197.3972
 Red. masses --      1.1123                 1.1549                 2.8682
 Frc consts  --      0.9058                 0.9641                 2.4229
 IR Inten    --      2.6761                 1.4198                65.4721

                     49                     50                     51
                      A                      A                      A
 Frequencies --   1228.3165              1289.7430              1326.5707
 Red. masses --      2.0996                 3.3477                 2.7843
 Frc consts  --      1.8664                 3.2809                 2.8868
 IR Inten    --    135.7863               940.2253                 4.9757

                     52                     53                     54
                      A                      A                      A
 Frequencies --   1329.4440              1339.5416              1409.1768
 Red. masses --      4.1181                 1.8961                 4.9368
 Frc consts  --      4.2884                 2.0046                 5.7760
 IR Inten    --     61.0037                 5.5007                76.0824

                     55                     56                     57
                      A                      A                      A
 Frequencies --   1442.7813              1470.0724              1476.2996
 Red. masses --      3.9552                 2.1182                 4.0700
 Frc consts  --      4.8509                 2.6970                 5.2263
 IR Inten    --   1341.5171                45.1938               258.5680

                     58                     59                     60
                      A                      A                      A
 Frequencies --   1501.8756              1608.2785              1616.2709
 Red. masses --      2.0335                 6.4121                 5.6595
 Frc consts  --      2.7024                 9.7718                 8.7108
 IR Inten    --     13.8179                74.6290                 1.1100

                     61                     62                     63
                      A                      A                      A
 Frequencies --   1617.2291              3106.2971              3129.6866
 Red. masses --      5.7543                 1.0854                 1.0935
 Frc consts  --      8.8672                 6.1707                 6.3104
 IR Inten    --      4.3568                60.3200               104.4169

                     64                     65                     66
                      A                      A                      A
 Frequencies --   3167.2386              3176.7545              3177.2346
 Red. masses --      1.0862                 1.0874                 1.0901
 Frc consts  --      6.4201                 6.4655                 6.4835
 IR Inten    --      0.5209                36.4275                18.0805

                     67                     68                     69
                      A                      A                      A
 Frequencies --   3188.0519              3201.2413              3230.9995
 Red. masses --      1.0951                 1.0939                 1.0921
 Frc consts  --      6.5576                 6.6050                 6.7169
 IR Inten    --     26.7654                 9.3270                 3.0311

 - Thermochemistry -
 -------------------
 Temperature   298.150 Kelvin.  Pressure   1.00000 Atm.
 Atom     1 has atomic number  6 and mass  12.00000

 Molecular mass:   248.01433 amu.
 Principal axes and moments of inertia in atomic units:
                           1         2         3
     Eigenvalues --  2388.774766169.711506411.43612
           X            0.27071  -0.60077   0.75219
           Y            0.24045   0.79880   0.55145
           Z            0.93215  -0.03158  -0.36070
 This molecule is an asymmetric top.
 Rotational symmetry number  1.
 Warning -- assumption of classical behavior for rotation
           may cause significant error
 Rotational temperatures (Kelvin)      0.03626     0.01404     0.01351
 Rotational constants (GHZ):           0.75551     0.29252     0.28149
 Zero-point vibrational energy     451121.7 (Joules/Mol)
                                  107.82067 (Kcal/Mol)
 Warning -- explicit consideration of  22 degrees of freedom as
           vibrations may cause significant error
 Vibrational temperatures:     44.84    56.09    87.62   173.84   228.87
          (Kelvin)            247.64   258.16   326.17   394.72   414.85
                              436.15   476.04   559.16   587.97   594.55
                              629.51   664.84   688.34   743.76   794.56
                              834.95   853.16   901.27   986.65  1007.09
                             1025.14  1040.96  1096.72  1166.67  1174.19
                             1204.69  1220.14  1272.43  1342.32  1345.39
                             1420.88  1428.31  1449.40  1454.90  1478.20
                             1503.31  1571.69  1574.62  1601.89  1671.54
                             1691.56  1712.61  1722.79  1767.27  1855.65
                             1908.64  1912.77  1927.30  2027.49  2075.84
                             2115.11  2124.07  2160.86  2313.95  2325.45
                             2326.83  4469.27  4502.92  4556.95  4570.64
                             4571.33  4586.90  4605.87  4648.69

 Zero-point correction=                           0.171823 (Hartree/Particle)
 Thermal correction to Energy=                    0.185921
 Thermal correction to Enthalpy=                  0.186865
 Thermal correction to Gibbs Free Energy=         0.129746
 Sum of electronic and zero-point Energies=          -1161.432682
 Sum of electronic and thermal Energies=             -1161.418585
 Sum of electronic and thermal Enthalpies=           -1161.417641
 Sum of electronic and thermal Free Energies=        -1161.474760

                     E (Thermal)             CV                S
                      KCal/Mol        Cal/Mol-Kelvin    Cal/Mol-Kelvin
 Total                  116.667             54.888            120.217
 Electronic               0.000              0.000              0.000
 Translational            0.889              2.981             42.426
 Rotational               0.889              2.981             32.913
 Vibrational            114.890             48.927             44.878
 Vibration     1          0.594              1.983              5.754
 Vibration     2          0.594              1.981              5.310
 Vibration     3          0.597              1.973              4.428
 Vibration     4          0.609              1.932              3.087
 Vibration     5          0.621              1.892              2.561
 Vibration     6          0.626              1.877              2.412
 Vibration     7          0.629              1.868              2.334
 Vibration     8          0.650              1.800              1.905
 Vibration     9          0.677              1.721              1.569
 Vibration    10          0.685              1.695              1.484
 Vibration    11          0.695              1.668              1.400
 Vibration    12          0.713              1.614              1.256
 Vibration    13          0.757              1.494              1.005
 Vibration    14          0.773              1.451              0.931
 Vibration    15          0.777              1.442              0.915
 Vibration    16          0.798              1.388              0.834
 Vibration    17          0.820              1.334              0.760
 Vibration    18          0.835              1.298              0.714
 Vibration    19          0.872              1.212              0.617
 Vibration    20          0.908              1.135              0.540
 Vibration    21          0.937              1.074              0.485
 Vibration    22          0.951              1.047              0.462

 Optimization completed.
    -- Stationary point found.
 Normal termination of Gaussian 16 at Sun Feb 11 01:35:22 2024.
