 Gaussian 16, Revision A.03,
 Gaussian 16:  ES64L-G16RevA.03 25-Dec-2016

 ----------------------------------------------------------------
 #P UB3LYP/6-311++G(d,p) SCRF=(PCM,Solvent=n,n-DiMethylFormamide)
 ----------------------------------------------------------------

 ------------------
 Quinone PCM in DMF
 ------------------
 Symbolic Z-matrix:
 Charge =  0 Multiplicity = 1

                         Standard orientation:
 ---------------------------------------------------------------------
 Center     Atomic      Atomic             Coordinates (Angstroms)
 Number     Number       Type             X           Y           Z
 ---------------------------------------------------------------------
      1          6           0       -3.841366   -0.634560    1.270205
      2          6           0       -3.435944    0.155258    0.000056
      3          6           0       -4.211959    1.485871   -0.000553
      4          6           0       -3.841425   -0.635532   -1.269442
      5          6           0       -1.922213    0.398810    0.000001
      6          6           0       -1.371481    1.624572   -0.000392
      7          6           0        0.080251    1.896388   -0.000201
      8          8           0        0.496390    3.037683   -0.000319
      9          6           0        1.003037    0.715811    0.000095
     10          6           0        0.495533   -0.531643    0.000121
     11         35           0        1.567242   -2.088214   -0.000224
     12          6           0       -0.993615   -0.787354    0.000229
     13          8           0       -1.405901   -1.927647    0.000406
     14         35           0        2.846912    1.115834    0.000191
     15          1           0       -4.927441   -0.761810    1.282776
     16          1           0       -3.559312   -0.088869    2.175441
     17          1           0       -3.381516   -1.620862    1.298676
     18          1           0       -3.997682    2.088151    0.886637
     19          1           0       -5.283231    1.272165   -0.000278
     20          1           0       -3.997873    2.087063   -0.888526
     21          1           0       -3.559457   -0.090478   -2.175088
     22          1           0       -4.927506   -0.762792   -1.281829
     23          1           0       -3.381591   -1.621854   -1.297302
     24          1           0       -1.968599    2.526576   -0.000791
 ---------------------------------------------------------------------

 SCF Done:  E(UB3LYP) =  -5685.94413369     A.U. after   15 cycles

 The electronic state is 1-A.
 Alpha  occ. eigenvalues -- -482.85767-482.85695 -62.51033 -62.50961 -56.33084
 Alpha  occ. eigenvalues --  -56.33013 -56.32695 -56.32643 -56.32623 -56.32570
 Alpha  occ. eigenvalues --  -19.15573 -19.15360 -10.30865 -10.30425 -10.27647
 Alpha  occ. eigenvalues --  -10.27483 -10.23017 -10.21375 -10.20995 -10.16565
 Alpha  occ. eigenvalues --  -10.16359 -10.16358  -8.72003  -8.71931  -6.55191
 Alpha  occ. eigenvalues --   -6.55121  -6.53887  -6.53816  -6.53735  -6.53661
 Alpha  occ. eigenvalues --   -2.66281  -2.66210  -2.65932  -2.65861  -2.65816
 Alpha  occ. eigenvalues --   -2.65744  -2.64778  -2.64775  -2.64704  -2.64702
 Alpha  occ. eigenvalues --   -1.09297  -1.08786  -0.90286  -0.86233  -0.82589
 Alpha  occ. eigenvalues --   -0.81014  -0.75581  -0.71453  -0.69395  -0.69372
 Alpha  occ. eigenvalues --   -0.63818  -0.61966  -0.56224  -0.54820  -0.50912
 Alpha  occ. eigenvalues --   -0.48874  -0.47400  -0.47383  -0.45386  -0.45047
 Alpha  occ. eigenvalues --   -0.44827  -0.44017  -0.43473  -0.41383  -0.39677
 Alpha  occ. eigenvalues --   -0.38806  -0.37852  -0.37042  -0.36689  -0.34823
 Alpha  occ. eigenvalues --   -0.34487  -0.32921  -0.32833  -0.30856  -0.30489
 Alpha  occ. eigenvalues --   -0.30244  -0.28793  -0.27695
 Alpha virt. eigenvalues --   -0.14639  -0.05247  -0.04312  -0.01695  -0.00819
 Alpha virt. eigenvalues --   -0.00365   0.00604   0.01272   0.01796   0.02757
 Alpha virt. eigenvalues --    0.03331   0.03552   0.03808   0.04145   0.04556

  Beta  occ. eigenvalues -- -482.85767-482.85695 -62.51033 -62.50961 -56.33084
  Beta  occ. eigenvalues --  -56.33013 -56.32695 -56.32643 -56.32623 -56.32570
  Beta  occ. eigenvalues --  -19.15573 -19.15360 -10.30865 -10.30425 -10.27647
  Beta  occ. eigenvalues --  -10.27483 -10.23017 -10.21375 -10.20995 -10.16565
  Beta  occ. eigenvalues --  -10.16359 -10.16358  -8.72003  -8.71931  -6.55191
  Beta  occ. eigenvalues --   -6.55121  -6.53887  -6.53816  -6.53735  -6.53661
  Beta  occ. eigenvalues --   -2.66281  -2.66210  -2.65932  -2.65861  -2.65816
  Beta  occ. eigenvalues --   -2.65744  -2.64778  -2.64775  -2.64704  -2.64702
  Beta  occ. eigenvalues --   -1.09297  -1.08786  -0.90286  -0.86233  -0.82589
  Beta  occ. eigenvalues --   -0.81014  -0.75581  -0.71453  -0.69395  -0.69372
  Beta  occ. eigenvalues --   -0.63818  -0.61966  -0.56224  -0.54820  -0.50912
  Beta  occ. eigenvalues --   -0.48874  -0.47400  -0.47383  -0.45386  -0.45047
  Beta  occ. eigenvalues --   -0.44827  -0.44017  -0.43473  -0.41383  -0.39677
  Beta  occ. eigenvalues --   -0.38806  -0.37852  -0.37042  -0.36689  -0.34823
  Beta  occ. eigenvalues --   -0.34487  -0.32921  -0.32833  -0.30856  -0.30489
  Beta  occ. eigenvalues --   -0.30244  -0.28793  -0.27695
  Beta virt. eigenvalues --   -0.14639  -0.05247  -0.04312  -0.01695  -0.00819
  Beta virt. eigenvalues --   -0.00365   0.00604   0.01272   0.01796   0.02757
  Beta virt. eigenvalues --    0.03331   0.03552   0.03808   0.04145   0.04556

 Mulliken charges and spin densities:
               1          2
     1  C   -0.689691  -0.000000
     2  C    0.556284   0.000000
     3  C   -0.476472  -0.000000
     4  C   -0.689714  -0.000000
     5  C    1.366085  -0.000000
     6  C   -0.501285   0.000000
     7  C   -0.795274  -0.000000
     8  O   -0.218817  -0.000000
     9  C    0.916940  -0.000000
    10  C   -0.343871   0.000000
    11  Br  -0.026363   0.000000
    12  C   -0.642983  -0.000000
    13  O   -0.167528  -0.000000
    14  Br  -0.012801  -0.000000
    15  H    0.170580   0.000000
    16  H    0.150624  -0.000000
    17  H    0.178521   0.000000
    18  H    0.144679   0.000000
    19  H    0.184884  -0.000000
    20  H    0.144704   0.000000
    21  H    0.150621   0.000000
    22  H    0.170578   0.000000
    23  H    0.178511  -0.000000
    24  H    0.251788  -0.000000
 Sum of Mulliken charges =  -0.00000   0.00000

 Dipole moment (field-independent basis, Debye):
    X=             -3.1785    Y=             -0.0131    Z=             -0.0003  Tot=              3.1785
 Quadrupole moment (field-independent basis, Debye-Ang):
   XX=            -96.5749   YY=           -123.1031   ZZ=           -107.1404
   XY=             -8.9931   XZ=              0.0009   YZ=              0.0021

 Normal termination of Gaussian 16 at Sun Jan 21 06:53:28 2024.
