 Q-Chem 5.4, Q-Chem, Inc., Pleasanton, CA (2021)
 Q-Chem 5.4.0 for Intel X86 EM64T Linux

User input:
--------------------------------------------------------------
$molecule
0 1
O                  2.4073240000      2.9037480000     -1.1305460000
N                  2.6526400000      2.3270390000     -0.0858820000
O                  3.1727050000      2.8130490000      0.9042640000
C                  2.3928340000      0.8625900000     -0.0543920000
C                  3.5170620000      0.0551470000     -0.1369560000
C                  3.3590120000     -1.3285760000     -0.1876780000
C                  2.0868070000     -1.8840000000     -0.1545130000
C                  0.9613720000     -1.0623420000     -0.0555670000
C                 -0.3906650000     -1.7094070000     -0.0413350000
O                 -0.4985800000     -2.9221000000     -0.0982230000
C                 -1.5811470000     -0.8204410000      0.0241900000
C                 -2.8590610000     -1.3864570000     -0.0238420000
C                 -3.9836680000     -0.5727890000      0.0394590000
C                 -3.8418230000      0.8128880000      0.1583240000
C                 -2.5759370000      1.3834280000      0.2156020000
C                 -1.4389140000      0.5727620000      0.1441220000
C                 -0.0964990000      1.2131120000      0.2206660000
O                  0.0318090000      2.3964920000      0.4714800000
C                  1.0980290000      0.3372050000      0.0087410000
H                  4.5006460000      0.5073860000     -0.1695470000
H                  4.2325960000     -1.9655430000     -0.2572220000
H                  1.9372770000     -2.9551970000     -0.2013260000
H                 -2.9459560000     -2.4623750000     -0.1101100000
H                 -4.9727410000     -1.0142810000     -0.0020230000
H                 -4.7209530000      1.4449840000      0.2080010000
H                 -2.4441690000      2.4536760000      0.3143150000
$end

$rem
BASIS  =  6-311++G(d,p)
GUI  =  2
JOB_TYPE  =  SP
METHOD  =  B3LYP
SCF_CONVERGENCE  = 8
SOLVENT_METHOD = sm12
$end

$smx
solvent dimethylformamide
charges CM5
$end

--------------------------------------------------------------

             Standard Nuclear Orientation (Angstroms)
    I     Atom           X                Y                Z
 ----------------------------------------------------------------
    1      O       2.4073240000     2.9037480000    -1.1305460000
    2      N       2.6526400000     2.3270390000    -0.0858820000
    3      O       3.1727050000     2.8130490000     0.9042640000
    4      C       2.3928340000     0.8625900000    -0.0543920000
    5      C       3.5170620000     0.0551470000    -0.1369560000
    6      C       3.3590120000    -1.3285760000    -0.1876780000
    7      C       2.0868070000    -1.8840000000    -0.1545130000
    8      C       0.9613720000    -1.0623420000    -0.0555670000
    9      C      -0.3906650000    -1.7094070000    -0.0413350000
   10      O      -0.4985800000    -2.9221000000    -0.0982230000
   11      C      -1.5811470000    -0.8204410000     0.0241900000
   12      C      -2.8590610000    -1.3864570000    -0.0238420000
   13      C      -3.9836680000    -0.5727890000     0.0394590000
   14      C      -3.8418230000     0.8128880000     0.1583240000
   15      C      -2.5759370000     1.3834280000     0.2156020000
   16      C      -1.4389140000     0.5727620000     0.1441220000
   17      C      -0.0964990000     1.2131120000     0.2206660000
   18      O       0.0318090000     2.3964920000     0.4714800000
   19      C       1.0980290000     0.3372050000     0.0087410000
   20      H       4.5006460000     0.5073860000    -0.1695470000
   21      H       4.2325960000    -1.9655430000    -0.2572220000
   22      H       1.9372770000    -2.9551970000    -0.2013260000
   23      H      -2.9459560000    -2.4623750000    -0.1101100000
   24      H      -4.9727410000    -1.0142810000    -0.0020230000
   25      H      -4.7209530000     1.4449840000     0.2080010000
   26      H      -2.4441690000     2.4536760000     0.3143150000
 ----------------------------------------------------------------

   16    -893.4964540783      4.02e-09  Convergence criterion met
 Total energy in the final basis set =     -893.5229932239

                    Orbital Energies (a.u.)
 --------------------------------------------------------------

 Alpha MOs
 -- Occupied --
-19.1815 -19.1809 -19.1394 -19.1359 -14.5729 -10.2940 -10.2887 -10.2649
-10.2342 -10.2243 -10.2203 -10.2143 -10.2131 -10.2120 -10.2091 -10.2010
-10.2007 -10.2003 -10.1999  -1.2593  -1.0881  -1.0770  -1.0710  -0.9174
 -0.8919  -0.8345  -0.8204  -0.7824  -0.7818  -0.7298  -0.6971  -0.6720
 -0.6576  -0.6148  -0.5954  -0.5822  -0.5716  -0.5549  -0.5402  -0.5377
 -0.5093  -0.4982  -0.4940  -0.4874  -0.4664  -0.4622  -0.4548  -0.4538
 -0.4458  -0.4278  -0.4093  -0.4083  -0.4051  -0.3837  -0.3783  -0.3723
 -0.3402  -0.3359  -0.3306  -0.3006  -0.2955  -0.2872  -0.2836  -0.2829
 -0.2808

          Ground-State Mulliken Net Atomic Charges

     Atom                 Charge (a.u.)
  ----------------------------------------
      1 O                    -0.023365
      2 N                    -0.309807
      3 O                     0.007385
      4 C                    -1.300079
      5 C                     1.311365
      6 C                     0.918849
      7 C                     0.191685
      8 C                     0.998789
      9 C                    -1.218456
     10 O                    -0.237929
     11 C                     0.271632
     12 C                     0.283831
     13 C                     0.422905
     14 C                     0.440160
     15 C                    -0.075355
     16 C                    -0.761343
     17 C                    -2.131744
     18 O                    -0.266249
     19 C                    -0.501126
     20 H                     0.290856
     21 H                     0.423394
     22 H                     0.223022
     23 H                     0.201830
     24 H                     0.334791
     25 H                     0.321160
     26 H                     0.183799
  ----------------------------------------
  Sum of atomic charges =     0.000000

                    Cartesian Multipole Moments
 -----------------------------------------------------------------
    Charge (ESU x 10^10)
                 0.0000
    Dipole Moment (Debye)
         X      -1.9862      Y      -4.6562      Z      -0.4345
       Tot       5.0808
    Quadrupole Moments (Debye-Ang)
        XX     -76.2576     XY     -18.5394     YY    -128.7978
        XZ      -2.6265     YZ      -0.3648     ZZ    -112.7517

 Total job time:  621.40s(wall), 4650.85s(cpu)
        *  Thank you very much for using Q-Chem.  Have a nice day.  *
