 Q-Chem 5.4, Q-Chem, Inc., Pleasanton, CA (2021)
 Q-Chem 5.4.0 for Intel X86 EM64T Linux

User input:
--------------------------------------------------------------
$molecule
-1 2
N                  3.5762560000     -1.2690170000      0.1384910000
C                  2.8831880000     -0.0904570000     -0.0825520000
C                  3.5807600000      1.0947900000     -0.3264540000
C                  2.9009340000      2.3099000000     -0.4873800000
C                  1.5234060000      2.3603070000     -0.4030820000
C                  0.7799930000      1.1843360000     -0.1711920000
C                 -0.6786910000      1.3010390000     -0.1048050000
O                 -1.2269810000      2.4372670000     -0.2565030000
C                 -1.4416950000      0.0827450000      0.1214030000
C                 -2.8760470000      0.1067490000      0.2117370000
N                 -3.5569920000      1.3127560000      0.2080370000
C                 -3.5796570000     -1.0922320000      0.3463540000
C                 -2.9047730000     -2.3186100000      0.4184140000
C                 -1.5257140000     -2.3655270000      0.3621490000
C                 -0.7776730000     -1.1790510000      0.2132680000
C                  0.6810430000     -1.2957260000      0.1475110000
O                  1.2251250000     -2.4415480000      0.2228880000
C                  1.4473990000     -0.0699260000     -0.0194540000
H                  2.9773710000     -2.0970940000      0.1121790000
H                  4.4950790000     -1.3284050000     -0.2716110000
H                  4.6664980000      1.0639280000     -0.3705340000
H                  3.4691310000      3.2173530000     -0.6722440000
H                  0.9768880000      3.2875440000     -0.5144390000
H                 -4.5156430000      1.2813970000     -0.1017220000
H                 -2.9759120000      2.1002960000     -0.0870890000
H                 -4.6640770000     -1.0583670000      0.4143670000
H                 -3.4773390000     -3.2355850000      0.5271290000
H                 -0.9818800000     -3.2988610000      0.4251340000
$end

$rem
BASIS  =  6-311++G(d,p)
GUI  =  2
JOB_TYPE  =  SP
METHOD  =  B3LYP
SCF_CONVERGENCE  = 8
SOLVENT_METHOD = sm12
$end

$smx
solvent dimethylformamide
charges CM5
$end

--------------------------------------------------------------

             Standard Nuclear Orientation (Angstroms)
    I     Atom           X                Y                Z
 ----------------------------------------------------------------
    1      N       3.5762560000    -1.2690170000     0.1384910000
    2      C       2.8831880000    -0.0904570000    -0.0825520000
    3      C       3.5807600000     1.0947900000    -0.3264540000
    4      C       2.9009340000     2.3099000000    -0.4873800000
    5      C       1.5234060000     2.3603070000    -0.4030820000
    6      C       0.7799930000     1.1843360000    -0.1711920000
    7      C      -0.6786910000     1.3010390000    -0.1048050000
    8      O      -1.2269810000     2.4372670000    -0.2565030000
    9      C      -1.4416950000     0.0827450000     0.1214030000
   10      C      -2.8760470000     0.1067490000     0.2117370000
   11      N      -3.5569920000     1.3127560000     0.2080370000
   12      C      -3.5796570000    -1.0922320000     0.3463540000
   13      C      -2.9047730000    -2.3186100000     0.4184140000
   14      C      -1.5257140000    -2.3655270000     0.3621490000
   15      C      -0.7776730000    -1.1790510000     0.2132680000
   16      C       0.6810430000    -1.2957260000     0.1475110000
   17      O       1.2251250000    -2.4415480000     0.2228880000
   18      C       1.4473990000    -0.0699260000    -0.0194540000
   19      H       2.9773710000    -2.0970940000     0.1121790000
   20      H       4.4950790000    -1.3284050000    -0.2716110000
   21      H       4.6664980000     1.0639280000    -0.3705340000
   22      H       3.4691310000     3.2173530000    -0.6722440000
   23      H       0.9768880000     3.2875440000    -0.5144390000
   24      H      -4.5156430000     1.2813970000    -0.1017220000
   25      H      -2.9759120000     2.1002960000    -0.0870890000
   26      H      -4.6640770000    -1.0583670000     0.4143670000
   27      H      -3.4773390000    -3.2355850000     0.5271290000
   28      H      -0.9818800000    -3.2988610000     0.4251340000
 ----------------------------------------------------------------

   16    -799.7751497934      9.38e-09  Convergence criterion met
 Total energy in the final basis set =     -799.8659621795

                    Orbital Energies (a.u.)
 --------------------------------------------------------------

 Alpha MOs
 -- Occupied --
-19.0797 -19.0797 -14.3109 -14.3109 -10.2302 -10.2302 -10.2236 -10.2236
-10.1796 -10.1796 -10.1788 -10.1788 -10.1781 -10.1781 -10.1713 -10.1713
-10.1647 -10.1647  -1.0068  -1.0046  -0.9188  -0.9176  -0.8522  -0.8372
 -0.7890  -0.7456  -0.7393  -0.7306  -0.6703  -0.6424  -0.6325  -0.5888
 -0.5639  -0.5607  -0.5329  -0.5113  -0.5026  -0.4857  -0.4765  -0.4626
 -0.4577  -0.4408  -0.4405  -0.4301  -0.4191  -0.4072  -0.3985  -0.3938
 -0.3795  -0.3788  -0.3664  -0.3621  -0.3555  -0.3477  -0.3172  -0.3100
 -0.2723  -0.2559  -0.2505  -0.2409  -0.2208  -0.2135  -0.1419

 Beta MOs
 -- Occupied --
-19.0745 -19.0745 -14.3107 -14.3107 -10.2285 -10.2285 -10.2236 -10.2236
-10.1792 -10.1791 -10.1787 -10.1786 -10.1772 -10.1772 -10.1703 -10.1703
-10.1644 -10.1644  -0.9979  -0.9955  -0.9180  -0.9166  -0.8496  -0.8359
 -0.7853  -0.7437  -0.7363  -0.7290  -0.6636  -0.6404  -0.6304  -0.5880
 -0.5619  -0.5588  -0.5316  -0.5106  -0.5018  -0.4837  -0.4738  -0.4618
 -0.4568  -0.4397  -0.4394  -0.4202  -0.4168  -0.4031  -0.3963  -0.3892
 -0.3777  -0.3658  -0.3609  -0.3575  -0.3505  -0.3439  -0.3109  -0.3033
 -0.2526  -0.2507  -0.2458  -0.2363  -0.2111  -0.2084

          Ground-State Mulliken Net Atomic Charges

     Atom                 Charge (a.u.)    Spin (a.u.)
  --------------------------------------------------------
      1 N                    -0.239887       0.008870
      2 C                    -0.209747       0.018323
      3 C                     1.790501       0.084632
      4 C                     0.834546       0.039574
      5 C                    -0.337864       0.056392
      6 C                    -0.411443       0.052532
      7 C                    -2.207665       0.068023
      8 O                    -0.270917       0.194040
      9 C                    -0.936355      -0.007105
     10 C                    -0.208463       0.017811
     11 N                    -0.240404       0.008891
     12 C                     1.787870       0.084933
     13 C                     0.833982       0.039545
     14 C                    -0.337622       0.056317
     15 C                    -0.412688       0.052737
     16 C                    -2.207558       0.067945
     17 O                    -0.271378       0.194019
     18 C                    -0.937621      -0.007329
     19 H                     0.284556      -0.002768
     20 H                     0.389907      -0.000827
     21 H                     0.311122      -0.005938
     22 H                     0.355532      -0.002895
     23 H                     0.150545      -0.002655
     24 H                     0.389771      -0.000831
     25 H                     0.284442      -0.002753
     26 H                     0.310986      -0.005938
     27 H                     0.355385      -0.002901
     28 H                     0.150466      -0.002648
  --------------------------------------------------------
  Sum of atomic charges =    -1.000000

                    Cartesian Multipole Moments
 -----------------------------------------------------------------
    Charge (ESU x 10^10)
                -4.8032
    Dipole Moment (Debye)
         X      -0.0797      Y      -0.1799      Z      -1.4325
       Tot       1.4459
    Quadrupole Moments (Debye-Ang)
        XX    -106.7492     XY       3.4883     YY    -131.2254
        XZ      -0.9156     YZ       1.8103     ZZ    -115.5426

 Total job time:  716.13s(wall), 5390.82s(cpu)
        *  Thank you very much for using Q-Chem.  Have a nice day.  *
