 Gaussian 16, Revision A.03,
 Gaussian 16:  ES64L-G16RevA.03 25-Dec-2016

 ----------------------------------------------------------------
 #P UB3LYP/6-311++G(d,p) SCRF=(PCM,Solvent=n,n-DiMethylFormamide)
 ----------------------------------------------------------------

 ------------------
 Quinone PCM in DMF
 ------------------
 Symbolic Z-matrix:
 Charge =  0 Multiplicity = 1

                         Standard orientation:
 ---------------------------------------------------------------------
 Center     Atomic      Atomic             Coordinates (Angstroms)
 Number     Number       Type             X           Y           Z
 ---------------------------------------------------------------------
      1          9           0       -2.385530    1.373366    0.000002
      2          6           0       -1.264655    0.669872    0.000006
      3          6           0       -1.264303   -0.670730    0.000005
      4          9           0       -2.384700   -1.374891   -0.000006
      5          6           0        0.000507   -1.459562    0.000005
      6          8           0        0.001023   -2.667110    0.000003
      7          6           0        1.264676   -0.669806   -0.000007
      8          6           0        1.264302    0.670686   -0.000005
      9          9           0        2.384677    1.374886    0.000007
     10          6           0       -0.000500    1.459599   -0.000005
     11          8           0       -0.000984    2.667256   -0.000003
     12          9           0        2.385499   -1.373531   -0.000002
 ---------------------------------------------------------------------

 SCF Done:  E(UB3LYP) =  -778.609518576     A.U. after   12 cycles

 The electronic state is 1-A.
 Alpha  occ. eigenvalues --  -24.74831 -24.74830 -24.74828 -24.74827 -19.17917
 Alpha  occ. eigenvalues --  -19.17916 -10.33261 -10.33259 -10.32568 -10.32566
 Alpha  occ. eigenvalues --  -10.32489 -10.32488  -1.30065  -1.29979  -1.28749
 Alpha  occ. eigenvalues --   -1.28674  -1.11358  -1.11217  -0.90730  -0.82665
 Alpha  occ. eigenvalues --   -0.75842  -0.69359  -0.68452  -0.63136  -0.61217
 Alpha  occ. eigenvalues --   -0.60805  -0.59297  -0.55814  -0.55639  -0.53716
 Alpha  occ. eigenvalues --   -0.51575  -0.51504  -0.50642  -0.50263  -0.48016
 Alpha  occ. eigenvalues --   -0.45797  -0.45527  -0.44804  -0.44518  -0.44476
 Alpha  occ. eigenvalues --   -0.33072  -0.33015  -0.32925  -0.30340
 Alpha virt. eigenvalues --   -0.16352  -0.03694  -0.03504  -0.02946   0.00827
 Alpha virt. eigenvalues --    0.02231   0.04971   0.05052   0.05125   0.05997
 Alpha virt. eigenvalues --    0.07795   0.07849   0.08435   0.08576   0.09136

  Beta  occ. eigenvalues --  -24.74831 -24.74830 -24.74828 -24.74827 -19.17917
  Beta  occ. eigenvalues --  -19.17916 -10.33261 -10.33259 -10.32568 -10.32566
  Beta  occ. eigenvalues --  -10.32489 -10.32488  -1.30065  -1.29979  -1.28749
  Beta  occ. eigenvalues --   -1.28674  -1.11358  -1.11217  -0.90730  -0.82665
  Beta  occ. eigenvalues --   -0.75842  -0.69359  -0.68452  -0.63136  -0.61217
  Beta  occ. eigenvalues --   -0.60805  -0.59297  -0.55814  -0.55639  -0.53716
  Beta  occ. eigenvalues --   -0.51575  -0.51504  -0.50642  -0.50263  -0.48016
  Beta  occ. eigenvalues --   -0.45797  -0.45527  -0.44804  -0.44518  -0.44476
  Beta  occ. eigenvalues --   -0.33072  -0.33015  -0.32925  -0.30340
  Beta virt. eigenvalues --   -0.16352  -0.03694  -0.03504  -0.02946   0.00827
  Beta virt. eigenvalues --    0.02231   0.04971   0.05052   0.05125   0.05997
  Beta virt. eigenvalues --    0.07795   0.07849   0.08435   0.08576   0.09136

 Mulliken charges and spin densities:
               1          2
     1  F   -0.177690  -0.000000
     2  C    0.224303   0.000000
     3  C    0.224202  -0.000000
     4  F   -0.177685   0.000000
     5  C    0.176097   0.000000
     6  O   -0.269027   0.000000
     7  C    0.223971  -0.000000
     8  C    0.224569   0.000000
     9  F   -0.177705   0.000000
    10  C    0.175765  -0.000000
    11  O   -0.269061  -0.000000
    12  F   -0.177739  -0.000000
 Sum of Mulliken charges =  -0.00000  -0.00000

 Dipole moment (field-independent basis, Debye):
    X=             -0.0006    Y=             -0.0004    Z=             -0.0000  Tot=              0.0008
 Quadrupole moment (field-independent basis, Debye-Ang):
   XX=            -70.2629   YY=            -83.5622   ZZ=            -59.7190
   XY=              0.0082   XZ=             -0.0000   YZ=             -0.0000

 Normal termination of Gaussian 16 at Sun Jan 21 06:51:19 2024.
