 Q-Chem 5.4, Q-Chem, Inc., Pleasanton, CA (2021)
 Q-Chem 5.4.0 for Intel X86 EM64T Linux

User input:
--------------------------------------------------------------
$molecule
-2 1
C                 -0.3928060000      1.1227740000     -0.3445440000
C                 -1.4317680000      0.1339260000     -0.5592240000
C                 -1.2600400000     -1.2154510000     -0.3567180000
C                 -0.0306030000     -1.8041760000      0.1124840000
C                  1.0075380000     -0.8685700000      0.3687190000
C                  0.8476850000      0.5573400000      0.1881330000
O                 -0.6306080000      2.3581630000     -0.5568120000
O                  0.0985550000     -3.0953980000      0.2411780000
C                  1.8755250000      1.4843380000      0.6558190000
C                  2.5288810000      1.2095250000      2.0338880000
O                  2.2265930000      2.5402580000      0.1086980000
H                 -2.3813780000      0.5253300000     -0.9258120000
H                 -2.0748200000     -1.9105070000     -0.5692600000
H                  2.1249110000      0.3378150000      2.5482620000
H                  2.3483630000      2.1053670000      2.6398960000
H                  3.6176260000      1.0985380000      1.9343760000
C                  2.3534740000     -1.4891420000      0.6721200000
H                  2.4148930000     -2.4463430000      0.1403610000
H                  2.5038410000     -1.7393270000      1.7386790000
H                  3.1875280000     -0.8462210000      0.3688370000
$end

$rem
BASIS  =  6-311++G(d,p)
GUI  =  2
JOB_TYPE  =  SP
METHOD  =  B3LYP
SCF_CONVERGENCE  = 8
SOLVENT_METHOD = sm12
$end

$smx
solvent dimethylformamide
charges CM5
$end

--------------------------------------------------------------

             Standard Nuclear Orientation (Angstroms)
    I     Atom           X                Y                Z
 ----------------------------------------------------------------
    1      C      -0.3928060000     1.1227740000    -0.3445440000
    2      C      -1.4317680000     0.1339260000    -0.5592240000
    3      C      -1.2600400000    -1.2154510000    -0.3567180000
    4      C      -0.0306030000    -1.8041760000     0.1124840000
    5      C       1.0075380000    -0.8685700000     0.3687190000
    6      C       0.8476850000     0.5573400000     0.1881330000
    7      O      -0.6306080000     2.3581630000    -0.5568120000
    8      O       0.0985550000    -3.0953980000     0.2411780000
    9      C       1.8755250000     1.4843380000     0.6558190000
   10      C       2.5288810000     1.2095250000     2.0338880000
   11      O       2.2265930000     2.5402580000     0.1086980000
   12      H      -2.3813780000     0.5253300000    -0.9258120000
   13      H      -2.0748200000    -1.9105070000    -0.5692600000
   14      H       2.1249110000     0.3378150000     2.5482620000
   15      H       2.3483630000     2.1053670000     2.6398960000
   16      H       3.6176260000     1.0985380000     1.9343760000
   17      C       2.3534740000    -1.4891420000     0.6721200000
   18      H       2.4148930000    -2.4463430000     0.1403610000
   19      H       2.5038410000    -1.7393270000     1.7386790000
   20      H       3.1875280000    -0.8462210000     0.3688370000
 ----------------------------------------------------------------

   18    -573.5550246012      9.54e-09  Convergence criterion met
 Total energy in the final basis set =     -573.8458922127

                    Orbital Energies (a.u.)
 --------------------------------------------------------------

 Alpha MOs
 -- Occupied --
-19.0858 -19.0327 -19.0249 -10.2384 -10.2001 -10.1836 -10.1714 -10.1679
-10.1575 -10.1525 -10.1499 -10.1480  -1.0098  -0.9510  -0.9341  -0.8043
 -0.7609  -0.7269  -0.6949  -0.6505  -0.6018  -0.5465  -0.5045  -0.4694
 -0.4529  -0.4427  -0.4332  -0.4180  -0.4055  -0.4031  -0.3885  -0.3799
 -0.3657  -0.3631  -0.3434  -0.3389  -0.3270  -0.3179  -0.2428  -0.2393
 -0.2280  -0.2028  -0.1971  -0.1341

          Ground-State Mulliken Net Atomic Charges

     Atom                 Charge (a.u.)
  ----------------------------------------
      1 C                    -1.785547
      2 C                    -0.091653
      3 C                    -0.054903
      4 C                    -1.442944
      5 C                    -0.182908
      6 C                    -0.518040
      7 O                    -0.318775
      8 O                    -0.388914
      9 C                     0.981054
     10 C                     0.450377
     11 O                    -0.179916
     12 H                     0.115509
     13 H                     0.118123
     14 H                     0.146280
     15 H                     0.284145
     16 H                     0.235623
     17 C                     0.161365
     18 H                     0.136375
     19 H                     0.176046
     20 H                     0.158703
  ----------------------------------------
  Sum of atomic charges =    -2.000000

                    Cartesian Multipole Moments
 -----------------------------------------------------------------
    Charge (ESU x 10^10)
                -9.6064
    Dipole Moment (Debye)
         X      -2.2995      Y       0.0182      Z       0.9076
       Tot       2.4722
    Quadrupole Moments (Debye-Ang)
        XX     -97.8910     XY      -4.7398     YY    -148.5026
        XZ      -3.5879     YZ       7.8205     ZZ     -83.4868

 Total job time:  281.14s(wall), 2105.08s(cpu)
        *  Thank you very much for using Q-Chem.  Have a nice day.  *
