 Gaussian 16, Revision A.03,
 Gaussian 16:  ES64L-G16RevA.03 25-Dec-2016

 ----------------------------------------------------------------
 #P UB3LYP/6-311++G(d,p) SCRF=(PCM,Solvent=n,n-DiMethylFormamide)
 ----------------------------------------------------------------

 ------------------
 Radical PCM in DMF
 ------------------
 Symbolic Z-matrix:
 Charge = -1 Multiplicity = 2

                         Standard orientation:
 ---------------------------------------------------------------------
 Center     Atomic      Atomic             Coordinates (Angstroms)
 Number     Number       Type             X           Y           Z
 ---------------------------------------------------------------------
      1          6           0       -0.615851   -1.318435    0.005993
      2          6           0        0.803623   -1.159519    0.089478
      3          6           0        1.405432    0.084109    0.105389
      4          6           0        0.615850    1.318433   -0.006066
      5          6           0       -0.803629    1.159522   -0.089493
      6          6           0       -1.405436   -0.084106   -0.105400
      7          8           0       -1.210978   -2.442142    0.037649
      8          8           0        1.210975    2.442139   -0.037846
      9          7           0       -2.772529   -0.301494   -0.240172
     10          6           0       -3.744930    0.684791    0.173276
     11          6           0       -5.166841    0.156698   -0.005899
     12          7           0        2.772531    0.301494    0.240257
     13          6           0        3.744934   -0.684720   -0.173383
     14          6           0        5.166850   -0.156770    0.006172
     15          1           0        1.385639   -2.071900    0.169737
     16          1           0       -1.385649    2.071903   -0.169710
     17          1           0       -2.978337   -1.273089   -0.017933
     18          1           0       -3.618628    1.590116   -0.432038
     19          1           0       -3.591914    0.995653    1.222895
     20          1           0       -5.352439   -0.107879   -1.050835
     21          1           0       -5.901506    0.908642    0.298210
     22          1           0       -5.332139   -0.738810    0.602487
     23          1           0        2.978314    1.273105    0.018042
     24          1           0        3.592055   -0.995235   -1.223125
     25          1           0        3.618488   -1.590227    0.431622
     26          1           0        5.332274    0.738955   -0.601864
     27          1           0        5.901514   -0.908640   -0.298124
     28          1           0        5.352326    0.107416    1.051227
 ---------------------------------------------------------------------

 SCF Done:  E(UB3LYP) =  -649.774057039     A.U. after   18 cycles

 The electronic state is 2-A.
 Alpha  occ. eigenvalues --  -19.06608 -19.06608 -14.31117 -14.31117 -10.21112
 Alpha  occ. eigenvalues --  -10.21111 -10.19670 -10.19670 -10.19491 -10.19490
 Alpha  occ. eigenvalues --  -10.16046 -10.16046 -10.14219 -10.14218  -0.99225
 Alpha  occ. eigenvalues --   -0.98857  -0.92008  -0.91998  -0.80367  -0.76141
 Alpha  occ. eigenvalues --   -0.74032  -0.70626  -0.66431  -0.63497  -0.61376
 Alpha  occ. eigenvalues --   -0.57014  -0.56677  -0.50668  -0.48572  -0.48365
 Alpha  occ. eigenvalues --   -0.46942  -0.46045  -0.44724  -0.42578  -0.41405
 Alpha  occ. eigenvalues --   -0.40873  -0.40392  -0.39725  -0.38206  -0.37572
 Alpha  occ. eigenvalues --   -0.37532  -0.36498  -0.36321  -0.35912  -0.35518
 Alpha  occ. eigenvalues --   -0.34258  -0.30228  -0.29240  -0.24159  -0.23450
 Alpha  occ. eigenvalues --   -0.23228  -0.19784  -0.13861
 Alpha virt. eigenvalues --   -0.00388   0.00029   0.01200   0.01286   0.01700
 Alpha virt. eigenvalues --    0.02318   0.02572   0.02969   0.03635   0.04298
 Alpha virt. eigenvalues --    0.04592   0.04779   0.05722   0.06015   0.06342

  Beta  occ. eigenvalues --  -19.06089 -19.06088 -14.30967 -14.30967 -10.20891
  Beta  occ. eigenvalues --  -10.20890 -10.19671 -10.19671 -10.19260 -10.19259
  Beta  occ. eigenvalues --  -10.16046 -10.16046 -10.14291 -10.14290  -0.98339
  Beta  occ. eigenvalues --   -0.97940  -0.91667  -0.91610  -0.79880  -0.75997
  Beta  occ. eigenvalues --   -0.73958  -0.70490  -0.65645  -0.63394  -0.61137
  Beta  occ. eigenvalues --   -0.56654  -0.56406  -0.50449  -0.48397  -0.48065
  Beta  occ. eigenvalues --   -0.46764  -0.45851  -0.44575  -0.42393  -0.41195
  Beta  occ. eigenvalues --   -0.40219  -0.39625  -0.39239  -0.37604  -0.37411
  Beta  occ. eigenvalues --   -0.37354  -0.36143  -0.36090  -0.35362  -0.34229
  Beta  occ. eigenvalues --   -0.33848  -0.29450  -0.27378  -0.23669  -0.22946
  Beta  occ. eigenvalues --   -0.21583  -0.19008
  Beta virt. eigenvalues --   -0.07157  -0.00364   0.00076   0.01221   0.01710
  Beta virt. eigenvalues --    0.01949   0.02341   0.02982   0.03029   0.03756
  Beta virt. eigenvalues --    0.04597   0.04818   0.05753   0.05769   0.06368

 Mulliken charges and spin densities:
               1          2
     1  C   -0.636290   0.127505
     2  C    0.506474  -0.084166
     3  C   -0.218794   0.204005
     4  C   -0.635812   0.127520
     5  C    0.506494  -0.084172
     6  C   -0.218882   0.203989
     7  O   -0.550436   0.188537
     8  O   -0.550440   0.188537
     9  N   -0.054324   0.061912
    10  C   -0.131963  -0.010186
    11  C   -0.638677   0.005755
    12  N   -0.054308   0.061907
    13  C   -0.132062  -0.010190
    14  C   -0.638536   0.005758
    15  H    0.182142  -0.000060
    16  H    0.182152  -0.000060
    17  H    0.287640  -0.003522
    18  H    0.143842   0.000808
    19  H    0.163698   0.008979
    20  H    0.150375   0.001622
    21  H    0.150790  -0.000379
    22  H    0.145310  -0.000801
    23  H    0.287620  -0.003522
    24  H    0.163693   0.008980
    25  H    0.143831   0.000806
    26  H    0.145304  -0.000802
    27  H    0.150785  -0.000380
    28  H    0.150373   0.001622
 Sum of Mulliken charges =  -1.00000   1.00000

 Dipole moment (field-independent basis, Debye):
    X=             -0.0005    Y=              0.0000    Z=              0.0004  Tot=              0.0006
 Quadrupole moment (field-independent basis, Debye-Ang):
   XX=            -80.1031   YY=           -121.1650   ZZ=            -91.9920
   XY=            -17.1690   XZ=             -4.5935   YZ=             -0.7411

 Normal termination of Gaussian 16 at Wed Jan 24 22:52:07 2024.
