 Q-Chem 5.4, Q-Chem, Inc., Pleasanton, CA (2021)
 Q-Chem 5.4.0 for Intel X86 EM64T Linux

User input:
--------------------------------------------------------------
$molecule
0 1
C                 -0.9917010000      3.9953130000     -0.1109490000
C                 -2.2401980000      3.3829410000     -0.1666850000
C                 -2.3345490000      1.9905560000     -0.1894270000
C                  0.1650690000      3.2132790000     -0.0727280000
C                  0.0708090000      1.8130790000     -0.0914250000
C                 -1.1827150000      1.2070180000     -0.1551100000
C                  1.4929360000      3.8661850000     -0.0358760000
C                  2.7101660000      2.9917400000      0.0312190000
C                  2.5981350000      1.6298360000      0.0939430000
C                  1.3002000000      0.9565370000     -0.0400790000
O                  1.6371990000      5.0790620000     -0.0779240000
O                  1.2175410000     -0.2612970000     -0.1083970000
N                  3.8826200000      3.6825560000      0.0736490000
S                  3.9992890000      0.5417700000      0.2389740000
H                 -0.8936940000      5.0738160000     -0.0994170000
H                 -3.1385520000      3.9887210000     -0.1948310000
H                 -3.3076770000      1.5148540000     -0.2342330000
H                 -1.2348850000      0.1255480000     -0.1736920000
H                  3.8015290000      4.6767520000     -0.0966030000
H                  4.7279740000      3.2271230000     -0.2351610000
H                  4.7456500000      1.3917720000      0.9783310000
$end
$rem
MAX_SCF_CYCLES=200
BASIS  =  6-311++G(d,p)
GUI  =  2
JOB_TYPE  =  SP
METHOD  =  B3LYP
SOLVENT_METHOD = PCM
$end
$pcm
theory = CPCM
$end
$solvent
dielectric 37.219
opticaldielectric 1.43
$end

--------------------------------------------------------------

             Standard Nuclear Orientation (Angstroms)
    I     Atom           X                Y                Z
 ----------------------------------------------------------------
    1      C      -0.9917010000     3.9953130000    -0.1109490000
    2      C      -2.2401980000     3.3829410000    -0.1666850000
    3      C      -2.3345490000     1.9905560000    -0.1894270000
    4      C       0.1650690000     3.2132790000    -0.0727280000
    5      C       0.0708090000     1.8130790000    -0.0914250000
    6      C      -1.1827150000     1.2070180000    -0.1551100000
    7      C       1.4929360000     3.8661850000    -0.0358760000
    8      C       2.7101660000     2.9917400000     0.0312190000
    9      C       2.5981350000     1.6298360000     0.0939430000
   10      C       1.3002000000     0.9565370000    -0.0400790000
   11      O       1.6371990000     5.0790620000    -0.0779240000
   12      O       1.2175410000    -0.2612970000    -0.1083970000
   13      N       3.8826200000     3.6825560000     0.0736490000
   14      S       3.9992890000     0.5417700000     0.2389740000
   15      H      -0.8936940000     5.0738160000    -0.0994170000
   16      H      -3.1385520000     3.9887210000    -0.1948310000
   17      H      -3.3076770000     1.5148540000    -0.2342330000
   18      H      -1.2348850000     0.1255480000    -0.1736920000
   19      H       3.8015290000     4.6767520000    -0.0966030000
   20      H       4.7279740000     3.2271230000    -0.2351610000
   21      H       4.7456500000     1.3917720000     0.9783310000
 ----------------------------------------------------------------

    9    -988.8822402541      3.90e-06  Convergence criterion met
 Total energy in the final basis set =     -988.8822402541

                    Orbital Energies (a.u.)
 --------------------------------------------------------------

 Alpha MOs
 -- Occupied --
-88.8684 -19.1439 -19.1266 -14.3475 -10.2929 -10.2811 -10.2540 -10.2227
-10.2090 -10.2085 -10.1986 -10.1972 -10.1957 -10.1954  -7.9549  -5.9185
 -5.9150  -5.9090  -1.0793  -1.0629  -0.9510  -0.8901  -0.8343  -0.7913
 -0.7786  -0.7370  -0.6899  -0.6459  -0.6317  -0.5955  -0.5762  -0.5429
 -0.5158  -0.5037  -0.4890  -0.4676  -0.4638  -0.4541  -0.4509  -0.4427
 -0.4295  -0.4234  -0.3935  -0.3817  -0.3745  -0.3679  -0.3580  -0.3015
 -0.2943  -0.2857  -0.2802  -0.2783  -0.2281

          Ground-State Mulliken Net Atomic Charges

     Atom                 Charge (a.u.)
  ----------------------------------------
      1 C                     0.122172
      2 C                    -0.363793
      3 C                    -0.374156
      4 C                     0.335714
      5 C                     0.595381
      6 C                     0.177076
      7 C                    -1.111857
      8 C                     0.012938
      9 C                     1.891814
     10 C                    -1.420025
     11 O                    -0.300478
     12 O                    -0.291086
     13 N                    -0.333532
     14 S                    -0.516142
     15 H                     0.194667
     16 H                     0.227927
     17 H                     0.229064
     18 H                     0.191781
     19 H                     0.323434
     20 H                     0.298767
     21 H                     0.110336
  ----------------------------------------
  Sum of atomic charges =     0.000000

                    Cartesian Multipole Moments
 -----------------------------------------------------------------
    Charge (ESU x 10^10)
                 0.0000
    Dipole Moment (Debye)
         X      -0.1277      Y       3.8807      Z      -0.1323
       Tot       3.8850
    Quadrupole Moments (Debye-Ang)
        XX     -58.4553     XY       9.5094     YY     -87.3739
        XZ       0.9930     YZ      -1.5013     ZZ     -90.3091

 Total job time:  40.72s(wall), 199.12s(cpu)
        *  Thank you very much for using Q-Chem.  Have a nice day.  *
