 Q-Chem 5.4, Q-Chem, Inc., Pleasanton, CA (2021)
 Q-Chem 5.4.0 for Intel X86 EM64T Linux

User input:
--------------------------------------------------------------
$molecule
-1 2
O                 -2.7026600000     -0.1858320000      0.4473600000
C                 -1.3669860000     -0.0281180000      0.2342650000
C                 -0.7430520000      1.1934070000      0.2743820000
C                  0.6638330000      1.2807260000      0.0403170000
O                  1.3604770000      2.3479550000      0.0489560000
C                  1.3670170000      0.0280460000     -0.2343010000
C                  0.7431280000     -1.1934440000     -0.2743020000
C                 -0.6638430000     -1.2807160000     -0.0404410000
O                 -1.3603870000     -2.3480550000     -0.0493490000
O                  2.7026770000      0.1859680000     -0.4473020000
H                 -2.8058790000     -1.1593370000      0.3472020000
H                 -1.2989630000      2.1010280000      0.4814670000
H                  1.2989100000     -2.1011260000     -0.4814420000
H                  2.8057280000      1.1594990000     -0.3468120000
$end
$rem
MAX_SCF_CYCLES=200
BASIS  =  6-311++G(d,p)
GUI  =  2
JOB_TYPE  =  SP
METHOD  =  B3LYP
SOLVENT_METHOD = PCM
$end
$pcm
theory = CPCM
$end
$solvent
dielectric 37.219
opticaldielectric 1.43
$end

--------------------------------------------------------------

             Standard Nuclear Orientation (Angstroms)
    I     Atom           X                Y                Z
 ----------------------------------------------------------------
    1      O      -2.7026600000    -0.1858320000     0.4473600000
    2      C      -1.3669860000    -0.0281180000     0.2342650000
    3      C      -0.7430520000     1.1934070000     0.2743820000
    4      C       0.6638330000     1.2807260000     0.0403170000
    5      O       1.3604770000     2.3479550000     0.0489560000
    6      C       1.3670170000     0.0280460000    -0.2343010000
    7      C       0.7431280000    -1.1934440000    -0.2743020000
    8      C      -0.6638430000    -1.2807160000    -0.0404410000
    9      O      -1.3603870000    -2.3480550000    -0.0493490000
   10      O       2.7026770000     0.1859680000    -0.4473020000
   11      H      -2.8058790000    -1.1593370000     0.3472020000
   12      H      -1.2989630000     2.1010280000     0.4814670000
   13      H       1.2989100000    -2.1011260000    -0.4814420000
   14      H       2.8057280000     1.1594990000    -0.3468120000
 ----------------------------------------------------------------

    9    -532.2474588816      5.32e-06  Convergence criterion met
 Total energy in the final basis set =     -532.2474588816

                    Orbital Energies (a.u.)
 --------------------------------------------------------------

 Alpha MOs
 -- Occupied --
-19.1488 -19.1488 -19.0896 -19.0896 -10.2299 -10.2299 -10.2294 -10.2294
-10.1602 -10.1601  -1.0695  -1.0676  -0.9998  -0.9998  -0.8252  -0.7414
 -0.6843  -0.6102  -0.5963  -0.5519  -0.5023  -0.4857  -0.4525  -0.4427
 -0.4425  -0.4181  -0.4111  -0.4039  -0.3784  -0.3678  -0.3546  -0.3501
 -0.2717  -0.2677  -0.2599  -0.2290  -0.1639

 Beta MOs
 -- Occupied --
-19.1476 -19.1476 -19.0838 -19.0838 -10.2275 -10.2275 -10.2271 -10.2271
-10.1608 -10.1607  -1.0660  -1.0643  -0.9900  -0.9898  -0.8195  -0.7398
 -0.6726  -0.6063  -0.5927  -0.5496  -0.4979  -0.4836  -0.4513  -0.4406
 -0.4271  -0.4129  -0.4000  -0.3960  -0.3762  -0.3475  -0.3467  -0.3373
 -0.2624  -0.2542  -0.2475  -0.2225

          Ground-State Mulliken Net Atomic Charges

     Atom                 Charge (a.u.)    Spin (a.u.)
  --------------------------------------------------------
      1 O                    -0.299376       0.034271
      2 C                    -0.165492       0.190962
      3 C                     0.171545      -0.076220
      4 C                    -0.170394       0.147761
      5 O                    -0.553608       0.206515
      6 C                    -0.165689       0.190888
      7 C                     0.171845      -0.076263
      8 C                    -0.170463       0.147777
      9 O                    -0.553645       0.206577
     10 O                    -0.299411       0.034255
     11 H                     0.299015      -0.002593
     12 H                     0.218325      -0.000669
     13 H                     0.218326      -0.000668
     14 H                     0.299023      -0.002593
  --------------------------------------------------------
  Sum of atomic charges =    -1.000000

                    Cartesian Multipole Moments
 -----------------------------------------------------------------
    Charge (ESU x 10^10)
                -4.8032
    Dipole Moment (Debye)
         X      -0.0008      Y       0.0006      Z       0.0015
       Tot       0.0018
    Quadrupole Moments (Debye-Ang)
        XX     -75.6165     XY      -9.7150     YY     -84.8674
        XZ       1.3361     YZ      -1.2010     ZZ     -61.5046

 Total job time:  18.21s(wall), 77.86s(cpu)
        *  Thank you very much for using Q-Chem.  Have a nice day.  *
