 Q-Chem 5.4, Q-Chem, Inc., Pleasanton, CA (2021)
 Q-Chem 5.4.0 for Intel X86 EM64T Linux

User input:
--------------------------------------------------------------
$molecule
0 1
C                 -6.7650100000      5.7615670000      0.9787980000
C                 -7.8785580000      5.0108890000      0.6145770000
C                 -7.7595820000      4.0097360000     -0.3511340000
C                 -6.5298560000      3.7555430000     -0.9557820000
C                 -5.4084700000      4.5016300000     -0.5974920000
C                 -5.5313120000      5.5080180000      0.3745280000
C                 -4.3421890000      6.2946560000      0.7491070000
C                 -3.0484180000      5.9802270000      0.0774420000
C                 -2.9070470000      5.0210850000     -0.8703700000
C                 -4.0872320000      4.2193110000     -1.2560970000
O                 -4.3489670000      7.1947690000      1.5814730000
O                 -3.9997140000      3.3389200000     -2.1007740000
C                 -1.5871780000      4.7191340000     -1.5223920000
C                 -0.8045570000      3.6019900000     -0.7990550000
C                  0.5363500000      3.2937600000     -1.4729460000
C                  1.3306960000      2.1892480000     -0.7667400000
C                  2.6742500000      1.8780530000     -1.4359500000
C                  3.4691990000      0.7733700000     -0.7306000000
C                  4.8125020000      0.4615760000     -1.3997810000
C                  5.6060220000     -0.6432560000     -0.6924760000
C                  6.9497690000     -0.9503240000     -1.3673270000
C                  7.7253870000     -2.0517420000     -0.6462310000
S                  9.3298120000     -2.3698720000     -1.5109220000
C                 10.0144160000     -3.6689860000     -0.4749290000
C                  9.7585830000     -5.0136650000     -0.7589650000
C                 10.8388610000     -3.3529120000      0.6088890000
C                 11.3848560000     -4.3636170000      1.3966770000
C                 11.1316150000     -5.7121330000      1.1233960000
C                 10.3084790000     -6.0179780000      0.0342470000
C                 11.7536460000     -6.8046880000      1.9586670000
H                 -6.8323680000      6.5437500000      1.7250090000
H                 -8.8375600000      5.2040970000      1.0811400000
H                 -8.6283440000      3.4259150000     -0.6334980000
H                 -6.4201930000      2.9830270000     -1.7067070000
O                 -2.0218570000      6.7417710000      0.4897460000
H                 -0.9815380000      5.6287810000     -1.5428350000
H                 -1.7732000000      4.4098090000     -2.5538670000
H                 -1.4189990000      2.6958350000     -0.7732560000
H                 -0.6326430000      3.9000610000      0.2414410000
H                  1.1420290000      4.2084210000     -1.5102050000
H                  0.3577150000      3.0020940000     -2.5156380000
H                  0.7242700000      1.2751670000     -0.7302460000
H                  1.5054320000      2.4803050000      0.2771440000
H                  3.2804000000      2.7924690000     -1.4729520000
H                  2.4994200000      1.5874680000     -2.4798840000
H                  2.8627210000     -0.1408330000     -0.6934810000
H                  3.6439800000      1.0640770000      0.3134260000
H                  5.4194680000      1.3752250000     -1.4369170000
H                  4.6382690000      0.1699360000     -2.4433690000
H                  5.0002220000     -1.5575240000     -0.6563940000
H                  5.7816720000     -0.3514050000      0.3506870000
H                  7.5582110000     -0.0394030000     -1.4012180000
H                  6.7764720000     -1.2484870000     -2.4076100000
H                  7.1545140000     -2.9830060000     -0.6306820000
H                  7.9437350000     -1.7625660000      0.3843440000
H                  9.1302310000     -5.2699550000     -1.6040890000
H                 11.0526940000     -2.3137980000      0.8308260000
H                 12.0204510000     -4.0982080000      2.2357930000
H                 10.0958570000     -7.0563630000     -0.2004400000
H                 11.9156410000     -6.4765750000      2.9880200000
H                 12.7270470000     -7.1014410000      1.5527340000
H                 11.1237830000     -7.6969920000      1.9813910000
H                 -2.3900960000      7.3542630000      1.1547020000
$end
$rem
MAX_SCF_CYCLES=200
BASIS  =  6-311++G(d,p)
GUI  =  2
JOB_TYPE  =  SP
THRESH = 14
SCF_CONVERGENCE  = 6
METHOD  =  B3LYP
SOLVENT_METHOD = COSMO
$end
$solvent
dielectric 37.219
opticaldielectric 1.43
$end

--------------------------------------------------------------

             Standard Nuclear Orientation (Angstroms)
    I     Atom           X                Y                Z
 ----------------------------------------------------------------
    1      C       9.8875237841     1.0850459181     1.2363475258
    2      C      10.4413000237     2.2014765053     0.6174144397
    3      C       9.8218904863     2.7566754483    -0.5038109222
    4      C       8.6491525642     2.1992728081    -1.0101975167
    5      C       8.0863555586     1.0812924152    -0.3970878461
    6      C       8.7117472482     0.5251420291     0.7308801617
    7      C       8.1126264521    -0.6578069291     1.3749363031
    8      C       6.8543811279    -1.2131391326     0.7985096239
    9      C       6.2379226195    -0.7003485232    -0.2947933632
   10      C       6.8215790206     0.4880653941    -0.9516655475
   11      O       8.5847638083    -1.2165910383     2.3587702059
   12      O       6.2913722557     0.9861271341    -1.9350486046
   13      C       4.9638895205    -1.2751735288    -0.8468596161
   14      C       3.7025917035    -0.5958384288    -0.2712257040
   15      C       2.4075928876    -1.1811320245    -0.8435681446
   16      C       1.1431673942    -0.5220688077    -0.2809642978
   17      C      -0.1556907848    -1.1052474245    -0.8490240084
   18      C      -1.4207101809    -0.4465420073    -0.2872231840
   19      C      -2.7196713162    -1.0290888360    -0.8553964150
   20      C      -3.9835748347    -0.3690928992    -0.2918705852
   21      C      -5.2803639768    -0.9570256884    -0.8646214780
   22      C      -6.5273961274    -0.2875828187    -0.2889120083
   23      S      -8.0495817675    -1.0426578467    -1.0209566668
   24      C      -9.3267065628    -0.0934401394    -0.1857325536
   25      C      -9.8156872246     1.0893237567    -0.7480990399
   26      C      -9.8712799014    -0.5428528036     1.0208087530
   27      C     -10.8760589686     0.1847286741     1.6542827379
   28      C     -11.3693729498     1.3716913133     1.1019513877
   29      C     -10.8204636569     1.8107908353    -0.1076889641
   30      C     -12.4823916508     2.1381805170     1.7742313206
   31      H      10.3497950133     0.6362425194     2.1070133757
   32      H      11.3532597849     2.6392342409     1.0065066643
   33      H      10.2548846418     3.6265576547    -0.9845861394
   34      H       8.1560859813     2.6171928319    -1.8790608534
   35      O       6.3797552696    -2.2830854343     1.4570812185
   36      H       4.9293027923    -2.3453507095    -0.6273147445
   37      H       4.9691168798    -1.1495448588    -1.9324087526
   38      H       3.7464443315     0.4771697926    -0.4858224132
   39      H       3.7033244535    -0.7028858080     0.8194497711
   40      H       2.3757856813    -2.2591715918    -0.6394627259
   41      H       2.4159699737    -1.0763974944    -1.9358806586
   42      H       1.1759227686     0.5557084839    -0.4857851343
   43      H       1.1377696474    -0.6240240515     0.8119751539
   44      H      -0.1880299188    -2.1832710060    -0.6446642037
   45      H      -0.1499637503    -1.0036452972    -1.9419318619
   46      H      -1.3879812268     0.6315003428    -0.4914632805
   47      H      -1.4263321660    -0.5481996122     0.8057925392
   48      H      -2.7531068616    -2.1069283742    -0.6512266396
   49      H      -2.7150113315    -0.9268458013    -1.9481047878
   50      H      -3.9514457856     0.7084254426    -0.4970618953
   51      H      -3.9893231187    -0.4723356513     0.8006159660
   52      H      -5.3165246804    -2.0326569813    -0.6576503188
   53      H      -5.2799724313    -0.8491411943    -1.9552554805
   54      H      -6.5336978060     0.7814584188    -0.5136374246
   55      H      -6.5707038766    -0.4134250386     0.7953719089
   56      H      -9.4085672428     1.4403944458    -1.6892409352
   57      H      -9.5071478954    -1.4646409995     1.4595032858
   58      H     -11.2844629373    -0.1789494305     2.5920903074
   59      H     -11.1851123958     2.7285508882    -0.5585517964
   60      H     -12.4572766835     2.0089426998     2.8587288745
   61      H     -13.4617997729     1.7920044669     1.4259852539
   62      H     -12.4181022323     3.2070125285     1.5576321303
   63      H       7.0089642441    -2.4538943362     2.1836025729
 ----------------------------------------------------------------

   10   -1672.4135872024      9.45e-07  Convergence criterion met
 Total energy in the final basis set =    -1672.4135872024
    6   -1672.4345993132      7.71e-07  Convergence criterion met
 Total energy in the final basis set =    -1672.4345993132

                    Orbital Energies (a.u.)
 --------------------------------------------------------------

 Alpha MOs
 -- Occupied --
-88.8440 -19.1783 -19.1501 -19.1304 -10.2942 -10.2817 -10.2673 -10.2105
-10.2093 -10.2058 -10.2036 -10.2004 -10.1982 -10.1966 -10.1964 -10.1954
-10.1909 -10.1824 -10.1824 -10.1775 -10.1774 -10.1751 -10.1689 -10.1661
-10.1652 -10.1626 -10.1599 -10.1590 -10.1581 -10.1578 -10.1574  -7.9302
 -5.8940  -5.8907  -5.8838  -1.1085  -1.0677  -1.0642  -0.8924  -0.8722
 -0.8438  -0.8192  -0.8089  -0.7978  -0.7860  -0.7796  -0.7699  -0.7546
 -0.7485  -0.7253  -0.7042  -0.6881  -0.6696  -0.6547  -0.6429  -0.6211
 -0.6162  -0.6050  -0.5982  -0.5831  -0.5780  -0.5742  -0.5731  -0.5716
 -0.5426  -0.5186  -0.4978  -0.4977  -0.4867  -0.4793  -0.4762  -0.4729
 -0.4710  -0.4688  -0.4572  -0.4568  -0.4519  -0.4456  -0.4372  -0.4306
 -0.4269  -0.4268  -0.4248  -0.4227  -0.4219  -0.4122  -0.4091  -0.3988
 -0.3971  -0.3945  -0.3880  -0.3820  -0.3795  -0.3772  -0.3709  -0.3671
 -0.3647  -0.3638  -0.3479  -0.3474  -0.3424  -0.3414  -0.3319  -0.3285
 -0.3228  -0.3212  -0.3210  -0.3183  -0.3067  -0.3020  -0.2897  -0.2801
 -0.2799  -0.2648  -0.2564  -0.2501  -0.2360

          Ground-State Mulliken Net Atomic Charges

     Atom                 Charge (a.u.)
  ----------------------------------------
      1 C                     0.179051
      2 C                    -0.411500
      3 C                    -0.394705
      4 C                     0.184398
      5 C                    -0.005070
      6 C                     0.300930
      7 C                    -0.659789
      8 C                    -0.480490
      9 C                     1.717283
     10 C                    -0.758294
     11 O                    -0.332123
     12 O                    -0.295861
     13 C                    -0.293607
     14 C                    -0.633526
     15 C                    -0.161969
     16 C                    -0.195852
     17 C                    -0.301123
     18 C                    -0.394364
     19 C                    -0.223258
     20 C                    -0.322579
     21 C                    -0.064373
     22 C                    -0.901738
     23 S                    -0.162168
     24 C                     1.366141
     25 C                    -0.492724
     26 C                    -0.500901
     27 C                    -0.495502
     28 C                     0.474367
     29 C                    -0.501771
     30 C                    -0.720601
     31 H                     0.206628
     32 H                     0.229638
     33 H                     0.226461
     34 H                     0.202543
     35 O                    -0.237922
     36 H                     0.236969
     37 H                     0.223256
     38 H                     0.182700
     39 H                     0.181410
     40 H                     0.121892
     41 H                     0.125170
     42 H                     0.133660
     43 H                     0.132869
     44 H                     0.138877
     45 H                     0.139141
     46 H                     0.137504
     47 H                     0.137473
     48 H                     0.135811
     49 H                     0.135786
     50 H                     0.138271
     51 H                     0.138452
     52 H                     0.138364
     53 H                     0.138702
     54 H                     0.221773
     55 H                     0.222184
     56 H                     0.218332
     57 H                     0.218830
     58 H                     0.212620
     59 H                     0.212336
     60 H                     0.159976
     61 H                     0.186698
     62 H                     0.159928
     63 H                     0.325386
  ----------------------------------------
  Sum of atomic charges =     0.000000

                    Cartesian Multipole Moments
 -----------------------------------------------------------------
    Charge (ESU x 10^10)
                 0.0000
    Dipole Moment (Debye)
         X       2.6166      Y       3.6279      Z       3.0549
       Tot       5.4167
    Quadrupole Moments (Debye-Ang)
        XX    -140.5492     XY      -0.9492     YY    -188.3315
        XZ     -16.3270     YZ      -1.7245     ZZ    -201.3349

 Total job time:  475.48s(wall), 3669.55s(cpu)
        *  Thank you very much for using Q-Chem.  Have a nice day.  *
