 Gaussian 16, Revision A.03,
 Gaussian 16:  ES64L-G16RevA.03 25-Dec-2016

 --------------------------------------
 #P UB3LYP/6-311++G(d,p) nosym opt freq
 --------------------------------------

 -------
 Radical
 -------
 Symbolic Z-matrix:
 Charge = -1 Multiplicity = 2

 SCF Done:  E(UB3LYP) =  -1144.83917866     A.U. after   24 cycles
 SCF Done:  E(UB3LYP) =  -1144.88183334     A.U. after   19 cycles
 SCF Done:  E(UB3LYP) =  -1144.89853067     A.U. after   20 cycles
 SCF Done:  E(UB3LYP) =  -1144.90314687     A.U. after   18 cycles
 SCF Done:  E(UB3LYP) =  -1144.90376448     A.U. after   17 cycles
 SCF Done:  E(UB3LYP) =  -1144.90364152     A.U. after   18 cycles
 SCF Done:  E(UB3LYP) =  -1144.90426231     A.U. after   17 cycles
 SCF Done:  E(UB3LYP) =  -1144.90424605     A.U. after   17 cycles
 SCF Done:  E(UB3LYP) =  -1144.90438895     A.U. after   15 cycles
 SCF Done:  E(UB3LYP) =  -1144.90448097     A.U. after   16 cycles
 SCF Done:  E(UB3LYP) =  -1144.90461390     A.U. after   11 cycles
 SCF Done:  E(UB3LYP) =  -1144.90461460     A.U. after   11 cycles
 SCF Done:  E(UB3LYP) =  -1144.90461504     A.U. after   11 cycles
 SCF Done:  E(UB3LYP) =  -1144.90461531     A.U. after   10 cycles
 SCF Done:  E(UB3LYP) =  -1144.90461545     A.U. after   10 cycles
 SCF Done:  E(UB3LYP) =  -1144.90461557     A.U. after   10 cycles
 SCF Done:  E(UB3LYP) =  -1144.90461569     A.U. after   10 cycles
 SCF Done:  E(UB3LYP) =  -1144.90461574     A.U. after    9 cycles
 SCF Done:  E(UB3LYP) =  -1144.90461576     A.U. after    9 cycles
 Optimization completed.
    -- Stationary point found.
 Normal termination of Gaussian 16 at Thu Dec 21 11:11:58 2023.

 ----------------------------------------------------------------------
 #P Geom=AllCheck Guess=TCheck SCRF=Check GenChk UB3LYP/6-311++G(d,p) F
 req
 ----------------------------------------------------------------------

 Structure from the checkpoint file:  "145-rad.chk"
 -------
 Radical
 -------
 Charge = -1 Multiplicity = 2

                          Input orientation:
 ---------------------------------------------------------------------
 Center     Atomic      Atomic             Coordinates (Angstroms)
 Number     Number       Type             X           Y           Z
 ---------------------------------------------------------------------
      1          6           0       -4.983045   -1.226798   -0.606346
      2          6           0       -3.581090   -1.676591   -0.296228
      3          8           0       -3.228491   -2.251007    0.699070
      4          8           0       -2.756186   -1.385066   -1.344298
      5          6           0       -1.372320   -1.400581   -1.146460
      6          6           0       -0.692207   -2.431851   -1.748701
      7          6           0        0.708329   -2.463174   -1.697701
      8          6           0        1.388277   -1.462254   -1.046098
      9          8           0        2.782157   -1.509197   -1.142474
     10          6           0        3.514379   -1.835177   -0.037251
     11          6           0        4.954076   -1.449760   -0.243714
     12          8           0        3.064532   -2.390834    0.929067
     13          6           0        0.729785   -0.374532   -0.411593
     14          6           0        1.490815    0.696353    0.241479
     15          8           0        2.742604    0.682437    0.350909
     16          6           0        0.721002    1.822188    0.772538
     17          6           0        1.410291    2.903999    1.363737
     18          6           0        0.726946    3.985130    1.882061
     19          6           0       -0.683213    4.016287    1.831434
     20          6           0       -1.374649    2.965538    1.263697
     21          6           0       -0.693115    1.853482    0.721669
     22          6           0       -1.471733    0.762037    0.134594
     23          8           0       -2.727512    0.803665    0.153526
     24          6           0       -0.713765   -0.342420   -0.463877
     25          1           0       -5.001158   -0.141632   -0.484986
     26          1           0       -5.681841   -1.693674    0.086460
     27          1           0       -5.247999   -1.462449   -1.639147
     28          1           0       -1.253576   -3.203507   -2.261115
     29          1           0        1.270435   -3.260033   -2.169101
     30          1           0        5.012136   -0.366180   -0.120709
     31          1           0        5.282960   -1.699889   -1.254496
     32          1           0        5.578570   -1.945740    0.498094
     33          1           0        2.491742    2.848761    1.394942
     34          1           0        1.272049    4.809621    2.331696
     35          1           0       -1.222251    4.864715    2.242166
     36          1           0       -2.456934    2.958130    1.217157
 ---------------------------------------------------------------------

 SCF Done:  E(UB3LYP) =  -1144.90461576     A.U. after    2 cycles

 Alpha  occ. eigenvalues --  -19.05903 -19.05902 -19.00423 -19.00421 -18.95986
 Alpha  occ. eigenvalues --  -18.95985 -10.19971 -10.19971 -10.12993 -10.12991
 Alpha  occ. eigenvalues --  -10.11422 -10.11421 -10.07696 -10.07695 -10.07607
 Alpha  occ. eigenvalues --  -10.07569 -10.07200 -10.07148 -10.06895 -10.06847
 Alpha  occ. eigenvalues --  -10.06196 -10.06178 -10.06146 -10.06119  -1.00262
 Alpha  occ. eigenvalues --   -1.00231  -0.92143  -0.92089  -0.88876  -0.88632
 Alpha  occ. eigenvalues --   -0.75775  -0.74585  -0.68217  -0.67923  -0.65431
 Alpha  occ. eigenvalues --   -0.64130  -0.63746  -0.62433  -0.56600  -0.55143
 Alpha  occ. eigenvalues --   -0.52214  -0.52002  -0.48995  -0.46667  -0.43405
 Alpha  occ. eigenvalues --   -0.43078  -0.39932  -0.39073  -0.38801  -0.38427
 Alpha  occ. eigenvalues --   -0.37417  -0.37214  -0.36232  -0.36069  -0.35305
 Alpha  occ. eigenvalues --   -0.34366  -0.33591  -0.31714  -0.31556  -0.31391
 Alpha  occ. eigenvalues --   -0.30981  -0.30439  -0.29830  -0.29680  -0.29124
 Alpha  occ. eigenvalues --   -0.28652  -0.27454  -0.27209  -0.26959  -0.26229
 Alpha  occ. eigenvalues --   -0.24903  -0.24712  -0.23005  -0.22866  -0.21251
 Alpha  occ. eigenvalues --   -0.20605  -0.17697  -0.17468  -0.15853  -0.14589
 Alpha  occ. eigenvalues --   -0.14307  -0.13990  -0.12911  -0.11913  -0.02920
 Alpha virt. eigenvalues --    0.05542   0.07583   0.07810   0.07860   0.08196
 Alpha virt. eigenvalues --    0.08888   0.09691   0.10054   0.10484   0.10896
 Alpha virt. eigenvalues --    0.11084   0.11476   0.11778   0.11989   0.13143

  Beta  occ. eigenvalues --  -19.05900 -19.05900 -19.00422 -19.00421 -18.95396
  Beta  occ. eigenvalues --  -18.95395 -10.19969 -10.19969 -10.13002 -10.13000
  Beta  occ. eigenvalues --  -10.11287 -10.11286 -10.07696 -10.07695 -10.07499
  Beta  occ. eigenvalues --  -10.07460 -10.07125 -10.07073 -10.06854 -10.06806
  Beta  occ. eigenvalues --  -10.06179 -10.06178 -10.06098 -10.06053  -1.00254
  Beta  occ. eigenvalues --   -1.00224  -0.92131  -0.92080  -0.87877  -0.87603
  Beta  occ. eigenvalues --   -0.75534  -0.74459  -0.67852  -0.67798  -0.65420
  Beta  occ. eigenvalues --   -0.63963  -0.63549  -0.62326  -0.55894  -0.55085
  Beta  occ. eigenvalues --   -0.52071  -0.51731  -0.48912  -0.46541  -0.43165
  Beta  occ. eigenvalues --   -0.42944  -0.39841  -0.39039  -0.38792  -0.38341
  Beta  occ. eigenvalues --   -0.37383  -0.36979  -0.36194  -0.35961  -0.35158
  Beta  occ. eigenvalues --   -0.34310  -0.33537  -0.31531  -0.31527  -0.31382
  Beta  occ. eigenvalues --   -0.30834  -0.29781  -0.29618  -0.29209  -0.28749
  Beta  occ. eigenvalues --   -0.28427  -0.27409  -0.27053  -0.26728  -0.24721
  Beta  occ. eigenvalues --   -0.24615  -0.23998  -0.22760  -0.21868  -0.21064
  Beta  occ. eigenvalues --   -0.20542  -0.17677  -0.17452  -0.14124  -0.13904
  Beta  occ. eigenvalues --   -0.13370  -0.13186  -0.12357  -0.11383
  Beta virt. eigenvalues --    0.02979   0.06433   0.07583   0.07812   0.07856
  Beta virt. eigenvalues --    0.08891   0.09266   0.09708   0.10177   0.10508
  Beta virt. eigenvalues --    0.10965   0.11101   0.11487   0.11782   0.12012

 Mulliken charges and spin densities:
               1          2
     1  C   -0.464339   0.003077
     2  C   -0.020073  -0.002297
     3  O   -0.208778  -0.000457
     4  O    0.013022  -0.001188
     5  C   -0.576046   0.026913
     6  C    0.101143   0.060449
     7  C    0.100873   0.060436
     8  C   -0.576618   0.026938
     9  O    0.013052  -0.001192
    10  C   -0.020321  -0.002284
    11  C   -0.464379   0.003075
    12  O   -0.208669  -0.000456
    13  C    0.707154   0.054203
    14  C   -0.517843   0.052508
    15  O   -0.337492   0.224588
    16  C    0.284496   0.034367
    17  C   -0.047595   0.023800
    18  C   -0.346326   0.032858
    19  C   -0.346188   0.032877
    20  C   -0.047909   0.023793
    21  C    0.284877   0.034396
    22  C   -0.518299   0.052488
    23  O   -0.337452   0.224550
    24  C    0.707724   0.054263
    25  H    0.199193  -0.000554
    26  H    0.137485  -0.000288
    27  H    0.139687   0.000327
    28  H    0.155464  -0.004912
    29  H    0.155435  -0.004909
    30  H    0.199188  -0.000555
    31  H    0.139687   0.000329
    32  H    0.137496  -0.000288
    33  H    0.149705  -0.000645
    34  H    0.131478  -0.002783
    35  H    0.131485  -0.002783
    36  H    0.149683  -0.000644
 Sum of Mulliken charges =  -1.00000   1.00000

 Dipole moment (field-independent basis, Debye):
    X=              0.1385    Y=              0.7109    Z=             -3.3452  Tot=              3.4227
 Quadrupole moment (field-independent basis, Debye-Ang):
   XX=           -163.5248   YY=           -159.1766   ZZ=           -150.0558
   XY=             -0.1790   XZ=             -0.3226   YZ=              7.1700

  Exact polarizability: 314.346  -3.207 306.790   6.392  83.663 189.673
 Approx polarizability: 504.422  -5.302 468.136   9.545 124.217 316.606

                      1                      2                      3
                      A                      A                      A
 Frequencies --     33.4542                35.8093                46.3584
 Red. masses --      8.4028                 7.6791                 5.6126
 Frc consts  --      0.0055                 0.0058                 0.0071
 IR Inten    --      0.0086                 3.1610                 1.6102

                      4                      5                      6
                      A                      A                      A
 Frequencies --     76.3721                79.0966               101.7776
 Red. masses --      5.3715                 5.5733                 2.9208
 Frc consts  --      0.0185                 0.0205                 0.0178
 IR Inten    --      0.8101                 3.9628                 2.7442

                      7                      8                      9
                      A                      A                      A
 Frequencies --    101.9082               117.5351               118.3078
 Red. masses --      2.7196                 1.1351                 1.2015
 Frc consts  --      0.0166                 0.0092                 0.0099
 IR Inten    --      6.7615                 0.0038                 0.6070

                     10                     11                     12
                      A                      A                      A
 Frequencies --    119.3821               139.7811               158.8489
 Red. masses --      6.4122                 6.4359                 7.6492
 Frc consts  --      0.0538                 0.0741                 0.1137
 IR Inten    --      1.5038                 1.8719                 0.2185

                     13                     14                     15
                      A                      A                      A
 Frequencies --    186.1456               221.0655               257.8221
 Red. masses --      7.5556                 6.4813                 6.2453
 Frc consts  --      0.1542                 0.1866                 0.2446
 IR Inten    --      2.4441                 4.3625                 0.2198

                     16                     17                     18
                      A                      A                      A
 Frequencies --    276.3434               307.5856               324.3803
 Red. masses --      4.1584                 5.7237                 7.4112
 Frc consts  --      0.1871                 0.3191                 0.4595
 IR Inten    --      4.4772                 2.3743                 2.2252

                     19                     20                     21
                      A                      A                      A
 Frequencies --    338.2167               381.0611               403.9457
 Red. masses --      6.8974                 5.7710                12.4333
 Frc consts  --      0.4649                 0.4937                 1.1953
 IR Inten    --      0.1564                 1.2578                 9.9915

                     22                     23                     24
                      A                      A                      A
 Frequencies --    415.7686               418.1369               430.2630
 Red. masses --      5.1491                 6.0789                 5.7206
 Frc consts  --      0.5244                 0.6262                 0.6240
 IR Inten    --      5.2319                 0.1573                 1.0217

                     25                     26                     27
                      A                      A                      A
 Frequencies --    441.4871               490.2949               494.0446
 Red. masses --      4.0860                 5.9330                 8.2306
 Frc consts  --      0.4692                 0.8403                 1.1836
 IR Inten    --      1.2286                 0.6108                 1.9485

                     28                     29                     30
                      A                      A                      A
 Frequencies --    503.1744               524.4974               565.4843
 Red. masses --      4.3675                 5.3137                 3.2932
 Frc consts  --      0.6515                 0.8613                 0.6205
 IR Inten    --      1.2022                 2.9287                 4.9568

                     31                     32                     33
                      A                      A                      A
 Frequencies --    567.0398               577.0969               599.6063
 Red. masses --      3.1765                 4.9115                 4.8891
 Frc consts  --      0.6018                 0.9637                 1.0356
 IR Inten    --     13.3339                18.8932                35.5390

                     34                     35                     36
                      A                      A                      A
 Frequencies --    630.9711               648.6447               660.0501
 Red. masses --      5.7151                 4.9630                 6.3440
 Frc consts  --      1.3406                 1.2303                 1.6284
 IR Inten    --      1.5632                 0.3130                 3.0287

                     37                     38                     39
                      A                      A                      A
 Frequencies --    690.1468               712.2979               726.9109
 Red. masses --      3.7935                 7.1272                 2.1576
 Frc consts  --      1.0646                 2.1306                 0.6717
 IR Inten    --     21.4181                 1.9656                12.0993

                     40                     41                     42
                      A                      A                      A
 Frequencies --    734.3246               778.6436               784.9261
 Red. masses --      6.3666                 5.4052                 1.9054
 Frc consts  --      2.0227                 1.9308                 0.6917
 IR Inten    --      0.0394                 6.6764                35.7083

                     43                     44                     45
                      A                      A                      A
 Frequencies --    806.5435               808.5454               867.3523
 Red. masses --      5.8459                 2.0341                 4.8467
 Frc consts  --      2.2406                 0.7835                 2.1483
 IR Inten    --      2.9899                 4.9906                29.0280

                     46                     47                     48
                      A                      A                      A
 Frequencies --    870.9926               874.2156               909.1123
 Red. masses --      4.1016                 1.4783                 1.8679
 Frc consts  --      1.8333                 0.6656                 0.9096
 IR Inten    --      1.0211                 0.0057                 8.3015

                     49                     50                     51
                      A                      A                      A
 Frequencies --    919.8671               932.7055               961.0171
 Red. masses --      6.1144                 4.9605                 5.1136
 Frc consts  --      3.0483                 2.5425                 2.7826
 IR Inten    --     53.8719                 0.9316                30.1117

                     52                     53                     54
                      A                      A                      A
 Frequencies --    984.8800               986.2851              1009.7612
 Red. masses --      1.3612                 1.2631                 2.0111
 Frc consts  --      0.7779                 0.7239                 1.2082
 IR Inten    --      1.5921                 0.0083                10.0339

                     55                     56                     57
                      A                      A                      A
 Frequencies --   1026.0965              1037.0735              1054.3485
 Red. masses --      1.9180                 2.2457                 1.7664
 Frc consts  --      1.1898                 1.4230                 1.1569
 IR Inten    --    170.5515                16.8467                 7.1437

                     58                     59                     60
                      A                      A                      A
 Frequencies --   1054.4535              1067.9772              1112.9091
 Red. masses --      1.7566                 2.2174                 2.0904
 Frc consts  --      1.1508                 1.4901                 1.5255
 IR Inten    --     32.2402                59.0634                12.3306

                     61                     62                     63
                      A                      A                      A
 Frequencies --   1142.9578              1165.6147              1196.2370
 Red. masses --      1.5400                 1.4696                 3.1543
 Frc consts  --      1.1853                 1.1764                 2.6594
 IR Inten    --     24.3858                 3.7488               307.0814

                     64                     65                     66
                      A                      A                      A
 Frequencies --   1206.2712              1222.0500              1228.0529
 Red. masses --      2.7313                 2.8725                 3.4420
 Frc consts  --      2.3416                 2.5275                 3.0584
 IR Inten    --    499.9586                71.5169                93.3701

                     67                     68                     69
                      A                      A                      A
 Frequencies --   1230.2558              1238.0113              1246.0729
 Red. masses --      8.0612                 2.5108                 2.0328
 Frc consts  --      7.1886                 2.2674                 1.8596
 IR Inten    --     53.0336               145.4746                42.2764

                     70                     71                     72
                      A                      A                      A
 Frequencies --   1320.1385              1343.3793              1370.6029
 Red. masses --     11.2826                 2.6189                10.2415
 Frc consts  --     11.5851                 2.7846                11.3354
 IR Inten    --     31.7825                 3.5473                 1.7034

                     73                     74                     75
                      A                      A                      A
 Frequencies --   1379.5771              1380.4630              1390.1101
 Red. masses --      1.3630                 1.3815                 4.6892
 Frc consts  --      1.5284                 1.5511                 5.3388
 IR Inten    --    283.7790                 2.1427                 5.2928

                     76                     77                     78
                      A                      A                      A
 Frequencies --   1407.0779              1470.8468              1471.0674
 Red. masses --      3.3738                 1.0617                 1.0638
 Frc consts  --      3.9355                 1.3533                 1.3563
 IR Inten    --    261.3534                14.5379                 0.4768

                     79                     80                     81
                      A                      A                      A
 Frequencies --   1480.0636              1480.7111              1480.9583
 Red. masses --      2.3544                 1.0507                 1.2250
 Frc consts  --      3.0388                 1.3573                 1.5829
 IR Inten    --     12.5767                18.5520                 0.0836

                     82                     83                     84
                      A                      A                      A
 Frequencies --   1484.0857              1536.7293              1537.4030
 Red. masses --      2.4744                 8.4259                 6.2072
 Frc consts  --      3.2110                11.7236                 8.6442
 IR Inten    --     35.7528                 8.4812               827.7097

                     85                     86                     87
                      A                      A                      A
 Frequencies --   1568.8083              1618.8998              1622.8159
 Red. masses --      6.3206                 6.5277                 8.9630
 Frc consts  --      9.1653                10.0798                13.9073
 IR Inten    --    106.0125                12.3388                 6.7393

                     88                     89                     90
                      A                      A                      A
 Frequencies --   1631.3010              1807.1278              1810.8452
 Red. masses --      6.2118                11.6666                11.6315
 Frc consts  --      9.7394                22.4477                22.4724
 IR Inten    --      9.7550                 4.9240               498.2046

                     91                     92                     93
                      A                      A                      A
 Frequencies --   3046.3584              3046.4227              3116.3907
 Red. masses --      1.0340                 1.0340                 1.1003
 Frc consts  --      5.6537                 5.6538                 6.2958
 IR Inten    --     36.4297                 9.0084                 2.0304

                     94                     95                     96
                      A                      A                      A
 Frequencies --   3116.4034              3138.0960              3140.8937
 Red. masses --      1.1003                 1.0851                 1.1042
 Frc consts  --      6.2959                 6.2955                 6.4181
 IR Inten    --     11.2971                16.7878                14.8340

                     97                     98                     99
                      A                      A                      A
 Frequencies --   3140.9622              3156.9648              3178.2011
 Red. masses --      1.1042                 1.0917                 1.0875
 Frc consts  --      6.4184                 6.4103                 6.4720
 IR Inten    --     18.2162                51.1884                16.8822

                    100                    101                    102
                      A                      A                      A
 Frequencies --   3189.5648              3191.7866              3194.2786
 Red. masses --      1.0912                 1.0926                 1.0949
 Frc consts  --      6.5409                 6.5582                 6.5824
 IR Inten    --      7.4354                29.5711                11.5708

 - Thermochemistry -
 -------------------
 Temperature   298.150 Kelvin.  Pressure   1.00000 Atm.
 Atom     1 has atomic number  6 and mass  12.00000

 Molecular mass:   324.06339 amu.
 Principal axes and moments of inertia in atomic units:
                           1         2         3
     Eigenvalues --  6054.928307885.69213**********
           X            0.99909   0.00608  -0.04220
           Y           -0.02218   0.91946  -0.39256
           Z            0.03642   0.39314   0.91876
 This molecule is an asymmetric top.
 Rotational symmetry number  1.
 Warning -- assumption of classical behavior for rotation
           may cause significant error
 Rotational temperatures (Kelvin)      0.01430     0.01098     0.00664
 Rotational constants (GHZ):           0.29806     0.22886     0.13843
 Zero-point vibrational energy     679646.4 (Joules/Mol)
                                  162.43938 (Kcal/Mol)
 Warning -- explicit consideration of  33 degrees of freedom as
           vibrations may cause significant error
 Vibrational temperatures:     48.13    51.52    66.70   109.88   113.80
          (Kelvin)            146.44   146.62   169.11   170.22   171.76
                              201.11   228.55   267.82   318.06   370.95
                              397.60   442.55   466.71   486.62   548.26
                              581.19   598.20   601.61   619.05   635.20
                              705.43   710.82   723.96   754.63   813.61
                              815.84   830.31   862.70   907.83   933.26
                              949.66   992.97  1024.84  1045.86  1056.53
                             1120.29  1129.33  1160.44  1163.32  1247.93
                             1253.16  1257.80  1308.01  1323.48  1341.96
                             1382.69  1417.02  1419.04  1452.82  1476.32
                             1492.12  1516.97  1517.12  1536.58  1601.23
                             1644.46  1677.06  1721.12  1735.56  1758.26
                             1766.89  1770.06  1781.22  1792.82  1899.38
                             1932.82  1971.99  1984.90  1986.18  2000.06
                             2024.47  2116.22  2116.54  2129.48  2130.41
                             2130.77  2135.27  2211.01  2211.98  2257.17
                             2329.24  2334.87  2347.08  2600.05  2605.40
                             4383.03  4383.12  4483.79  4483.81  4515.02
                             4519.05  4519.14  4542.17  4572.72  4589.07
                             4592.27  4595.85

 Zero-point correction=                           0.258864 (Hartree/Particle)
 Thermal correction to Energy=                    0.279329
 Thermal correction to Enthalpy=                  0.280273
 Thermal correction to Gibbs Free Energy=         0.208163
 Sum of electronic and zero-point Energies=          -1144.645752
 Sum of electronic and thermal Energies=             -1144.625287
 Sum of electronic and thermal Enthalpies=           -1144.624343
 Sum of electronic and thermal Free Energies=        -1144.696452

                     E (Thermal)             CV                S
                      KCal/Mol        Cal/Mol-Kelvin    Cal/Mol-Kelvin
 Total                  175.281             77.939            151.767
 Electronic               0.000              0.000              1.377
 Translational            0.889              2.981             43.223
 Rotational               0.889              2.981             34.786
 Vibrational            173.504             71.978             72.381
 Vibration     1          0.594              1.983              5.613
 Vibration     2          0.594              1.982              5.478
 Vibration     3          0.595              1.979              4.967
 Vibration     4          0.599              1.965              3.982
 Vibration     5          0.600              1.963              3.913
 Vibration     6          0.604              1.948              3.420
 Vibration     7          0.604              1.948              3.417
 Vibration     8          0.608              1.935              3.141
 Vibration     9          0.608              1.934              3.128
 Vibration    10          0.609              1.933              3.110
 Vibration    11          0.615              1.914              2.807
 Vibration    12          0.621              1.893              2.563
 Vibration    13          0.632              1.859              2.266
 Vibration    14          0.648              1.809              1.950
 Vibration    15          0.667              1.750              1.676
 Vibration    16          0.678              1.717              1.556
 Vibration    17          0.697              1.659              1.375
 Vibration    18          0.709              1.627              1.288
 Vibration    19          0.719              1.599              1.221
 Vibration    20          0.751              1.511              1.035
 Vibration    21          0.769              1.462              0.948
 Vibration    22          0.779              1.436              0.906
 Vibration    23          0.781              1.431              0.898
 Vibration    24          0.791              1.404              0.858
 Vibration    25          0.801              1.380              0.822
 Vibration    26          0.846              1.272              0.683
 Vibration    27          0.850              1.263              0.673
 Vibration    28          0.858              1.243              0.650
 Vibration    29          0.879              1.196              0.600
 Vibration    30          0.921              1.106              0.513
 Vibration    31          0.923              1.103              0.510
 Vibration    32          0.934              1.081              0.491
 Vibration    33          0.958              1.033              0.450

 Optimization completed.
    -- Stationary point found.
 Normal termination of Gaussian 16 at Thu Dec 21 13:39:09 2023.
