 Gaussian 16, Revision A.03,
 Gaussian 16:  ES64L-G16RevA.03 25-Dec-2016

 --------------------------------------
 #P UB3LYP/6-311++G(d,p) nosym opt freq
 --------------------------------------

 --------
 Oxidized
 --------
 Symbolic Z-matrix:
 Charge =  0 Multiplicity = 1

 SCF Done:  E(UB3LYP) =  -610.650348821     A.U. after   17 cycles
 SCF Done:  E(UB3LYP) =  -610.664003271     A.U. after   15 cycles
 SCF Done:  E(UB3LYP) =  -610.669262929     A.U. after   14 cycles
 SCF Done:  E(UB3LYP) =  -610.669795591     A.U. after   13 cycles
 SCF Done:  E(UB3LYP) =  -610.669859937     A.U. after   13 cycles
 SCF Done:  E(UB3LYP) =  -610.669906665     A.U. after   12 cycles
 SCF Done:  E(UB3LYP) =  -610.669937242     A.U. after   13 cycles
 SCF Done:  E(UB3LYP) =  -610.669977362     A.U. after   14 cycles
 SCF Done:  E(UB3LYP) =  -610.670009462     A.U. after   13 cycles
 SCF Done:  E(UB3LYP) =  -610.670035386     A.U. after   14 cycles
 SCF Done:  E(UB3LYP) =  -610.670430321     A.U. after   15 cycles
 SCF Done:  E(UB3LYP) =  -610.670628084     A.U. after   14 cycles
 SCF Done:  E(UB3LYP) =  -610.670669048     A.U. after   13 cycles
 SCF Done:  E(UB3LYP) =  -610.670685571     A.U. after   12 cycles
 SCF Done:  E(UB3LYP) =  -610.670693544     A.U. after   12 cycles
 SCF Done:  E(UB3LYP) =  -610.670698086     A.U. after   12 cycles
 SCF Done:  E(UB3LYP) =  -610.670699672     A.U. after   11 cycles
 SCF Done:  E(UB3LYP) =  -610.670700598     A.U. after   11 cycles
 SCF Done:  E(UB3LYP) =  -610.670700797     A.U. after   10 cycles
 Optimization completed.
    -- Stationary point found.
 Normal termination of Gaussian 16 at Wed Dec 20 01:54:54 2023.

 ----------------------------------------------------------------------
 #P Geom=AllCheck Guess=TCheck SCRF=Check GenChk UB3LYP/6-311++G(d,p) F
 req
 ----------------------------------------------------------------------

 Structure from the checkpoint file:  "086.chk"
 --------
 Oxidized
 --------
 Charge =  0 Multiplicity = 1

                          Input orientation:
 ---------------------------------------------------------------------
 Center     Atomic      Atomic             Coordinates (Angstroms)
 Number     Number       Type             X           Y           Z
 ---------------------------------------------------------------------
      1          6           0        2.608519    1.550749   -0.205561
      2          8           0        2.480086    0.186990    0.245940
      3          6           0        1.305698   -0.467889    0.170268
      4          6           0        1.300713   -1.796158   -0.055681
      5          6           0        0.049842   -2.572024   -0.083938
      6          8           0        0.063521   -3.777904   -0.299454
      7          6           0       -1.220759   -1.854744    0.112093
      8          6           0       -1.257467   -0.527381    0.340754
      9          8           0       -2.440935    0.072119    0.572713
     10          6           0       -2.690874    1.428126    0.149711
     11          6           0        0.023254    0.246487    0.502669
     12          8           0        0.025914    1.383770    0.936252
     13          1           0        3.672715    1.683177   -0.394185
     14          1           0        2.053619    1.706416   -1.133908
     15          1           0        2.264363    2.248442    0.554514
     16          1           0        2.223937   -2.334898   -0.229361
     17          1           0       -2.132903   -2.436185    0.060425
     18          1           0       -2.275581    1.607261   -0.845019
     19          1           0       -3.775726    1.511839    0.108729
     20          1           0       -2.277936    2.141806    0.858942
 ---------------------------------------------------------------------

 SCF Done:  E(UB3LYP) =  -610.670700797     A.U. after    1 cycles

 Alpha  occ. eigenvalues --  -19.17946 -19.17941 -19.15756 -19.12652 -10.30571
 Alpha  occ. eigenvalues --  -10.27785 -10.27559 -10.27556 -10.23882 -10.23881
 Alpha  occ. eigenvalues --  -10.20118 -10.20116  -1.10993  -1.09422  -1.07492
 Alpha  occ. eigenvalues --   -1.05578  -0.86360  -0.80311  -0.74184  -0.71525
 Alpha  occ. eigenvalues --   -0.70598  -0.63293  -0.60846  -0.55340  -0.54299
 Alpha  occ. eigenvalues --   -0.52337  -0.51233  -0.49981  -0.48722  -0.47752
 Alpha  occ. eigenvalues --   -0.45251  -0.45025  -0.44304  -0.42620  -0.42385
 Alpha  occ. eigenvalues --   -0.41895  -0.38792  -0.38453  -0.36082  -0.34934
 Alpha  occ. eigenvalues --   -0.29169  -0.28371  -0.27669  -0.26038
 Alpha virt. eigenvalues --   -0.13535  -0.02401  -0.01759  -0.00331   0.00029
 Alpha virt. eigenvalues --    0.00753   0.01682   0.02213   0.02546   0.03120
 Alpha virt. eigenvalues --    0.04059   0.04542   0.04973   0.05420   0.06467

  Beta  occ. eigenvalues --  -19.17946 -19.17941 -19.15756 -19.12652 -10.30571
  Beta  occ. eigenvalues --  -10.27785 -10.27559 -10.27556 -10.23882 -10.23881
  Beta  occ. eigenvalues --  -10.20118 -10.20116  -1.10993  -1.09422  -1.07492
  Beta  occ. eigenvalues --   -1.05578  -0.86360  -0.80311  -0.74184  -0.71525
  Beta  occ. eigenvalues --   -0.70598  -0.63293  -0.60846  -0.55340  -0.54299
  Beta  occ. eigenvalues --   -0.52337  -0.51233  -0.49981  -0.48722  -0.47752
  Beta  occ. eigenvalues --   -0.45251  -0.45025  -0.44304  -0.42620  -0.42385
  Beta  occ. eigenvalues --   -0.41895  -0.38792  -0.38453  -0.36082  -0.34934
  Beta  occ. eigenvalues --   -0.29169  -0.28371  -0.27669  -0.26038
  Beta virt. eigenvalues --   -0.13535  -0.02401  -0.01759  -0.00331   0.00029
  Beta virt. eigenvalues --    0.00753   0.01682   0.02213   0.02546   0.03120
  Beta virt. eigenvalues --    0.04059   0.04542   0.04973   0.05420   0.06467

 Mulliken charges and spin densities:
               1          2
     1  C   -0.319493  -0.000000
     2  O   -0.152767   0.000000
     3  C   -0.224595  -0.000000
     4  C    0.400230   0.000000
     5  C   -0.530734  -0.000000
     6  O   -0.249392   0.000000
     7  C    0.395561   0.000000
     8  C   -0.220628   0.000000
     9  O   -0.153148   0.000000
    10  C   -0.319400  -0.000000
    11  C    0.102964   0.000000
    12  O   -0.223136  -0.000000
    13  H    0.157534   0.000000
    14  H    0.149387  -0.000000
    15  H    0.191936   0.000000
    16  H    0.248317   0.000000
    17  H    0.248292   0.000000
    18  H    0.149509   0.000000
    19  H    0.157589  -0.000000
    20  H    0.191974   0.000000
 Sum of Mulliken charges =  -0.00000   0.00000

 Dipole moment (field-independent basis, Debye):
    X=             -0.1882    Y=              4.2316    Z=             -1.3321  Tot=              4.4403
 Quadrupole moment (field-independent basis, Debye-Ang):
   XX=            -63.7400   YY=            -82.8417   ZZ=            -70.9531
   XY=              0.1494   XZ=             -0.3961   YZ=             -4.0415

  Exact polarizability: 112.769  -0.226 160.150  -3.311  13.236  67.982
 Approx polarizability: 144.551  -1.194 310.562  -3.427  40.225 107.304

                      1                      2                      3
                      A                      A                      A
 Frequencies --     47.7463                63.0063                64.0702
 Red. masses --      2.1165                 7.2501                 2.3573
 Frc consts  --      0.0028                 0.0170                 0.0057
 IR Inten    --      0.3063                 3.0336                 9.9152

                      4                      5                      6
                      A                      A                      A
 Frequencies --    123.4964               133.3702               179.2497
 Red. masses --      2.0975                 1.4407                 2.2492
 Frc consts  --      0.0188                 0.0151                 0.0426
 IR Inten    --      1.7157                 0.2024                15.1762

                      7                      8                      9
                      A                      A                      A
 Frequencies --    195.3807               211.1745               277.4267
 Red. masses --      3.1896                 3.7729                 3.7225
 Frc consts  --      0.0717                 0.0991                 0.1688
 IR Inten    --      0.0546                 1.9039                 3.7517

                     10                     11                     12
                      A                      A                      A
 Frequencies --    332.6343               343.8523               382.4781
 Red. masses --      5.3893                 6.1609                10.1913
 Frc consts  --      0.3513                 0.4292                 0.8784
 IR Inten    --      2.6019                 3.5568                 5.7173

                     13                     14                     15
                      A                      A                      A
 Frequencies --    415.6871               445.1342               452.5898
 Red. masses --      5.4857                 7.1467                 6.6576
 Frc consts  --      0.5585                 0.8343                 0.8035
 IR Inten    --      0.7034                 1.1275                31.4780

                     16                     17                     18
                      A                      A                      A
 Frequencies --    535.7027               550.4331               684.6388
 Red. masses --      4.5518                 8.1563                 4.3633
 Frc consts  --      0.7696                 1.4560                 1.2050
 IR Inten    --      0.5263                 1.7330                 2.9084

                     19                     20                     21
                      A                      A                      A
 Frequencies --    704.9734               785.7620               814.4331
 Red. masses --      4.6954                 9.0556                 6.5408
 Frc consts  --      1.3749                 3.2942                 2.5562
 IR Inten    --      0.8778                 9.6857                 5.8824

                     22                     23                     24
                      A                      A                      A
 Frequencies --    872.9852               900.7035               903.1730
 Red. masses --      1.4232                 2.4144                 1.9364
 Frc consts  --      0.6390                 1.1540                 0.9307
 IR Inten    --      0.0144                28.2884                82.1208

                     25                     26                     27
                      A                      A                      A
 Frequencies --    923.0406              1025.0943              1063.7176
 Red. masses --      6.6895                 3.6812                 4.5425
 Frc consts  --      3.3580                 2.2791                 3.0283
 IR Inten    --     34.4002                30.4494               185.9528

                     28                     29                     30
                      A                      A                      A
 Frequencies --   1161.3446              1162.0699              1188.6014
 Red. masses --      1.2450                 1.2464                 1.4443
 Frc consts  --      0.9893                 0.9917                 1.2022
 IR Inten    --      3.1204                 1.9231                38.5114

                     31                     32                     33
                      A                      A                      A
 Frequencies --   1192.4258              1222.1882              1273.6413
 Red. masses --      1.5613                 1.7136                 2.4636
 Frc consts  --      1.3080                 1.5081                 2.3546
 IR Inten    --     19.7750               190.5904               198.4652

                     34                     35                     36
                      A                      A                      A
 Frequencies --   1318.5737              1323.8807              1355.3699
 Red. masses --      2.8356                 7.3141                 3.7208
 Frc consts  --      2.9047                 7.5528                 4.0272
 IR Inten    --    261.0926                52.7289                22.9047

                     37                     38                     39
                      A                      A                      A
 Frequencies --   1477.0683              1477.6307              1489.6627
 Red. masses --      1.1997                 1.1828                 1.0572
 Frc consts  --      1.5422                 1.5215                 1.3822
 IR Inten    --      1.8431                16.4330                 0.1130

                     40                     41                     42
                      A                      A                      A
 Frequencies --   1490.9617              1499.3093              1500.9472
 Red. masses --      1.0575                 1.0468                 1.0486
 Frc consts  --      1.3851                 1.3865                 1.3918
 IR Inten    --     16.2188                43.1099                31.6902

                     43                     44                     45
                      A                      A                      A
 Frequencies --   1632.7889              1681.2848              1698.3276
 Red. masses --      7.8746                10.5512                 8.7562
 Frc consts  --     12.3691                17.5725                14.8801
 IR Inten    --    183.1281                11.6531               446.6720

                     46                     47                     48
                      A                      A                      A
 Frequencies --   1727.7890              3041.3912              3042.1949
 Red. masses --     12.3388                 1.0350                 1.0350
 Frc consts  --     21.7022                 5.6405                 5.6437
 IR Inten    --    238.8248                11.3580                83.1541

                     49                     50                     51
                      A                      A                      A
 Frequencies --   3125.2976              3125.6001              3153.4228
 Red. masses --      1.0994                 1.0995                 1.1078
 Frc consts  --      6.3270                 6.3287                 6.4903
 IR Inten    --     32.7705                22.0569                 8.2783

                     52                     53                     54
                      A                      A                      A
 Frequencies --   3153.8491              3202.4597              3203.4394
 Red. masses --      1.1078                 1.0922                 1.0928
 Frc consts  --      6.4922                 6.5996                 6.6072
 IR Inten    --      9.0443                 0.6088                 0.5907

 - Thermochemistry -
 -------------------
 Temperature   298.150 Kelvin.  Pressure   1.00000 Atm.
 Atom     1 has atomic number  6 and mass  12.00000

 Molecular mass:   168.04226 amu.
 Principal axes and moments of inertia in atomic units:
                           1         2         3
     Eigenvalues --  1779.929101839.870893508.13671
           X            0.99755  -0.01299   0.06878
           Y            0.02089   0.99310  -0.11539
           Z           -0.06681   0.11655   0.99094
 This molecule is an asymmetric top.
 Rotational symmetry number  1.
 Warning -- assumption of classical behavior for rotation
           may cause significant error
 Rotational temperatures (Kelvin)      0.04866     0.04708     0.02469
 Rotational constants (GHZ):           1.01394     0.98091     0.51444
 Zero-point vibrational energy     390900.6 (Joules/Mol)
                                   93.42748 (Kcal/Mol)
 Warning -- explicit consideration of  17 degrees of freedom as
           vibrations may cause significant error
 Vibrational temperatures:     68.70    90.65    92.18   177.68   191.89
          (Kelvin)            257.90   281.11   303.83   399.16   478.59
                              494.73   550.30   598.08   640.45   651.18
                              770.76   791.95   985.04  1014.30  1130.54
                             1171.79  1256.03  1295.91  1299.46  1328.05
                             1474.88  1530.45  1670.92  1671.96  1710.13
                             1715.63  1758.46  1832.49  1897.13  1904.77
                             1950.07  2125.17  2125.98  2143.29  2145.16
                             2157.17  2159.53  2349.22  2418.99  2443.51
                             2485.90  4375.88  4377.04  4496.61  4497.04
                             4537.07  4537.69  4607.63  4609.03

 Zero-point correction=                           0.148886 (Hartree/Particle)
 Thermal correction to Energy=                    0.160814
 Thermal correction to Enthalpy=                  0.161759
 Thermal correction to Gibbs Free Energy=         0.109975
 Sum of electronic and zero-point Energies=           -610.521815
 Sum of electronic and thermal Energies=              -610.509886
 Sum of electronic and thermal Enthalpies=            -610.508942
 Sum of electronic and thermal Free Energies=         -610.560726

                     E (Thermal)             CV                S
                      KCal/Mol        Cal/Mol-Kelvin    Cal/Mol-Kelvin
 Total                  100.913             42.070            108.988
 Electronic               0.000              0.000              0.000
 Translational            0.889              2.981             41.265
 Rotational               0.889              2.981             30.819
 Vibrational             99.135             36.108             36.903
 Vibration     1          0.595              1.978              4.909
 Vibration     2          0.597              1.972              4.361
 Vibration     3          0.597              1.971              4.328
 Vibration     4          0.610              1.929              3.045
 Vibration     5          0.613              1.920              2.897
 Vibration     6          0.629              1.868              2.336
 Vibration     7          0.636              1.846              2.176
 Vibration     8          0.643              1.824              2.033
 Vibration     9          0.678              1.715              1.549
 Vibration    10          0.715              1.610              1.247
 Vibration    11          0.723              1.588              1.194
 Vibration    12          0.752              1.508              1.029
 Vibration    13          0.779              1.436              0.907
 Vibration    14          0.805              1.372              0.811
 Vibration    15          0.811              1.355              0.788
 Vibration    16          0.891              1.171              0.575
 Vibration    17          0.906              1.139              0.543

                           ! Non-Optimized Parameters !
 Normal termination of Gaussian 16 at Wed Dec 20 02:02:47 2023.
