 Q-Chem 5.4, Q-Chem, Inc., Pleasanton, CA (2021)
 Q-Chem 5.4.0 for Intel X86 EM64T Linux

User input:
--------------------------------------------------------------
$molecule
0 1
C                 -0.1465940000      0.8399540000     -0.2447510000
C                 -1.2478010000      0.0161100000     -0.8496520000
C                 -1.5026350000     -1.2137500000     -0.3696200000
C                 -0.7345190000     -1.7974590000      0.7459960000
C                  0.3557080000     -0.9778100000      1.3303510000
C                  0.6598340000      0.2471660000      0.8671170000
O                  0.0524820000      1.9737570000     -0.6483740000
O                 -0.9769720000     -2.9129290000      1.1792500000
C                  1.8213080000      0.9888150000      1.5119060000
C                  2.6432220000      1.9453160000      0.6856020000
O                  2.0850560000      0.7538920000      2.6722770000
H                  2.0678640000      2.8529110000      0.4906980000
H                  2.8854550000      1.5173390000     -0.2909240000
H                  3.5537390000      2.1861930000      1.2328780000
H                  0.9085400000     -1.4159990000      2.1541160000
C                 -2.0152580000      0.6477020000     -1.9704850000
H                 -2.2924260000     -1.8370660000     -0.7758750000
H                 -2.4778970000      1.5818990000     -1.6409530000
H                 -2.7904720000     -0.0244910000     -2.3392910000
H                 -1.3474860000      0.9111100000     -2.7952940000
$end
$rem
MAX_SCF_CYCLES=200
BASIS  =  6-311++G(d,p)
GUI  =  2
JOB_TYPE  =  SP
METHOD  =  B3LYP
SOLVENT_METHOD = PCM
$end
$pcm
theory = CPCM
$end
$solvent
dielectric 37.219
opticaldielectric 1.43
$end

--------------------------------------------------------------

             Standard Nuclear Orientation (Angstroms)
    I     Atom           X                Y                Z
 ----------------------------------------------------------------
    1      C      -0.1465940000     0.8399540000    -0.2447510000
    2      C      -1.2478010000     0.0161100000    -0.8496520000
    3      C      -1.5026350000    -1.2137500000    -0.3696200000
    4      C      -0.7345190000    -1.7974590000     0.7459960000
    5      C       0.3557080000    -0.9778100000     1.3303510000
    6      C       0.6598340000     0.2471660000     0.8671170000
    7      O       0.0524820000     1.9737570000    -0.6483740000
    8      O      -0.9769720000    -2.9129290000     1.1792500000
    9      C       1.8213080000     0.9888150000     1.5119060000
   10      C       2.6432220000     1.9453160000     0.6856020000
   11      O       2.0850560000     0.7538920000     2.6722770000
   12      H       2.0678640000     2.8529110000     0.4906980000
   13      H       2.8854550000     1.5173390000    -0.2909240000
   14      H       3.5537390000     2.1861930000     1.2328780000
   15      H       0.9085400000    -1.4159990000     2.1541160000
   16      C      -2.0152580000     0.6477020000    -1.9704850000
   17      H      -2.2924260000    -1.8370660000    -0.7758750000
   18      H      -2.4778970000     1.5818990000    -1.6409530000
   19      H      -2.7904720000    -0.0244910000    -2.3392910000
   20      H      -1.3474860000     0.9111100000    -2.7952940000
 ----------------------------------------------------------------

    9    -573.5935782230      3.57e-06  Convergence criterion met
 Total energy in the final basis set =     -573.5935782230

                    Orbital Energies (a.u.)
 --------------------------------------------------------------

 Alpha MOs
 -- Occupied --
-19.1493 -19.1472 -19.1377 -10.2968 -10.2910 -10.2902 -10.2267 -10.2248
-10.2224 -10.2051 -10.1767 -10.1747  -1.0827  -1.0766  -1.0735  -0.8733
 -0.8201  -0.7596  -0.7334  -0.6980  -0.6506  -0.6023  -0.5612  -0.5374
 -0.5124  -0.4940  -0.4717  -0.4695  -0.4547  -0.4506  -0.4448  -0.4336
 -0.4308  -0.4119  -0.4080  -0.4016  -0.3942  -0.3803  -0.3181  -0.2977
 -0.2972  -0.2929  -0.2745

          Ground-State Mulliken Net Atomic Charges

     Atom                 Charge (a.u.)
  ----------------------------------------
      1 C                    -2.420480
      2 C                     1.524167
      3 C                    -0.569018
      4 C                    -0.274430
      5 C                    -0.198878
      6 C                     1.835792
      7 O                    -0.227496
      8 O                    -0.294842
      9 C                     0.270113
     10 C                    -0.637508
     11 O                    -0.305846
     12 H                     0.215997
     13 H                     0.195235
     14 H                     0.189941
     15 H                     0.258551
     16 C                    -0.377313
     17 H                     0.232227
     18 H                     0.201361
     19 H                     0.182116
     20 H                     0.200313
  ----------------------------------------
  Sum of atomic charges =     0.000000

                    Cartesian Multipole Moments
 -----------------------------------------------------------------
    Charge (ESU x 10^10)
                 0.0000
    Dipole Moment (Debye)
         X      -1.0626      Y       1.3924      Z      -4.5776
       Tot       4.9012
    Quadrupole Moments (Debye-Ang)
        XX     -64.6913     XY      -2.3178     YY     -83.4250
        XZ      -1.5770     YZ       4.5843     ZZ     -79.3656

 Total job time:  19.58s(wall), 142.66s(cpu)
        *  Thank you very much for using Q-Chem.  Have a nice day.  *
