 Gaussian 16, Revision A.03,
 Gaussian 16:  ES64L-G16RevA.03 25-Dec-2016

 --------------------------------------
 #P UB3LYP/6-311++G(d,p) nosym opt freq
 --------------------------------------

 --------
 Oxidized
 --------
 Symbolic Z-matrix:
 Charge =  0 Multiplicity = 1

 SCF Done:  E(UB3LYP) =  -573.565441528     A.U. after   16 cycles
 SCF Done:  E(UB3LYP) =  -573.565441686     A.U. after   10 cycles
 SCF Done:  E(UB3LYP) =  -573.557701917     A.U. after   17 cycles
 SCF Done:  E(UB3LYP) =  -573.565453753     A.U. after   13 cycles
 SCF Done:  E(UB3LYP) =  -573.564136775     A.U. after   17 cycles
 SCF Done:  E(UB3LYP) =  -573.566371028     A.U. after   15 cycles
 SCF Done:  E(UB3LYP) =  -573.568969837     A.U. after   17 cycles
 SCF Done:  E(UB3LYP) =  -573.568943142     A.U. after   15 cycles
 SCF Done:  E(UB3LYP) =  -573.570199829     A.U. after   14 cycles
 SCF Done:  E(UB3LYP) =  -573.570332158     A.U. after   14 cycles
 SCF Done:  E(UB3LYP) =  -573.577750488     A.U. after   13 cycles
 SCF Done:  E(UB3LYP) =  -573.577791048     A.U. after   13 cycles
 SCF Done:  E(UB3LYP) =  -573.577827663     A.U. after   12 cycles
 SCF Done:  E(UB3LYP) =  -573.577853628     A.U. after   13 cycles
 SCF Done:  E(UB3LYP) =  -573.577859106     A.U. after   11 cycles
 SCF Done:  E(UB3LYP) =  -573.577859910     A.U. after   11 cycles
 SCF Done:  E(UB3LYP) =  -573.577860061     A.U. after   10 cycles
 SCF Done:  E(UB3LYP) =  -573.577860143     A.U. after    9 cycles
 SCF Done:  E(UB3LYP) =  -573.577860154     A.U. after    9 cycles
 Optimization completed.
    -- Stationary point found.
 Normal termination of Gaussian 16 at Sat Jan  6 07:00:58 2024.

 ----------------------------------------------------------------------
 #P Geom=AllCheck Guess=TCheck SCRF=Check GenChk UB3LYP/6-311++G(d,p) F
 req
 ----------------------------------------------------------------------

 Structure from the checkpoint file:  "059.chk"
 --------
 Oxidized
 --------
 Charge =  0 Multiplicity = 1

                          Input orientation:
 ---------------------------------------------------------------------
 Center     Atomic      Atomic             Coordinates (Angstroms)
 Number     Number       Type             X           Y           Z
 ---------------------------------------------------------------------
      1          6           0       -0.146594    0.839954   -0.244751
      2          6           0       -1.247801    0.016110   -0.849652
      3          6           0       -1.502635   -1.213750   -0.369620
      4          6           0       -0.734519   -1.797459    0.745996
      5          6           0        0.355708   -0.977810    1.330351
      6          6           0        0.659834    0.247166    0.867117
      7          8           0        0.052482    1.973757   -0.648374
      8          8           0       -0.976972   -2.912929    1.179250
      9          6           0        1.821308    0.988815    1.511906
     10          6           0        2.643222    1.945316    0.685602
     11          8           0        2.085056    0.753892    2.672277
     12          1           0        2.067864    2.852911    0.490698
     13          1           0        2.885455    1.517339   -0.290924
     14          1           0        3.553739    2.186193    1.232878
     15          1           0        0.908540   -1.415999    2.154116
     16          6           0       -2.015258    0.647702   -1.970485
     17          1           0       -2.292426   -1.837066   -0.775875
     18          1           0       -2.477897    1.581899   -1.640953
     19          1           0       -2.790472   -0.024491   -2.339291
     20          1           0       -1.347486    0.911110   -2.795294
 ---------------------------------------------------------------------

 SCF Done:  E(UB3LYP) =  -573.577860154     A.U. after    1 cycles

 Alpha  occ. eigenvalues --  -19.15539 -19.14874 -19.13605 -10.30328 -10.29375
 Alpha  occ. eigenvalues --  -10.29007 -10.23638 -10.23303 -10.22928 -10.21863
 Alpha  occ. eigenvalues --  -10.19588 -10.18435  -1.08854  -1.07731  -1.07142
 Alpha  occ. eigenvalues --   -0.88286  -0.83086  -0.76759  -0.74579  -0.70765
 Alpha  occ. eigenvalues --   -0.65943  -0.61200  -0.56615  -0.54531  -0.51831
 Alpha  occ. eigenvalues --   -0.49617  -0.47984  -0.47203  -0.46029  -0.45685
 Alpha  occ. eigenvalues --   -0.45148  -0.44074  -0.43666  -0.42393  -0.41780
 Alpha  occ. eigenvalues --   -0.41614  -0.40551  -0.38379  -0.32285  -0.30817
 Alpha  occ. eigenvalues --   -0.30127  -0.29475  -0.27469
 Alpha virt. eigenvalues --   -0.15004  -0.07513  -0.02418  -0.01722  -0.00280
 Alpha virt. eigenvalues --    0.00092   0.00989   0.01922   0.02198   0.02914
 Alpha virt. eigenvalues --    0.03945   0.04498   0.04605   0.05526   0.05946

  Beta  occ. eigenvalues --  -19.15539 -19.14874 -19.13605 -10.30328 -10.29375
  Beta  occ. eigenvalues --  -10.29007 -10.23638 -10.23303 -10.22928 -10.21863
  Beta  occ. eigenvalues --  -10.19588 -10.18435  -1.08854  -1.07731  -1.07142
  Beta  occ. eigenvalues --   -0.88286  -0.83086  -0.76759  -0.74579  -0.70765
  Beta  occ. eigenvalues --   -0.65943  -0.61200  -0.56615  -0.54531  -0.51831
  Beta  occ. eigenvalues --   -0.49617  -0.47984  -0.47203  -0.46029  -0.45685
  Beta  occ. eigenvalues --   -0.45148  -0.44074  -0.43666  -0.42393  -0.41780
  Beta  occ. eigenvalues --   -0.41614  -0.40551  -0.38379  -0.32285  -0.30817
  Beta  occ. eigenvalues --   -0.30127  -0.29475  -0.27469
  Beta virt. eigenvalues --   -0.15004  -0.07513  -0.02418  -0.01722  -0.00280
  Beta virt. eigenvalues --    0.00092   0.00989   0.01922   0.02198   0.02914
  Beta virt. eigenvalues --    0.03945   0.04498   0.04605   0.05526   0.05946

 Mulliken charges and spin densities:
               1          2
     1  C   -2.359033  -0.000000
     2  C    1.481025   0.000000
     3  C   -0.502097   0.000000
     4  C   -0.402231   0.000000
     5  C   -0.153598  -0.000000
     6  C    1.739968   0.000000
     7  O   -0.181128   0.000000
     8  O   -0.210026   0.000000
     9  C    0.171317   0.000000
    10  C   -0.581321  -0.000000
    11  O   -0.221138  -0.000000
    12  H    0.206924  -0.000000
    13  H    0.159952   0.000000
    14  H    0.183809   0.000000
    15  H    0.250863  -0.000000
    16  C   -0.310481  -0.000000
    17  H    0.193999   0.000000
    18  H    0.191458  -0.000000
    19  H    0.155659  -0.000000
    20  H    0.186078  -0.000000
 Sum of Mulliken charges =   0.00000   0.00000

 Dipole moment (field-independent basis, Debye):
    X=             -0.8407    Y=              1.0429    Z=             -3.4261  Tot=              3.6787
 Quadrupole moment (field-independent basis, Debye-Ang):
   XX=            -65.6093   YY=            -80.6332   ZZ=            -77.3656
   XY=             -1.8543   XZ=             -1.1150   YZ=              3.7046

  Exact polarizability: 101.423  24.403 138.091  18.678 -24.082 103.713
 Approx polarizability: 134.371  40.873 268.549  10.260 -62.475 161.038

                      1                      2                      3
                      A                      A                      A
 Frequencies --     37.1522                54.9880               122.1576
 Red. masses --      4.2979                 6.4310                 2.7577
 Frc consts  --      0.0035                 0.0115                 0.0242
 IR Inten    --      2.7887                 5.5918                 6.2843

                      4                      5                      6
                      A                      A                      A
 Frequencies --    131.9433               138.7854               185.9857
 Red. masses --      1.3562                 1.4008                 2.7123
 Frc consts  --      0.0139                 0.0159                 0.0553
 IR Inten    --      0.1878                 3.2405                 0.0477

                      7                      8                      9
                      A                      A                      A
 Frequencies --    191.2069               265.7624               292.7459
 Red. masses --      2.8843                 4.2354                 3.8013
 Frc consts  --      0.0621                 0.1763                 0.1919
 IR Inten    --      1.9793                 1.6162                 0.5216

                     10                     11                     12
                      A                      A                      A
 Frequencies --    326.5608               359.4418               414.7040
 Red. masses --      4.9701                 4.4787                 6.7859
 Frc consts  --      0.3123                 0.3409                 0.6876
 IR Inten    --      3.2886                 0.1077                14.9317

                     13                     14                     15
                      A                      A                      A
 Frequencies --    433.3401               458.7484               509.4515
 Red. masses --      4.1887                 7.5490                 6.9175
 Frc consts  --      0.4634                 0.9360                 1.0578
 IR Inten    --      4.8582                12.3068                 1.5206

                     16                     17                     18
                      A                      A                      A
 Frequencies --    565.2898               601.9993               651.5565
 Red. masses --      2.8999                 3.8093                 3.7700
 Frc consts  --      0.5460                 0.8134                 0.9430
 IR Inten    --      1.5999                22.6547                 2.5059

                     19                     20                     21
                      A                      A                      A
 Frequencies --    678.4286               785.6688               796.9877
 Red. masses --      3.3054                 4.8741                 5.9637
 Frc consts  --      0.8964                 1.7727                 2.2319
 IR Inten    --      3.3119                 1.8231                 2.2544

                     22                     23                     24
                      A                      A                      A
 Frequencies --    834.0097               893.8274               918.8639
 Red. masses --      6.2641                 1.3607                 3.3715
 Frc consts  --      2.5671                 0.6405                 1.6771
 IR Inten    --      4.7159                 4.0338                 8.1612

                     25                     26                     27
                      A                      A                      A
 Frequencies --    953.8790               990.2721              1028.8113
 Red. masses --      1.5652                 1.9714                 1.5904
 Frc consts  --      0.8391                 1.1390                 0.9918
 IR Inten    --     36.0050                18.9664                12.8213

                     28                     29                     30
                      A                      A                      A
 Frequencies --   1045.5720              1059.0484              1117.7915
 Red. masses --      1.8762                 1.5310                 2.3548
 Frc consts  --      1.2085                 1.0117                 1.7335
 IR Inten    --      1.9705                 1.7033                21.3133

                     31                     32                     33
                      A                      A                      A
 Frequencies --   1201.8013              1235.6248              1292.8119
 Red. masses --      2.1991                 2.9639                 4.9307
 Frc consts  --      1.8714                 2.6662                 4.8555
 IR Inten    --     10.5384               160.7890               128.5274

                     34                     35                     36
                      A                      A                      A
 Frequencies --   1321.2902              1370.3197              1391.3483
 Red. masses --      1.7821                 3.0517                 1.2806
 Frc consts  --      1.8331                 3.3762                 1.4606
 IR Inten    --     17.4619                14.2438                46.1950

                     37                     38                     39
                      A                      A                      A
 Frequencies --   1416.4467              1453.8950              1467.4622
 Red. masses --      1.2791                 1.0519                 1.0433
 Frc consts  --      1.5121                 1.3101                 1.3237
 IR Inten    --     12.6848                21.5674                 8.5641

                     40                     41                     42
                      A                      A                      A
 Frequencies --   1470.1904              1478.9179              1642.4249
 Red. masses --      1.0601                 1.0700                 8.7401
 Frc consts  --      1.3500                 1.3789                13.8911
 IR Inten    --     12.2133                10.9657                 8.0546

                     43                     44                     45
                      A                      A                      A
 Frequencies --   1683.5758              1717.3373              1719.1152
 Red. masses --      8.7329                11.6165                 9.9216
 Frc consts  --     14.5839                20.1853                17.2759
 IR Inten    --     30.5994               180.8144               316.2391

                     46                     47                     48
                      A                      A                      A
 Frequencies --   1762.6774              3038.0326              3042.5725
 Red. masses --     10.6862                 1.0358                 1.0361
 Frc consts  --     19.5623                 5.6328                 5.6509
 IR Inten    --    145.3300                 6.3729                 2.1059

                     49                     50                     51
                      A                      A                      A
 Frequencies --   3089.2699              3105.5309              3124.2548
 Red. masses --      1.0988                 1.0969                 1.1033
 Frc consts  --      6.1784                 6.2330                 6.3449
 IR Inten    --      5.1648                 5.3592                10.4069

                     52                     53                     54
                      A                      A                      A
 Frequencies --   3143.9358              3175.3051              3190.1300
 Red. masses --      1.1048                 1.0923                 1.0920
 Frc consts  --      6.4340                 6.4887                 6.5475
 IR Inten    --     11.3028                 3.4981                 1.2829

 - Thermochemistry -
 -------------------
 Temperature   298.150 Kelvin.  Pressure   1.00000 Atm.
 Atom     1 has atomic number  6 and mass  12.00000

 Molecular mass:   164.04734 amu.
 Principal axes and moments of inertia in atomic units:
                           1         2         3
     Eigenvalues --  1414.826482199.209713513.91791
           X            0.75942  -0.15729  -0.63130
           Y            0.51771   0.73376   0.43997
           Z            0.39402  -0.66095   0.63866
 This molecule is an asymmetric top.
 Rotational symmetry number  1.
 Warning -- assumption of classical behavior for rotation
           may cause significant error
 Rotational temperatures (Kelvin)      0.06122     0.03938     0.02465
 Rotational constants (GHZ):           1.27559     0.82063     0.51360
 Zero-point vibrational energy     391054.8 (Joules/Mol)
                                   93.46433 (Kcal/Mol)
 Warning -- explicit consideration of  17 degrees of freedom as
           vibrations may cause significant error
 Vibrational temperatures:     53.45    79.12   175.76   189.84   199.68
          (Kelvin)            267.59   275.10   382.37   421.20   469.85
                              517.16   596.67   623.48   660.04   732.99
                              813.33   866.14   937.44   976.11  1130.40
                             1146.69  1199.95  1286.02  1322.04  1372.42
                             1424.78  1480.23  1504.34  1523.73  1608.25
                             1729.12  1777.79  1860.07  1901.04  1971.58
                             2001.84  2037.95  2091.83  2111.35  2115.28
                             2127.83  2363.08  2422.29  2470.87  2473.42
                             2536.10  4371.05  4377.58  4444.77  4468.17
                             4495.11  4523.42  4568.56  4589.89

 Zero-point correction=                           0.148945 (Hartree/Particle)
 Thermal correction to Energy=                    0.160572
 Thermal correction to Enthalpy=                  0.161516
 Thermal correction to Gibbs Free Energy=         0.110561
 Sum of electronic and zero-point Energies=           -573.428915
 Sum of electronic and thermal Energies=              -573.417288
 Sum of electronic and thermal Enthalpies=            -573.416344
 Sum of electronic and thermal Free Energies=         -573.467299

                     E (Thermal)             CV                S
                      KCal/Mol        Cal/Mol-Kelvin    Cal/Mol-Kelvin
 Total                  100.760             41.842            107.243
 Electronic               0.000              0.000              0.000
 Translational            0.889              2.981             41.193
 Rotational               0.889              2.981             30.770
 Vibrational             98.983             35.880             35.280
 Vibration     1          0.594              1.982              5.405
 Vibration     2          0.596              1.976              4.629
 Vibration     3          0.610              1.931              3.066
 Vibration     4          0.612              1.921              2.918
 Vibration     5          0.614              1.915              2.821
 Vibration     6          0.632              1.859              2.267
 Vibration     7          0.634              1.852              2.216
 Vibration     8          0.672              1.736              1.624
 Vibration     9          0.688              1.687              1.458
 Vibration    10          0.710              1.622              1.277
 Vibration    11          0.734              1.556              1.125
 Vibration    12          0.778              1.438              0.910
 Vibration    13          0.794              1.398              0.848
 Vibration    14          0.817              1.342              0.770
 Vibration    15          0.865              1.229              0.635
 Vibration    16          0.921              1.106              0.513
 Vibration    17          0.960              1.028              0.446

 Optimization completed.
    -- Stationary point found.
 Normal termination of Gaussian 16 at Sat Jan  6 07:19:19 2024.
