 Q-Chem 5.4, Q-Chem, Inc., Pleasanton, CA (2021)
 Q-Chem 5.4.0 for Intel X86 EM64T Linux

User input:
--------------------------------------------------------------
$molecule
-2 1
C                 -2.5704430000     -2.4799210000      0.4090040000
O                 -2.4173600000     -1.2850260000     -0.3373630000
C                 -1.1574240000     -0.6928210000     -0.2046810000
C                 -1.1212990000      0.6198800000      0.3310660000
O                 -2.3251420000      1.1329110000      0.8242190000
C                 -2.7615280000      2.3073150000      0.1618890000
C                  0.0635590000      1.3977960000      0.4503840000
O                  0.0913410000      2.5943200000      0.9476100000
C                  1.2563380000      0.7147110000     -0.0228390000
C                  2.5072140000      1.3727180000      0.0496200000
C                  3.6815050000      0.7769690000     -0.3744460000
C                  3.6465460000     -0.5407540000     -0.9034290000
C                  2.4399030000     -1.2129500000     -0.9797820000
C                  1.2231400000     -0.6342060000     -0.5468620000
C                 -0.0097200000     -1.3953070000     -0.6657680000
O                 -0.0499790000     -2.5919300000     -1.1618060000
H                 -1.7978800000     -3.2040280000      0.1303680000
H                 -2.5239430000     -2.2736460000      1.4915060000
H                 -3.5663910000     -2.8769580000      0.1712960000
H                 -1.9891920000      3.0817240000      0.2124480000
H                 -3.6704900000      2.6435930000      0.6783630000
H                 -3.0144750000      2.0921530000     -0.8898580000
H                  2.4976300000      2.3790400000      0.4584720000
H                  4.6264410000      1.3148360000     -0.3061700000
H                  4.5644580000     -1.0188160000     -1.2436860000
H                  2.3771900000     -2.2216040000     -1.3780550000
$end
$rem
MAX_SCF_CYCLES=200
BASIS  =  6-311++G(d,p)
GUI  =  2
JOB_TYPE  =  SP
METHOD  =  B3LYP
SOLVENT_METHOD = PCM
$end
$pcm
theory = CPCM
$end
$solvent
dielectric 37.219
opticaldielectric 1.43
$end

--------------------------------------------------------------

             Standard Nuclear Orientation (Angstroms)
    I     Atom           X                Y                Z
 ----------------------------------------------------------------
    1      C      -2.5704430000    -2.4799210000     0.4090040000
    2      O      -2.4173600000    -1.2850260000    -0.3373630000
    3      C      -1.1574240000    -0.6928210000    -0.2046810000
    4      C      -1.1212990000     0.6198800000     0.3310660000
    5      O      -2.3251420000     1.1329110000     0.8242190000
    6      C      -2.7615280000     2.3073150000     0.1618890000
    7      C       0.0635590000     1.3977960000     0.4503840000
    8      O       0.0913410000     2.5943200000     0.9476100000
    9      C       1.2563380000     0.7147110000    -0.0228390000
   10      C       2.5072140000     1.3727180000     0.0496200000
   11      C       3.6815050000     0.7769690000    -0.3744460000
   12      C       3.6465460000    -0.5407540000    -0.9034290000
   13      C       2.4399030000    -1.2129500000    -0.9797820000
   14      C       1.2231400000    -0.6342060000    -0.5468620000
   15      C      -0.0097200000    -1.3953070000    -0.6657680000
   16      O      -0.0499790000    -2.5919300000    -1.1618060000
   17      H      -1.7978800000    -3.2040280000     0.1303680000
   18      H      -2.5239430000    -2.2736460000     1.4915060000
   19      H      -3.5663910000    -2.8769580000     0.1712960000
   20      H      -1.9891920000     3.0817240000     0.2124480000
   21      H      -3.6704900000     2.6435930000     0.6783630000
   22      H      -3.0144750000     2.0921530000    -0.8898580000
   23      H       2.4976300000     2.3790400000     0.4584720000
   24      H       4.6264410000     1.3148360000    -0.3061700000
   25      H       4.5644580000    -1.0188160000    -1.2436860000
   26      H       2.3771900000    -2.2216040000    -1.3780550000
 ----------------------------------------------------------------

    8    -764.6219470619      9.21e-06  Convergence criterion met
 Total energy in the final basis set =     -764.6219470619

                    Orbital Energies (a.u.)
 --------------------------------------------------------------

 Alpha MOs
 -- Occupied --
-19.1137 -19.1137 -19.0205 -19.0204 -10.1896 -10.1895 -10.1773 -10.1769
-10.1737 -10.1737 -10.1497 -10.1493 -10.1464 -10.1464 -10.1402 -10.1398
 -1.0333  -1.0155  -0.9337  -0.9309  -0.8260  -0.7676  -0.7238  -0.7138
 -0.6815  -0.6516  -0.6335  -0.5767  -0.5728  -0.5323  -0.4958  -0.4936
 -0.4704  -0.4437  -0.4364  -0.4356  -0.4262  -0.4142  -0.4135  -0.3972
 -0.3909  -0.3702  -0.3661  -0.3587  -0.3397  -0.3275  -0.3263  -0.3209
 -0.3095  -0.3077  -0.2656  -0.2597  -0.2302  -0.2257  -0.2005  -0.1995
 -0.1974  -0.1161

          Ground-State Mulliken Net Atomic Charges

     Atom                 Charge (a.u.)
  ----------------------------------------
      1 C                    -0.257641
      2 O                    -0.226539
      3 C                    -0.014636
      4 C                     0.001469
      5 O                    -0.227378
      6 C                    -0.259590
      7 C                    -0.587133
      8 O                    -0.713229
      9 C                     0.469536
     10 C                     0.030276
     11 C                    -0.471475
     12 C                    -0.471628
     13 C                     0.030462
     14 C                     0.475691
     15 C                    -0.586213
     16 O                    -0.713126
     17 H                     0.166432
     18 H                     0.124769
     19 H                     0.148564
     20 H                     0.166724
     21 H                     0.148769
     22 H                     0.124805
     23 H                     0.143713
     24 H                     0.176262
     25 H                     0.176157
     26 H                     0.144957
  ----------------------------------------
  Sum of atomic charges =    -2.000000

                    Cartesian Multipole Moments
 -----------------------------------------------------------------
    Charge (ESU x 10^10)
                -9.6064
    Dipole Moment (Debye)
         X      -0.2536      Y      -0.0150      Z       1.0276
       Tot       1.0586
    Quadrupole Moments (Debye-Ang)
        XX    -117.1011     XY      -2.3714     YY    -145.0150
        XZ       1.1118     YZ     -22.3157     ZZ    -114.9999

 Total job time:  42.89s(wall), 264.72s(cpu)
        *  Thank you very much for using Q-Chem.  Have a nice day.  *
