 Gaussian 16, Revision A.03,
 Gaussian 16:  ES64L-G16RevA.03 25-Dec-2016

 --------------------------------------
 #P UB3LYP/6-311++G(d,p) nosym opt freq
 --------------------------------------

 -------
 Radical
 -------
 Symbolic Z-matrix:
 Charge = -2 Multiplicity = 2

 SCF Done:  E(UB3LYP) =  -1158.59261269     A.U. after   25 cycles
 SCF Done:  E(UB3LYP) =  -1158.60488449     A.U. after   19 cycles
 SCF Done:  E(UB3LYP) =  -1158.60641488     A.U. after   18 cycles
 SCF Done:  E(UB3LYP) =  -1158.60682465     A.U. after   16 cycles
 SCF Done:  E(UB3LYP) =  -1158.60684755     A.U. after   14 cycles
 SCF Done:  E(UB3LYP) =  -1158.60684957     A.U. after   14 cycles
 Optimization completed.
    -- Stationary point found.
 Normal termination of Gaussian 16 at Thu Dec 28 20:01:52 2023.

 ----------------------------------------------------------------------
 #P Geom=AllCheck Guess=TCheck SCRF=Check GenChk UB3LYP/6-311++G(d,p) F
 req
 ----------------------------------------------------------------------

 Structure from the checkpoint file:  "315-rad.chk"
 -------
 Radical
 -------
 Charge = -2 Multiplicity = 2

                          Input orientation:
 ---------------------------------------------------------------------
 Center     Atomic      Atomic             Coordinates (Angstroms)
 Number     Number       Type             X           Y           Z
 ---------------------------------------------------------------------
      1          6           0       -5.038839   -0.092675   -3.954179
      2          6           0       -4.482531   -0.067689   -5.222443
      3          6           0       -3.080392    0.001953   -5.370927
      4          6           0       -4.236424   -0.050008   -2.797044
      5          6           0       -2.823195    0.020137   -2.948688
      6          6           0       -2.273320    0.044706   -4.247664
      7          6           0       -4.894754   -0.079875   -1.465328
      8          6           0       -3.984075   -0.031480   -0.331823
      9          6           0       -2.618026    0.035989   -0.499832
     10          6           0       -1.948220    0.066432   -1.771910
     11          8           0       -6.140817   -0.143479   -1.387605
     12          8           0       -0.685743    0.128494   -1.885225
     13         16           0       -4.625622   -0.059332    1.397175
     14          8           0       -5.482823    1.149984    1.537305
     15          8           0       -5.354734   -1.349245    1.544375
     16          8           0       -3.397312    0.006046    2.249044
     17          1           0       -6.112174   -0.145951   -3.805472
     18          1           0       -5.122791   -0.101527   -6.101088
     19          1           0       -2.637680    0.021877   -6.364481
     20          1           0       -1.192296    0.098437   -4.325623
     21          1           0       -1.996142    0.069175    0.387384
 ---------------------------------------------------------------------

 SCF Done:  E(UB3LYP) =  -1158.60684957     A.U. after    1 cycles

 Alpha  occ. eigenvalues --  -88.76915 -18.84039 -18.83664 -18.81135 -18.81099
 Alpha  occ. eigenvalues --  -18.81098  -9.99022  -9.98613  -9.96964  -9.96833
 Alpha  occ. eigenvalues --   -9.95965  -9.95792  -9.95116  -9.95060  -9.94153
 Alpha  occ. eigenvalues --   -9.92447  -7.82735  -5.79000  -5.78984  -5.78945
 Alpha  occ. eigenvalues --   -0.82697  -0.76384  -0.75873  -0.69093  -0.68924
 Alpha  occ. eigenvalues --   -0.64150  -0.57539  -0.53565  -0.52041  -0.44597
 Alpha  occ. eigenvalues --   -0.40552  -0.39206  -0.34559  -0.31844  -0.28458
 Alpha  occ. eigenvalues --   -0.26651  -0.24431  -0.22710  -0.21247  -0.20451
 Alpha  occ. eigenvalues --   -0.18732  -0.18708  -0.17333  -0.17003  -0.16742
 Alpha  occ. eigenvalues --   -0.15831  -0.13926  -0.13348  -0.13223  -0.11781
 Alpha  occ. eigenvalues --   -0.05390  -0.05172  -0.04648  -0.04190  -0.03948
 Alpha  occ. eigenvalues --   -0.02982  -0.01559  -0.00520  -0.00390   0.01041
 Alpha  occ. eigenvalues --    0.02672   0.08166
 Alpha virt. eigenvalues --    0.14406   0.16367   0.18168   0.18876   0.19913
 Alpha virt. eigenvalues --    0.20546   0.22138   0.23235   0.24857   0.25709
 Alpha virt. eigenvalues --    0.26019   0.26104   0.26603   0.27208   0.27491

  Beta  occ. eigenvalues --  -88.76918 -18.83361 -18.83009 -18.81141 -18.81085
  Beta  occ. eigenvalues --  -18.81083  -9.98949  -9.98456  -9.96933  -9.96764
  Beta  occ. eigenvalues --   -9.95969  -9.95828  -9.95012  -9.94967  -9.93992
  Beta  occ. eigenvalues --   -9.92361  -7.82738  -5.79002  -5.78987  -5.78952
  Beta  occ. eigenvalues --   -0.82684  -0.75272  -0.74680  -0.69062  -0.68921
  Beta  occ. eigenvalues --   -0.63958  -0.57019  -0.53414  -0.51798  -0.43714
  Beta  occ. eigenvalues --   -0.40396  -0.38919  -0.34369  -0.31670  -0.28238
  Beta  occ. eigenvalues --   -0.26432  -0.24232  -0.22534  -0.21217  -0.20340
  Beta  occ. eigenvalues --   -0.18441  -0.17704  -0.17106  -0.16837  -0.16388
  Beta  occ. eigenvalues --   -0.15499  -0.13092  -0.12234  -0.11517  -0.11379
  Beta  occ. eigenvalues --   -0.05370  -0.05135  -0.03771  -0.03385  -0.02710
  Beta  occ. eigenvalues --   -0.01910  -0.01505   0.00074   0.00448   0.01520
  Beta  occ. eigenvalues --    0.02687
  Beta virt. eigenvalues --    0.14393   0.14751   0.16358   0.18671   0.18866
  Beta virt. eigenvalues --    0.20529   0.21100   0.22144   0.23259   0.24859
  Beta virt. eigenvalues --    0.25722   0.26121   0.26140   0.26617   0.27300

 Mulliken charges and spin densities:
               1          2
     1  C    0.079492  -0.002697
     2  C   -0.384491   0.055545
     3  C   -0.320984   0.023214
     4  C    0.137961   0.068309
     5  C    0.587025   0.075552
     6  C    0.007880   0.014535
     7  C   -0.666864   0.039150
     8  C   -0.371656   0.116197
     9  C    0.044724   0.048146
    10  C   -0.663194   0.076982
    11  O   -0.308197   0.247425
    12  O   -0.434596   0.245770
    13  S    0.639240  -0.002946
    14  O   -0.325598   0.007170
    15  O   -0.325494   0.007181
    16  O   -0.393817  -0.001139
    17  H    0.137335  -0.001328
    18  H    0.094503  -0.004567
    19  H    0.095702  -0.002238
    20  H    0.132270  -0.003129
    21  H    0.238759  -0.007134
 Sum of Mulliken charges =  -2.00000   1.00000

 Dipole moment (field-independent basis, Debye):
    X=             38.6928    Y=              0.3255    Z=              1.8359  Tot=             38.7377
 Quadrupole moment (field-independent basis, Debye-Ang):
   XX=           -307.6373   YY=           -115.3132   ZZ=           -163.4250
   XY=             -3.1003   XZ=              8.8976   YZ=              0.6298

  Exact polarizability: 208.000   5.165 104.214 -11.862  -0.236 261.734
 Approx polarizability: 387.677  11.123 165.280  -9.251  -0.026 360.799

                      1                      2                      3
                      A                      A                      A
 Frequencies --     43.0124                54.3363               129.7633
 Red. masses --     10.4236                11.2098                 4.6093
 Frc consts  --      0.0114                 0.0195                 0.0457
 IR Inten    --      0.7490                 0.2005                 0.1072

                      4                      5                      6
                      A                      A                      A
 Frequencies --    138.5656               139.6439               192.5337
 Red. masses --     10.0876                11.2592                 6.4900
 Frc consts  --      0.1141                 0.1294                 0.1417
 IR Inten    --      0.6662                 6.5268                 0.3545

                      7                      8                      9
                      A                      A                      A
 Frequencies --    231.0082               265.2815               272.2747
 Red. masses --     12.5275                 6.8591                 7.0448
 Frc consts  --      0.3939                 0.2844                 0.3077
 IR Inten    --      1.3907                 1.6932                 0.9576

                     10                     11                     12
                      A                      A                      A
 Frequencies --    297.9002               365.7300               397.2650
 Red. masses --     14.9031                10.8830                 6.3710
 Frc consts  --      0.7792                 0.8577                 0.5924
 IR Inten    --      1.0449                 3.8204                 0.2657

                     13                     14                     15
                      A                      A                      A
 Frequencies --    434.5464               467.9605               471.5579
 Red. masses --      3.8588                 5.9571                 9.8106
 Frc consts  --      0.4293                 0.7686                 1.2853
 IR Inten    --      3.4079                 4.9894                 0.2144

                     16                     17                     18
                      A                      A                      A
 Frequencies --    489.5817               492.3486               532.8794
 Red. masses --      9.5465                16.5229                 8.8448
 Frc consts  --      1.3482                 2.3598                 1.4798
 IR Inten    --      7.0980                13.1540                 8.6157

                     19                     20                     21
                      A                      A                      A
 Frequencies --    578.4647               627.6806               648.0008
 Red. masses --      9.3919                11.2319                 3.8075
 Frc consts  --      1.8516                 2.6073                 0.9420
 IR Inten    --     91.0927               150.1366                 6.4865

                     22                     23                     24
                      A                      A                      A
 Frequencies --    668.6140               693.4633               723.3499
 Red. masses --      6.3045                 2.9500                 6.3655
 Frc consts  --      1.6606                 0.8358                 1.9624
 IR Inten    --     10.7272                45.3108                 7.4652

                     25                     26                     27
                      A                      A                      A
 Frequencies --    753.7679               760.3962               818.1994
 Red. masses --      2.1440                 3.6404                 8.9975
 Frc consts  --      0.7177                 1.2402                 3.5489
 IR Inten    --     28.3319                 5.4960                15.9774

                     28                     29                     30
                      A                      A                      A
 Frequencies --    827.9698               834.4176               913.9289
 Red. masses --      5.2084                 1.3776                 1.3674
 Frc consts  --      2.1037                 0.5651                 0.6729
 IR Inten    --      8.3631                 0.0439                14.7697

                     31                     32                     33
                      A                      A                      A
 Frequencies --    955.9883               964.9141               967.0024
 Red. masses --      1.2381                 1.3330                15.5149
 Frc consts  --      0.6667                 0.7313                 8.5478
 IR Inten    --      0.8024                 1.9834               282.5806

                     34                     35                     36
                      A                      A                      A
 Frequencies --   1027.6569              1078.6622              1094.3297
 Red. masses --      2.3930                 3.4347                 3.0132
 Frc consts  --      1.4890                 2.3546                 2.1260
 IR Inten    --     53.0988                16.0164                18.8117

                     37                     38                     39
                      A                      A                      A
 Frequencies --   1120.6514              1134.5479              1146.1493
 Red. masses --      4.9197                 1.5270                 2.1839
 Frc consts  --      3.6403                 1.1581                 1.6903
 IR Inten    --    123.5341                11.0853               110.4410

                     40                     41                     42
                      A                      A                      A
 Frequencies --   1149.5601              1201.2840              1233.5187
 Red. masses --     20.5778                 2.3304                 1.8364
 Frc consts  --     16.0219                 1.9814                 1.6463
 IR Inten    --    335.8681                 6.5349                40.9928

                     43                     44                     45
                      A                      A                      A
 Frequencies --   1276.6359              1353.8990              1372.2696
 Red. masses --      1.8201                10.3706                 3.6536
 Frc consts  --      1.7477                11.2003                 4.0537
 IR Inten    --     37.7442                31.6265                 2.4110

                     46                     47                     48
                      A                      A                      A
 Frequencies --   1440.2894              1459.3363              1487.1204
 Red. masses --      3.4274                 2.8617                 5.3863
 Frc consts  --      4.1891                 3.5907                 7.0183
 IR Inten    --    223.2889                37.4554                58.0946

                     49                     50                     51
                      A                      A                      A
 Frequencies --   1530.7895              1538.8117              1604.9283
 Red. masses --      4.7718                 7.2554                 6.9374
 Frc consts  --      6.5881                10.1224                10.5284
 IR Inten    --    166.5726               261.5366                29.4515

                     52                     53                     54
                      A                      A                      A
 Frequencies --   1618.9915              3106.9843              3129.6161
 Red. masses --      7.1378                 1.0834                 1.0911
 Frc consts  --     11.0232                 6.1619                 6.2965
 IR Inten    --     19.2616                26.9089                89.5695

                     55                     56                     57
                      A                      A                      A
 Frequencies --   3166.2488              3170.8744              3182.7487
 Red. masses --      1.0909                 1.0914                 1.0881
 Frc consts  --      6.4436                 6.4652                 6.4943
 IR Inten    --     25.5317                30.2520                 7.2301

 - Thermochemistry -
 -------------------
 Temperature   298.150 Kelvin.  Pressure   1.00000 Atm.
 Atom     1 has atomic number  6 and mass  12.00000

 Molecular mass:   236.98577 amu.
 Principal axes and moments of inertia in atomic units:
                           1         2         3
     Eigenvalues --  1786.390865462.317386890.99476
           X           -0.24618   0.96794  -0.04986
           Y           -0.00999   0.04890   0.99875
           Z            0.96917   0.24637  -0.00237
 This molecule is an asymmetric top.
 Rotational symmetry number  1.
 Warning -- assumption of classical behavior for rotation
           may cause significant error
 Rotational temperatures (Kelvin)      0.04849     0.01586     0.01257
 Rotational constants (GHZ):           1.01027     0.33040     0.26190
 Zero-point vibrational energy     345590.7 (Joules/Mol)
                                   82.59816 (Kcal/Mol)
 Warning -- explicit consideration of  19 degrees of freedom as
           vibrations may cause significant error
 Vibrational temperatures:     61.89    78.18   186.70   199.37   200.92
          (Kelvin)            277.01   332.37   381.68   391.74   428.61
                              526.20   571.58   625.22   673.29   678.47
                              704.40   708.38   766.69   832.28   903.09
                              932.33   961.99   997.74  1040.74  1084.50
                             1094.04  1177.21  1191.26  1200.54  1314.94
                             1375.45  1388.30  1391.30  1478.57  1551.95
                             1574.50  1612.37  1632.36  1649.05  1653.96
                             1728.38  1774.76  1836.79  1947.96  1974.39
                             2072.26  2099.66  2139.63  2202.46  2214.01
                             2309.13  2329.37  4470.26  4502.82  4555.53
                             4562.18  4579.27

 Zero-point correction=                           0.131629 (Hartree/Particle)
 Thermal correction to Energy=                    0.144300
 Thermal correction to Enthalpy=                  0.145244
 Thermal correction to Gibbs Free Energy=         0.091076
 Sum of electronic and zero-point Energies=          -1158.475221
 Sum of electronic and thermal Energies=             -1158.462550
 Sum of electronic and thermal Enthalpies=           -1158.461605
 Sum of electronic and thermal Free Energies=        -1158.515774

                     E (Thermal)             CV                S
                      KCal/Mol        Cal/Mol-Kelvin    Cal/Mol-Kelvin
 Total                   90.550             48.938            114.007
 Electronic               0.000              0.000              1.377
 Translational            0.889              2.981             42.290
 Rotational               0.889              2.981             32.575
 Vibrational             88.772             42.976             37.765
 Vibration     1          0.595              1.980              5.115
 Vibration     2          0.596              1.976              4.653
 Vibration     3          0.612              1.924              2.950
 Vibration     4          0.614              1.915              2.824
 Vibration     5          0.615              1.914              2.809
 Vibration     6          0.635              1.850              2.203
 Vibration     7          0.653              1.794              1.871
 Vibration     8          0.671              1.737              1.627
 Vibration     9          0.675              1.724              1.582
 Vibration    10          0.691              1.678              1.429
 Vibration    11          0.739              1.543              1.098
 Vibration    12          0.764              1.476              0.973
 Vibration    13          0.795              1.395              0.844
 Vibration    14          0.825              1.321              0.743
 Vibration    15          0.829              1.313              0.733
 Vibration    16          0.845              1.273              0.685
 Vibration    17          0.848              1.267              0.678
 Vibration    18          0.888              1.177              0.581
 Vibration    19          0.935              1.078              0.488

                           ! Non-Optimized Parameters !
 Normal termination of Gaussian 16 at Thu Dec 28 20:21:07 2023.
