 Q-Chem 5.4, Q-Chem, Inc., Pleasanton, CA (2021)
 Q-Chem 5.4.0 for Intel X86 EM64T Linux

User input:
--------------------------------------------------------------
$molecule
-1 2
C                  0.3340570000      1.7775860000     -1.8654940000
C                 -1.0874170000      2.0713450000     -2.0421520000
C                 -2.0322850000      1.1075180000     -2.1902860000
C                 -1.6955950000     -0.3115260000     -2.1916310000
C                 -0.3003690000     -0.6112420000     -2.0301080000
C                  0.6864170000      0.3556600000     -1.8591960000
O                  1.1597240000      2.7123160000     -1.7433310000
O                 -2.5804550000     -1.2026760000     -2.3260720000
C                  3.2002380000      0.7887470000     -1.2502830000
C                  4.2804860000      0.9703370000     -2.1178090000
C                  3.2570010000      1.3175250000      0.0519210000
C                  4.4003000000      2.0271660000      0.4312770000
C                  5.3987150000      1.7055530000     -1.7347500000
C                  5.4603960000      2.2363220000     -0.4490150000
H                 -1.3467350000      3.1263110000     -2.0490060000
H                 -3.0821280000      1.3586640000     -2.3166930000
H                 -0.0112970000     -1.6561220000     -2.0376560000
H                  4.2322130000      0.5284330000     -3.1066190000
H                  4.4557000000      2.4289180000      1.4392010000
H                  6.2178540000      1.8529470000     -2.4312480000
H                  6.3287850000      2.8031700000     -0.1283760000
C                  2.0807190000     -0.1153810000     -1.7280280000
O                  2.4004310000     -1.2725750000     -2.0068080000
C                  2.1243800000      1.1481370000      1.0350210000
H                  1.7243880000      0.1314690000      1.0292970000
H                  1.3029990000      1.8248110000      0.7840660000
H                  2.4586060000      1.3773450000      2.0505870000
$end
$rem
MAX_SCF_CYCLES=200
BASIS  =  6-311++G(d,p)
GUI  =  2
JOB_TYPE  =  SP
METHOD  =  B3LYP
SOLVENT_METHOD = PCM
$end
$pcm
theory = CPCM
$end
$solvent
dielectric 37.219
opticaldielectric 1.43
$end

--------------------------------------------------------------

             Standard Nuclear Orientation (Angstroms)
    I     Atom           X                Y                Z
 ----------------------------------------------------------------
    1      C       0.3340570000     1.7775860000    -1.8654940000
    2      C      -1.0874170000     2.0713450000    -2.0421520000
    3      C      -2.0322850000     1.1075180000    -2.1902860000
    4      C      -1.6955950000    -0.3115260000    -2.1916310000
    5      C      -0.3003690000    -0.6112420000    -2.0301080000
    6      C       0.6864170000     0.3556600000    -1.8591960000
    7      O       1.1597240000     2.7123160000    -1.7433310000
    8      O      -2.5804550000    -1.2026760000    -2.3260720000
    9      C       3.2002380000     0.7887470000    -1.2502830000
   10      C       4.2804860000     0.9703370000    -2.1178090000
   11      C       3.2570010000     1.3175250000     0.0519210000
   12      C       4.4003000000     2.0271660000     0.4312770000
   13      C       5.3987150000     1.7055530000    -1.7347500000
   14      C       5.4603960000     2.2363220000    -0.4490150000
   15      H      -1.3467350000     3.1263110000    -2.0490060000
   16      H      -3.0821280000     1.3586640000    -2.3166930000
   17      H      -0.0112970000    -1.6561220000    -2.0376560000
   18      H       4.2322130000     0.5284330000    -3.1066190000
   19      H       4.4557000000     2.4289180000     1.4392010000
   20      H       6.2178540000     1.8529470000    -2.4312480000
   21      H       6.3287850000     2.8031700000    -0.1283760000
   22      C       2.0807190000    -0.1153810000    -1.7280280000
   23      O       2.4004310000    -1.2725750000    -2.0068080000
   24      C       2.1243800000     1.1481370000     1.0350210000
   25      H       1.7243880000     0.1314690000     1.0292970000
   26      H       1.3029990000     1.8248110000     0.7840660000
   27      H       2.4586060000     1.3773450000     2.0505870000
 ----------------------------------------------------------------

    9    -765.5274904267      5.10e-06  Convergence criterion met
 Total energy in the final basis set =     -765.5274904267

                    Orbital Energies (a.u.)
 --------------------------------------------------------------

 Alpha MOs
 -- Occupied --
-19.1113 -19.0900 -19.0890 -10.2628 -10.2392 -10.2302 -10.1861 -10.1819
-10.1792 -10.1763 -10.1761 -10.1744 -10.1742 -10.1736 -10.1718 -10.1705
-10.1594  -1.0425  -1.0157  -1.0100  -0.8625  -0.8334  -0.7771  -0.7654
 -0.7533  -0.6990  -0.6862  -0.6473  -0.6066  -0.5925  -0.5887  -0.5427
 -0.5022  -0.4846  -0.4794  -0.4721  -0.4619  -0.4443  -0.4340  -0.4260
 -0.4243  -0.4180  -0.4147  -0.4100  -0.3925  -0.3879  -0.3856  -0.3762
 -0.3695  -0.3586  -0.3516  -0.3411  -0.2916  -0.2776  -0.2706  -0.2555
 -0.2514  -0.2484  -0.2361  -0.1772

 Beta MOs
 -- Occupied --
-19.1105 -19.0834 -19.0826 -10.2626 -10.2385 -10.2291 -10.1861 -10.1819
-10.1782 -10.1760 -10.1744 -10.1736 -10.1735 -10.1732 -10.1718 -10.1705
-10.1594  -1.0410  -1.0060  -0.9968  -0.8624  -0.8272  -0.7766  -0.7638
 -0.7521  -0.6911  -0.6839  -0.6447  -0.6048  -0.5922  -0.5850  -0.5412
 -0.5004  -0.4829  -0.4766  -0.4704  -0.4602  -0.4428  -0.4326  -0.4244
 -0.4203  -0.4112  -0.4090  -0.4061  -0.3864  -0.3850  -0.3755  -0.3673
 -0.3602  -0.3546  -0.3513  -0.3408  -0.2758  -0.2636  -0.2583  -0.2516
 -0.2502  -0.2445  -0.2330

          Ground-State Mulliken Net Atomic Charges

     Atom                 Charge (a.u.)    Spin (a.u.)
  --------------------------------------------------------
      1 C                    -1.256031       0.025619
      2 C                    -0.246393       0.098458
      3 C                     0.072634       0.006452
      4 C                    -0.566277       0.130200
      5 C                     0.285798       0.139542
      6 C                     1.427368       0.092104
      7 O                    -0.368908       0.203832
      8 O                    -0.494947       0.264527
      9 C                     0.528599      -0.002544
     10 C                    -0.068372       0.001224
     11 C                     0.700762       0.001408
     12 C                    -0.328363      -0.000500
     13 C                    -0.500783       0.002507
     14 C                    -0.258451      -0.000199
     15 H                     0.217416      -0.006378
     16 H                     0.219109      -0.002314
     17 H                     0.229052      -0.015025
     18 H                     0.226788      -0.000508
     19 H                     0.190790       0.000210
     20 H                     0.200919       0.000064
     21 H                     0.200833      -0.000062
     22 C                    -0.911379       0.033370
     23 O                    -0.315368       0.029506
     24 C                    -0.729619      -0.000967
     25 H                     0.181656      -0.000247
     26 H                     0.192450      -0.000627
     27 H                     0.170718       0.000345
  --------------------------------------------------------
  Sum of atomic charges =    -1.000000

                    Cartesian Multipole Moments
 -----------------------------------------------------------------
    Charge (ESU x 10^10)
                -4.8032
    Dipole Moment (Debye)
         X      -0.2756      Y       1.0888      Z      10.7508
       Tot      10.8093
    Quadrupole Moments (Debye-Ang)
        XX    -125.1739     XY      -8.2745     YY    -124.8713
        XZ      -1.4398     YZ      -2.2447     ZZ    -119.8419

 Total job time:  50.80s(wall), 382.74s(cpu)
        *  Thank you very much for using Q-Chem.  Have a nice day.  *
