 Q-Chem 5.4, Q-Chem, Inc., Pleasanton, CA (2021)
 Q-Chem 5.4.0 for Intel X86 EM64T Linux

User input:
--------------------------------------------------------------
$molecule
-2 1
C                  3.7315980000     -1.0399480000     -0.3068030000
C                  2.4311280000     -0.2958890000     -0.1027470000
C                  2.4327070000      1.1231810000     -0.0040540000
C                  1.2495200000      1.8129400000      0.1880480000
C                  0.0031000000      1.1567790000      0.2851320000
C                 -1.2226070000      1.9345120000      0.4690100000
O                 -1.2220110000      3.2199150000      0.5462560000
C                 -2.3991190000      1.1386810000      0.5611940000
C                 -2.4285100000     -0.2635460000      0.4870790000
C                 -3.7376080000     -1.0050980000      0.5823990000
C                 -1.2479480000     -1.0492410000      0.3023540000
O                 -1.2787030000     -2.3369230000      0.2234050000
C                 -0.0119370000     -0.2818370000      0.2052380000
C                  1.2203760000     -0.9562620000      0.0153630000
H                  4.4671100000     -0.8266650000      0.4887140000
H                  3.5757420000     -2.1233370000     -0.3217000000
H                  4.2202110000     -0.7668420000     -1.2495330000
H                  3.3745340000      1.6643620000     -0.0887620000
H                  1.2354510000      2.8965740000      0.2620170000
H                 -3.3356380000      1.6810690000      0.7002620000
H                 -3.7308950000     -1.7246800000      1.4131310000
H                 -4.5758800000     -0.3113640000      0.7225520000
H                 -3.9235010000     -1.6057420000     -0.3199300000
H                  1.1728800000     -2.0406380000     -0.0346900000
$end
$rem
MAX_SCF_CYCLES=200
BASIS  =  6-311++G(d,p)
GUI  =  2
JOB_TYPE  =  SP
METHOD  =  B3LYP
SOLVENT_METHOD = PCM
$end
$pcm
theory = CPCM
$end
$solvent
dielectric 37.219
opticaldielectric 1.43
$end

--------------------------------------------------------------

             Standard Nuclear Orientation (Angstroms)
    I     Atom           X                Y                Z
 ----------------------------------------------------------------
    1      C       3.7315980000    -1.0399480000    -0.3068030000
    2      C       2.4311280000    -0.2958890000    -0.1027470000
    3      C       2.4327070000     1.1231810000    -0.0040540000
    4      C       1.2495200000     1.8129400000     0.1880480000
    5      C       0.0031000000     1.1567790000     0.2851320000
    6      C      -1.2226070000     1.9345120000     0.4690100000
    7      O      -1.2220110000     3.2199150000     0.5462560000
    8      C      -2.3991190000     1.1386810000     0.5611940000
    9      C      -2.4285100000    -0.2635460000     0.4870790000
   10      C      -3.7376080000    -1.0050980000     0.5823990000
   11      C      -1.2479480000    -1.0492410000     0.3023540000
   12      O      -1.2787030000    -2.3369230000     0.2234050000
   13      C      -0.0119370000    -0.2818370000     0.2052380000
   14      C       1.2203760000    -0.9562620000     0.0153630000
   15      H       4.4671100000    -0.8266650000     0.4887140000
   16      H       3.5757420000    -2.1233370000    -0.3217000000
   17      H       4.2202110000    -0.7668420000    -1.2495330000
   18      H       3.3745340000     1.6643620000    -0.0887620000
   19      H       1.2354510000     2.8965740000     0.2620170000
   20      H      -3.3356380000     1.6810690000     0.7002620000
   21      H      -3.7308950000    -1.7246800000     1.4131310000
   22      H      -4.5758800000    -0.3113640000     0.7225520000
   23      H      -3.9235010000    -1.6057420000    -0.3199300000
   24      H       1.1728800000    -2.0406380000    -0.0346900000
 ----------------------------------------------------------------

    9    -614.1693033371      5.86e-06  Convergence criterion met
 Total energy in the final basis set =     -614.1693033371

                    Orbital Energies (a.u.)
 --------------------------------------------------------------

 Alpha MOs
 -- Occupied --
-19.0176 -19.0151 -10.1686 -10.1624 -10.1557 -10.1514 -10.1445 -10.1438
-10.1392 -10.1376 -10.1339 -10.1325 -10.1248 -10.1143  -0.9343  -0.9301
 -0.8265  -0.7725  -0.7405  -0.7187  -0.6826  -0.6506  -0.6226  -0.5709
 -0.5564  -0.5197  -0.4656  -0.4565  -0.4349  -0.4097  -0.4025  -0.4006
 -0.3915  -0.3888  -0.3683  -0.3634  -0.3569  -0.3513  -0.3477  -0.3344
 -0.3153  -0.3093  -0.3022  -0.3000  -0.2262  -0.2208  -0.2051  -0.1992
 -0.1928  -0.1085

          Ground-State Mulliken Net Atomic Charges

     Atom                 Charge (a.u.)
  ----------------------------------------
      1 C                    -0.490204
      2 C                     0.482389
      3 C                    -0.475439
      4 C                    -0.060784
      5 C                     0.227425
      6 C                    -0.532403
      7 O                    -0.740147
      8 C                    -0.515786
      9 C                     0.874895
     10 C                    -0.374745
     11 C                    -0.537918
     12 O                    -0.726028
     13 C                    -0.143462
     14 C                    -0.402967
     15 H                     0.152321
     16 H                     0.165544
     17 H                     0.156759
     18 H                     0.172698
     19 H                     0.133473
     20 H                     0.099760
     21 H                     0.141649
     22 H                     0.141485
     23 H                     0.141904
     24 H                     0.109580
  ----------------------------------------
  Sum of atomic charges =    -2.000000

                    Cartesian Multipole Moments
 -----------------------------------------------------------------
    Charge (ESU x 10^10)
                -9.6064
    Dipole Moment (Debye)
         X      10.1640      Y      -4.4584      Z      -3.5144
       Tot      11.6419
    Quadrupole Moments (Debye-Ang)
        XX    -108.6985     XY       3.7255     YY    -153.9210
        XZ       4.0745     YZ      -4.9382     ZZ     -95.4337

 Total job time:  43.01s(wall), 237.48s(cpu)
        *  Thank you very much for using Q-Chem.  Have a nice day.  *
