 Gaussian 16, Revision A.03,
 Gaussian 16:  ES64L-G16RevA.03 25-Dec-2016

 ----------------------------------------------------------------
 #P UB3LYP/6-311++G(d,p) SCRF=(PCM,Solvent=n,n-DiMethylFormamide)
 ----------------------------------------------------------------

 -------
 Reduced
 -------
 Symbolic Z-matrix:
 Charge = -2 Multiplicity = 1

                         Standard orientation:
 ---------------------------------------------------------------------
 Center     Atomic      Atomic             Coordinates (Angstroms)
 Number     Number       Type             X           Y           Z
 ---------------------------------------------------------------------
      1          6           0        1.845213    1.708828   -0.000484
      2          6           0        0.746071    0.676851   -0.000692
      3          6           0       -0.603428    1.073202   -0.000305
      4          6           0       -1.717512    0.173488    0.000480
      5          8           0       -2.966854    0.560672    0.000635
      6          6           0       -1.309284   -1.199193   -0.000010
      7          6           0        0.033030   -1.606164   -0.000729
      8          6           0        1.139345   -0.704516   -0.000310
      9          8           0        2.394986   -1.082441    0.001133
     10          1           0        2.531372    1.565781   -0.849954
     11          1           0        2.480358    1.629414    0.897073
     12          1           0        1.432777    2.726327   -0.046477
     13          1           0       -0.840309    2.140818   -0.000563
     14          1           0       -2.102371   -1.950805   -0.000410
     15          1           0        0.272513   -2.672356   -0.001512
 ---------------------------------------------------------------------

 SCF Done:  E(UB3LYP) =  -421.153129404     A.U. after   16 cycles

 The electronic state is 1-A.
 Alpha  occ. eigenvalues --  -19.00884 -19.00777 -10.16144 -10.15766 -10.13815
 Alpha  occ. eigenvalues --  -10.12543 -10.11711 -10.11557 -10.11506  -0.91542
 Alpha  occ. eigenvalues --   -0.91173  -0.77423  -0.71895  -0.65569  -0.62422
 Alpha  occ. eigenvalues --   -0.54568  -0.50866  -0.42697  -0.41881  -0.39587
 Alpha  occ. eigenvalues --   -0.38846  -0.36453  -0.34811  -0.34606  -0.33459
 Alpha  occ. eigenvalues --   -0.31233  -0.30346  -0.29798  -0.21648  -0.20262
 Alpha  occ. eigenvalues --   -0.18860  -0.18658  -0.11295
 Alpha virt. eigenvalues --    0.00337   0.01542   0.01983   0.02430   0.03957
 Alpha virt. eigenvalues --    0.04405   0.04664   0.06378   0.06567   0.07574
 Alpha virt. eigenvalues --    0.08026   0.08840   0.09060   0.10071   0.11929

  Beta  occ. eigenvalues --  -19.00884 -19.00777 -10.16144 -10.15766 -10.13815
  Beta  occ. eigenvalues --  -10.12543 -10.11711 -10.11557 -10.11506  -0.91542
  Beta  occ. eigenvalues --   -0.91173  -0.77423  -0.71895  -0.65569  -0.62422
  Beta  occ. eigenvalues --   -0.54568  -0.50866  -0.42697  -0.41881  -0.39587
  Beta  occ. eigenvalues --   -0.38846  -0.36453  -0.34811  -0.34606  -0.33459
  Beta  occ. eigenvalues --   -0.31233  -0.30346  -0.29798  -0.21648  -0.20262
  Beta  occ. eigenvalues --   -0.18860  -0.18658  -0.11295
  Beta virt. eigenvalues --    0.00337   0.01542   0.01983   0.02430   0.03957
  Beta virt. eigenvalues --    0.04405   0.04664   0.06378   0.06567   0.07574
  Beta virt. eigenvalues --    0.08026   0.08840   0.09060   0.10071   0.11929

 Mulliken charges and spin densities:
               1          2
     1  C   -0.482070   0.000000
     2  C    1.153836  -0.000000
     3  C   -0.649665   0.000000
     4  C   -0.439189   0.000000
     5  O   -0.764456  -0.000000
     6  C    0.005623  -0.000000
     7  C    0.037011   0.000000
     8  C   -0.842442  -0.000000
     9  O   -0.754708  -0.000000
    10  H    0.134885  -0.000000
    11  H    0.134683  -0.000000
    12  H    0.125366   0.000000
    13  H    0.097379  -0.000000
    14  H    0.122298  -0.000000
    15  H    0.121449   0.000000
 Sum of Mulliken charges =  -2.00000  -0.00000

 Dipole moment (field-independent basis, Debye):
    X=              3.0743    Y=              2.6022    Z=             -0.0065  Tot=              4.0277
 Quadrupole moment (field-independent basis, Debye-Ang):
   XX=           -123.3009   YY=            -69.6810   ZZ=            -63.0257
   XY=             17.1126   XZ=             -0.0093   YZ=              0.0052

 Normal termination of Gaussian 16 at Sun Jan 21 07:36:22 2024.
