 Q-Chem 5.4, Q-Chem, Inc., Pleasanton, CA (2021)
 Q-Chem 5.4.0 for Intel X86 EM64T Linux

User input:
--------------------------------------------------------------
$molecule
0 1
C                 -0.6428320000      2.6817750000     -0.9633760000
C                 -1.7182140000      2.0635210000     -0.3700780000
C                 -1.5904180000      0.7568140000      0.1558030000
C                  0.6085660000      2.0196980000     -1.0567760000
C                  0.7382780000      0.6958960000     -0.5240370000
C                 -0.3903410000      0.0879930000      0.0809030000
C                  1.7361680000      2.6250320000     -1.6602980000
C                  2.9412990000      1.9588170000     -1.7378150000
C                  3.0732990000      0.6391470000     -1.2075990000
C                  1.9897780000      0.0345870000     -0.6177660000
C                  4.1001790000      2.6088460000     -2.3699520000
C                  5.3848510000      1.8410090000     -2.4277680000
C                  5.5066930000      0.5938990000     -1.9259440000
C                  4.3809230000     -0.0921870000     -1.2881370000
O                  4.0930220000      3.7346990000     -2.8543740000
O                  4.5025660000     -1.2228880000     -0.8365890000
O                  6.3906560000      2.4962660000     -3.0156740000
H                 -0.7373930000      3.6837560000     -1.3676360000
H                 -2.6706900000      2.5764120000     -0.3028180000
H                 -2.4470020000      0.2822100000      0.6206230000
H                 -0.2924800000     -0.9139300000      0.4841540000
H                  1.6607450000      3.6260930000     -2.0699840000
H                  2.1070620000     -0.9673690000     -0.2203560000
H                  6.4463330000      0.0574520000     -1.9790970000
H                  6.0312530000      3.3647230000     -3.2816700000
$end

$rem
BASIS  =  6-311++G(d,p)
GUI  =  2
JOB_TYPE  =  SP
METHOD  =  B3LYP
SCF_CONVERGENCE  = 8
SOLVENT_METHOD = sm12
$end

$smx
solvent dimethylformamide
charges CM5
$end

--------------------------------------------------------------

             Standard Nuclear Orientation (Angstroms)
    I     Atom           X                Y                Z
 ----------------------------------------------------------------
    1      C      -0.6428320000     2.6817750000    -0.9633760000
    2      C      -1.7182140000     2.0635210000    -0.3700780000
    3      C      -1.5904180000     0.7568140000     0.1558030000
    4      C       0.6085660000     2.0196980000    -1.0567760000
    5      C       0.7382780000     0.6958960000    -0.5240370000
    6      C      -0.3903410000     0.0879930000     0.0809030000
    7      C       1.7361680000     2.6250320000    -1.6602980000
    8      C       2.9412990000     1.9588170000    -1.7378150000
    9      C       3.0732990000     0.6391470000    -1.2075990000
   10      C       1.9897780000     0.0345870000    -0.6177660000
   11      C       4.1001790000     2.6088460000    -2.3699520000
   12      C       5.3848510000     1.8410090000    -2.4277680000
   13      C       5.5066930000     0.5938990000    -1.9259440000
   14      C       4.3809230000    -0.0921870000    -1.2881370000
   15      O       4.0930220000     3.7346990000    -2.8543740000
   16      O       4.5025660000    -1.2228880000    -0.8365890000
   17      O       6.3906560000     2.4962660000    -3.0156740000
   18      H      -0.7373930000     3.6837560000    -1.3676360000
   19      H      -2.6706900000     2.5764120000    -0.3028180000
   20      H      -2.4470020000     0.2822100000     0.6206230000
   21      H      -0.2924800000    -0.9139300000     0.4841540000
   22      H       1.6607450000     3.6260930000    -2.0699840000
   23      H       2.1070620000    -0.9673690000    -0.2203560000
   24      H       6.4463330000     0.0574520000    -1.9790970000
   25      H       6.0312530000     3.3647230000    -3.2816700000
 ----------------------------------------------------------------

   15    -764.1969017041      6.09e-09  Convergence criterion met
 Total energy in the final basis set =     -764.2213245804

                    Orbital Energies (a.u.)
 --------------------------------------------------------------

 Alpha MOs
 -- Occupied --
-19.1847 -19.1499 -19.1222 -10.2948 -10.2782 -10.2762 -10.2123 -10.2101
-10.2095 -10.2090 -10.2081 -10.2027 -10.1991 -10.1947 -10.1940 -10.1934
-10.1926  -1.1143  -1.0700  -1.0556  -0.9051  -0.8639  -0.8248  -0.8029
 -0.7699  -0.7534  -0.6993  -0.6750  -0.6449  -0.6238  -0.6118  -0.5709
 -0.5647  -0.5334  -0.5257  -0.4958  -0.4861  -0.4735  -0.4670  -0.4601
 -0.4555  -0.4447  -0.4390  -0.4302  -0.4269  -0.4147  -0.4050  -0.3989
 -0.3928  -0.3705  -0.3551  -0.3468  -0.3121  -0.3043  -0.2837  -0.2766
 -0.2664  -0.2447

          Ground-State Mulliken Net Atomic Charges

     Atom                 Charge (a.u.)
  ----------------------------------------
      1 C                     0.234530
      2 C                     0.242067
      3 C                     0.218417
      4 C                     0.420579
      5 C                    -0.168498
      6 C                     0.131461
      7 C                     0.256054
      8 C                     0.336312
      9 C                    -0.375033
     10 C                    -0.084958
     11 C                    -1.039829
     12 C                    -0.373044
     13 C                     0.377786
     14 C                    -1.389350
     15 O                    -0.280457
     16 O                    -0.339570
     17 O                    -0.209602
     18 H                     0.275651
     19 H                     0.295725
     20 H                     0.290997
     21 H                     0.272368
     22 H                     0.210485
     23 H                     0.149060
     24 H                     0.252221
     25 H                     0.296627
  ----------------------------------------
  Sum of atomic charges =     0.000000

                    Cartesian Multipole Moments
 -----------------------------------------------------------------
    Charge (ESU x 10^10)
                 0.0000
    Dipole Moment (Debye)
         X      -5.2994      Y       1.9479      Z       0.7666
       Tot       5.6979
    Quadrupole Moments (Debye-Ang)
        XX    -111.5685     XY       1.7525     YY     -97.9944
        XZ       2.7609     YZ      -1.3821     ZZ    -100.2041

 Total job time:  487.62s(wall), 3543.68s(cpu)
        *  Thank you very much for using Q-Chem.  Have a nice day.  *
