 Gaussian 16, Revision A.03,
 Gaussian 16:  ES64L-G16RevA.03 25-Dec-2016

 ----------------------------------------------------------------------
 #P UB3LYP/6-311++G(d,p) nosym opt freq SCRF=(PCM,Solvent=n,n-DiMethylF
 ormamide)
 ----------------------------------------------------------------------

 --------
 Oxidized
 --------
 Symbolic Z-matrix:
 Charge =  0 Multiplicity = 1

 SCF Done:  E(UB3LYP) =  -916.910975760     A.U. after   15 cycles
 SCF Done:  E(UB3LYP) =  -916.911219536     A.U. after   12 cycles
 SCF Done:  E(UB3LYP) =  -916.911114156     A.U. after   12 cycles
 SCF Done:  E(UB3LYP) =  -916.911250036     A.U. after   12 cycles
 SCF Done:  E(UB3LYP) =  -916.911345035     A.U. after   11 cycles
 SCF Done:  E(UB3LYP) =  -916.911378552     A.U. after   12 cycles
 SCF Done:  E(UB3LYP) =  -916.911407827     A.U. after   11 cycles
 SCF Done:  E(UB3LYP) =  -916.911419774     A.U. after   11 cycles
 SCF Done:  E(UB3LYP) =  -916.911430469     A.U. after   11 cycles
 SCF Done:  E(UB3LYP) =  -916.911436942     A.U. after   11 cycles
 SCF Done:  E(UB3LYP) =  -916.911438116     A.U. after   10 cycles
 SCF Done:  E(UB3LYP) =  -916.911438682     A.U. after   10 cycles
 SCF Done:  E(UB3LYP) =  -916.911438850     A.U. after    9 cycles
 SCF Done:  E(UB3LYP) =  -916.911438931     A.U. after    8 cycles
 SCF Done:  E(UB3LYP) =  -916.911439276     A.U. after    8 cycles
 SCF Done:  E(UB3LYP) =  -916.911439596     A.U. after    9 cycles
 SCF Done:  E(UB3LYP) =  -916.911439717     A.U. after    9 cycles
 SCF Done:  E(UB3LYP) =  -916.911439721     A.U. after    7 cycles
 Optimization completed.
    -- Stationary point found.
 Normal termination of Gaussian 16 at Sat Feb 10 18:03:30 2024.

 ----------------------------------------------------------------------
 #P Geom=AllCheck Guess=TCheck SCRF=Check GenChk UB3LYP/6-311++G(d,p) F
 req
 ----------------------------------------------------------------------

 Structure from the checkpoint file:  "144.chk"
 --------
 Oxidized
 --------
 Charge =  0 Multiplicity = 1

                          Input orientation:
 ---------------------------------------------------------------------
 Center     Atomic      Atomic             Coordinates (Angstroms)
 Number     Number       Type             X           Y           Z
 ---------------------------------------------------------------------
      1          6           0       -2.964916    3.722091    0.210417
      2          6           0       -4.233195    3.157331    0.291550
      3          6           0       -4.386285    1.769744    0.234080
      4          6           0       -1.837318    2.906893    0.071350
      5          6           0       -1.991497    1.508226    0.013277
      6          6           0       -3.270856    0.950506    0.095752
      7          6           0       -0.491731    3.537461   -0.012263
      8          6           0        0.686645    2.633165   -0.154487
      9          6           0        0.532009    1.236826   -0.214397
     10          6           0       -0.814559    0.606691   -0.134445
     11          6           0        1.962207    3.196641   -0.230407
     12          6           0        3.064570    2.368483   -0.367263
     13          6           0        2.929807    0.982467   -0.434893
     14          6           0        1.661845    0.423781   -0.354971
     15          8           0       -0.351227    4.752032    0.033680
     16          8           0       -0.948019   -0.609110   -0.187731
     17          1           0       -3.375319   -0.126000    0.050144
     18          1           0        1.532271   -0.649538   -0.405318
     19          1           0       -2.831624    4.795512    0.253909
     20          1           0        2.083513    4.271010   -0.186087
     21          1           0        3.806163    0.357892   -0.553372
     22          1           0       -5.374632    1.330127    0.297456
     23          8           0        4.317039    2.958904   -0.519638
     24          6           0        5.225027    2.873013    0.507996
     25          6           0        6.512660    3.537600    0.124644
     26          8           0        4.973395    2.333654    1.554472
     27          1           0       -5.102647    3.794889    0.399448
     28          1           0        6.327343    4.581489   -0.136855
     29          1           0        6.931961    3.046361   -0.756209
     30          1           0        7.215471    3.479744    0.952390
 ---------------------------------------------------------------------

 SCF Done:  E(UB3LYP) =  -916.911439721     A.U. after    1 cycles

 Alpha  occ. eigenvalues --  -19.19561 -19.13809 -19.13614 -19.13445 -10.33019
 Alpha  occ. eigenvalues --  -10.28854 -10.28715 -10.26854 -10.21844 -10.21450
 Alpha  occ. eigenvalues --  -10.21278 -10.21227 -10.20817 -10.20705 -10.20690
 Alpha  occ. eigenvalues --  -10.20151 -10.20115 -10.20071 -10.20052 -10.18826
 Alpha  occ. eigenvalues --   -1.13691  -1.06947  -1.06687  -1.05398  -0.90167
 Alpha  occ. eigenvalues --   -0.88824  -0.82220  -0.79498  -0.78390  -0.78158
 Alpha  occ. eigenvalues --   -0.75926  -0.69919  -0.68061  -0.66053  -0.62951
 Alpha  occ. eigenvalues --   -0.61594  -0.59158  -0.56811  -0.54517  -0.51901
 Alpha  occ. eigenvalues --   -0.51386  -0.50759  -0.50329  -0.49357  -0.47695
 Alpha  occ. eigenvalues --   -0.46523  -0.46207  -0.46002  -0.45772  -0.45357
 Alpha  occ. eigenvalues --   -0.44979  -0.43524  -0.42730  -0.42293  -0.40948
 Alpha  occ. eigenvalues --   -0.40353  -0.39379  -0.38720  -0.38438  -0.37196
 Alpha  occ. eigenvalues --   -0.37003  -0.34288  -0.30903  -0.29332  -0.29260
 Alpha  occ. eigenvalues --   -0.28614  -0.28138  -0.28064  -0.27740
 Alpha virt. eigenvalues --   -0.12353  -0.07956  -0.04214  -0.03305  -0.01986
 Alpha virt. eigenvalues --   -0.00847  -0.00232   0.00819   0.01258   0.01951
 Alpha virt. eigenvalues --    0.02499   0.02985   0.03074   0.03514   0.03785

  Beta  occ. eigenvalues --  -19.19561 -19.13809 -19.13614 -19.13445 -10.33019
  Beta  occ. eigenvalues --  -10.28854 -10.28715 -10.26854 -10.21844 -10.21450
  Beta  occ. eigenvalues --  -10.21278 -10.21227 -10.20817 -10.20705 -10.20690
  Beta  occ. eigenvalues --  -10.20151 -10.20115 -10.20071 -10.20052 -10.18826
  Beta  occ. eigenvalues --   -1.13691  -1.06947  -1.06687  -1.05398  -0.90167
  Beta  occ. eigenvalues --   -0.88824  -0.82220  -0.79498  -0.78390  -0.78158
  Beta  occ. eigenvalues --   -0.75926  -0.69919  -0.68061  -0.66053  -0.62951
  Beta  occ. eigenvalues --   -0.61594  -0.59158  -0.56811  -0.54517  -0.51901
  Beta  occ. eigenvalues --   -0.51386  -0.50759  -0.50329  -0.49357  -0.47695
  Beta  occ. eigenvalues --   -0.46523  -0.46207  -0.46002  -0.45772  -0.45357
  Beta  occ. eigenvalues --   -0.44979  -0.43524  -0.42730  -0.42293  -0.40948
  Beta  occ. eigenvalues --   -0.40353  -0.39379  -0.38720  -0.38438  -0.37196
  Beta  occ. eigenvalues --   -0.37003  -0.34288  -0.30903  -0.29332  -0.29260
  Beta  occ. eigenvalues --   -0.28614  -0.28138  -0.28064  -0.27740
  Beta virt. eigenvalues --   -0.12353  -0.07956  -0.04214  -0.03305  -0.01986
  Beta virt. eigenvalues --   -0.00847  -0.00232   0.00819   0.01258   0.01951
  Beta virt. eigenvalues --    0.02499   0.02985   0.03074   0.03514   0.03785

 Mulliken charges and spin densities:
               1          2
     1  C    0.163412  -0.000000
     2  C   -0.412133  -0.000000
     3  C   -0.414885  -0.000000
     4  C    0.255965   0.000000
     5  C    0.136626   0.000000
     6  C    0.178008  -0.000000
     7  C   -0.767451  -0.000000
     8  C    0.491658  -0.000000
     9  C    0.144578   0.000000
    10  C   -0.570300   0.000000
    11  C    0.213159  -0.000000
    12  C   -0.774148   0.000000
    13  C    0.279814  -0.000000
    14  C    0.286901  -0.000000
    15  O   -0.264351   0.000000
    16  O   -0.272654  -0.000000
    17  H    0.189467   0.000000
    18  H    0.203506   0.000000
    19  H    0.187262   0.000000
    20  H    0.207713   0.000000
    21  H    0.236845   0.000000
    22  H    0.209052   0.000000
    23  O   -0.001756  -0.000000
    24  C    0.126396   0.000000
    25  C   -0.536265  -0.000000
    26  O   -0.274750   0.000000
    27  H    0.210199  -0.000000
    28  H    0.192595   0.000000
    29  H    0.194638  -0.000000
    30  H    0.180896   0.000000
 Sum of Mulliken charges =  -0.00000  -0.00000

 Dipole moment (field-independent basis, Debye):
    X=              0.1309    Y=              0.9439    Z=             -1.9416  Tot=              2.1628
 Quadrupole moment (field-independent basis, Debye-Ang):
   XX=            -70.3787   YY=           -119.1394   ZZ=           -121.7010
   XY=              2.1538   XZ=            -12.6796   YZ=             -2.7733

  Exact polarizability: 391.088   6.207 302.857 -13.330   5.421 147.145
 Approx polarizability: 406.695   9.393 394.019 -17.825   4.506 177.812

                      1                      2                      3
                      A                      A                      A
 Frequencies --     15.9408                29.8395                51.7073
 Red. masses --      8.7412                 7.2073                 1.6084
 Frc consts  --      0.0013                 0.0038                 0.0025
 IR Inten    --      1.3492                 8.2499                 3.7328

                      4                      5                      6
                      A                      A                      A
 Frequencies --     61.0746                80.5236               109.6591
 Red. masses --      5.0863                 1.7759                 4.4654
 Frc consts  --      0.0112                 0.0068                 0.0316
 IR Inten    --      2.5055                 2.6799                 0.1950

                      7                      8                      9
                      A                      A                      A
 Frequencies --    123.0307               152.8887               197.6446
 Red. masses --      5.5215                 8.7358                 6.7112
 Frc consts  --      0.0492                 0.1203                 0.1545
 IR Inten    --      2.1592                 7.1442                 1.1912

                     10                     11                     12
                      A                      A                      A
 Frequencies --    206.1573               256.6950               290.3225
 Red. masses --      6.3152                 5.0756                 6.7337
 Frc consts  --      0.1581                 0.1970                 0.3344
 IR Inten    --      1.0583                 2.6229                 1.7763

                     13                     14                     15
                      A                      A                      A
 Frequencies --    311.9779               381.5952               400.3184
 Red. masses --      5.6129                 7.7146                 8.0603
 Frc consts  --      0.3219                 0.6619                 0.7611
 IR Inten    --      2.0519                11.9525                47.5233

                     16                     17                     18
                      A                      A                      A
 Frequencies --    406.1315               414.8502               443.8723
 Red. masses --      5.5119                 3.4843                 3.5835
 Frc consts  --      0.5357                 0.3533                 0.4160
 IR Inten    --      3.3013                 1.7222                 0.0098

                     19                     20                     21
                      A                      A                      A
 Frequencies --    451.8891               456.3763               479.5626
 Red. masses --      5.9657                 4.1693                10.5856
 Frc consts  --      0.7177                 0.5116                 1.4343
 IR Inten    --      6.8774                 1.5779                 0.9181

                     22                     23                     24
                      A                      A                      A
 Frequencies --    545.2564               570.8342               598.7559
 Red. masses --      5.0777                 5.2051                 2.8723
 Frc consts  --      0.8894                 0.9993                 0.6067
 IR Inten    --     14.8105                 7.7234                 9.6123

                     25                     26                     27
                      A                      A                      A
 Frequencies --    645.2686               655.1486               667.6518
 Red. masses --      6.7902                 5.6600                 4.9390
 Frc consts  --      1.6658                 1.4314                 1.2971
 IR Inten    --     27.3058                 0.3174                15.1747

                     28                     29                     30
                      A                      A                      A
 Frequencies --    697.1766               700.1364               722.4248
 Red. masses --      5.7747                 5.5114                 3.6416
 Frc consts  --      1.6537                 1.5918                 1.1198
 IR Inten    --     16.4025                 7.7154                41.4494

                     31                     32                     33
                      A                      A                      A
 Frequencies --    731.6991               768.7337               801.9851
 Red. masses --      2.7456                 4.0045                 3.8382
 Frc consts  --      0.8661                 1.3943                 1.4545
 IR Inten    --     65.0193                14.2659                 1.2481

                     34                     35                     36
                      A                      A                      A
 Frequencies --    810.0887               843.0345               871.5021
 Red. masses --      2.1274                 3.5129                 2.1520
 Frc consts  --      0.8226                 1.4710                 0.9630
 IR Inten    --     12.8735                 1.1108                47.2815

                     37                     38                     39
                      A                      A                      A
 Frequencies --    904.0534               916.5294               940.6749
 Red. masses --      2.8159                 1.4745                 6.7689
 Frc consts  --      1.3560                 0.7298                 3.5289
 IR Inten    --    112.9955                 8.5656               204.9316

                     40                     41                     42
                      A                      A                      A
 Frequencies --    944.1839               998.2505              1000.6379
 Red. masses --      1.9463                 2.2491                 1.6259
 Frc consts  --      1.0223                 1.3205                 0.9592
 IR Inten    --     74.7154                13.1926                 6.7077

                     43                     44                     45
                      A                      A                      A
 Frequencies --   1004.1696              1020.8231              1024.7465
 Red. masses --      1.3937                 2.0472                 1.3335
 Frc consts  --      0.8280                 1.2569                 0.8250
 IR Inten    --      3.1440               169.7957                 0.0023

                     46                     47                     48
                      A                      A                      A
 Frequencies --   1057.0059              1062.8854              1109.4104
 Red. masses --      1.9530                 1.7796                 2.8315
 Frc consts  --      1.2856                 1.1846                 2.0533
 IR Inten    --      2.1066                14.4424                12.8606

                     49                     50                     51
                      A                      A                      A
 Frequencies --   1116.2308              1155.5342              1179.2449
 Red. masses --      1.9739                 1.6549                 1.3496
 Frc consts  --      1.4490                 1.3019                 1.1057
 IR Inten    --     17.6831               103.3957                15.8771

                     52                     53                     54
                      A                      A                      A
 Frequencies --   1186.5575              1189.9219              1224.8600
 Red. masses --      2.7926                 2.0002                 2.9221
 Frc consts  --      2.3166                 1.6687                 2.5830
 IR Inten    --    899.8706               257.7095                36.4660

                     55                     56                     57
                      A                      A                      A
 Frequencies --   1229.8435              1276.3250              1297.9004
 Red. masses --      1.9530                 1.6045                 5.9331
 Frc consts  --      1.7404                 1.5400                 5.8886
 IR Inten    --      4.2293                23.7607              1255.6822

                     58                     59                     60
                      A                      A                      A
 Frequencies --   1313.6320              1352.5098              1363.7191
 Red. masses --      2.3504                 7.9901                 8.9255
 Frc consts  --      2.3896                 8.6115                 9.7798
 IR Inten    --     27.5921                62.7930                 9.3104

                     61                     62                     63
                      A                      A                      A
 Frequencies --   1396.4412              1445.4742              1458.4778
 Red. masses --      1.2892                 4.0594                 1.0555
 Frc consts  --      1.4812                 4.9973                 1.3229
 IR Inten    --     59.2971                40.4711                30.5547

                     64                     65                     66
                      A                      A                      A
 Frequencies --   1462.3260              1481.3325              1501.5986
 Red. masses --      1.0465                 2.4013                 2.7131
 Frc consts  --      1.3185                 3.1046                 3.6044
 IR Inten    --     17.7897                 4.1418                 5.8512

                     67                     68                     69
                      A                      A                      A
 Frequencies --   1512.5479              1604.7428              1615.1792
 Red. masses --      2.8437                 6.7643                 7.8099
 Frc consts  --      3.8332                10.2632                12.0043
 IR Inten    --     13.2815                 9.5930                67.4275

                     70                     71                     72
                      A                      A                      A
 Frequencies --   1617.4228              1628.3033              1696.0178
 Red. masses --      6.2642                 6.1677                12.3788
 Frc consts  --      9.6552                 9.6348                20.9793
 IR Inten    --    428.0768                46.5381                 8.8305

                     73                     74                     75
                      A                      A                      A
 Frequencies --   1704.0333              1784.6767              3054.5474
 Red. masses --     11.6639                11.4810                 1.0367
 Frc consts  --     19.9549                21.5451                 5.6989
 IR Inten    --    740.4628               456.0346                 0.2652

                     76                     77                     78
                      A                      A                      A
 Frequencies --   3116.0324              3161.8802              3179.9763
 Red. masses --      1.1001                 1.1035                 1.0875
 Frc consts  --      6.2932                 6.5001                 6.4796
 IR Inten    --      2.5146                 9.0432                 3.0643

                     79                     80                     81
                      A                      A                      A
 Frequencies --   3192.0609              3198.8678              3203.9195
 Red. masses --      1.0914                 1.0893                 1.0926
 Frc consts  --      6.5519                 6.5671                 6.6082
 IR Inten    --      9.7398                 0.6768                 3.1583

                     82                     83                     84
                      A                      A                      A
 Frequencies --   3207.0043              3210.5918              3211.7164
 Red. masses --      1.0955                 1.0944                 1.0925
 Frc consts  --      6.6387                 6.6468                 6.6397
 IR Inten    --     21.9824                 1.4972                 8.8851

 - Thermochemistry -
 -------------------
 Temperature   298.150 Kelvin.  Pressure   1.00000 Atm.
 Atom     1 has atomic number  6 and mass  12.00000

 Molecular mass:   266.05791 amu.
 Principal axes and moments of inertia in atomic units:
                           1         2         3
     Eigenvalues --  1979.84673********************
           X            0.99691  -0.07806  -0.00857
           Y            0.07723   0.99433  -0.07315
           Z            0.01423   0.07226   0.99728
 This molecule is an asymmetric top.
 Rotational symmetry number  1.
 Warning -- assumption of classical behavior for rotation
           may cause significant error
 Rotational temperatures (Kelvin)      0.04375     0.00858     0.00741
 Rotational constants (GHZ):           0.91156     0.17872     0.15449
 Zero-point vibrational energy     576998.3 (Joules/Mol)
                                  137.90589 (Kcal/Mol)
 Warning -- explicit consideration of  24 degrees of freedom as
           vibrations may cause significant error
 Vibrational temperatures:     22.94    42.93    74.40    87.87   115.86
          (Kelvin)            157.78   177.01   219.97   284.37   296.61
                              369.33   417.71   448.87   549.03   575.97
                              584.33   596.88   638.63   650.17   656.62
                              689.98   784.50   821.30   861.48   928.40
                              942.61   960.60  1003.08  1007.34  1039.41
                             1052.75  1106.04  1153.88  1165.54  1212.94
                             1253.90  1300.73  1318.68  1353.42  1358.47
                             1436.26  1439.69  1444.78  1468.74  1474.38
                             1520.80  1529.26  1596.19  1606.01  1662.56
                             1696.67  1707.19  1712.03  1762.30  1769.47
                             1836.35  1867.39  1890.02  1945.96  1962.09
                             2009.17  2079.71  2098.42  2103.96  2131.31
                             2160.47  2176.22  2308.87  2323.88  2327.11
                             2342.77  2440.19  2451.72  2567.75  4394.81
                             4483.28  4549.24  4575.28  4592.66  4602.46
                             4609.73  4614.16  4619.33  4620.94

 Zero-point correction=                           0.219767 (Hartree/Particle)
 Thermal correction to Energy=                    0.235960
 Thermal correction to Enthalpy=                  0.236904
 Thermal correction to Gibbs Free Energy=         0.173456
 Sum of electronic and zero-point Energies=           -916.691673
 Sum of electronic and thermal Energies=              -916.675480
 Sum of electronic and thermal Enthalpies=            -916.674536
 Sum of electronic and thermal Free Energies=         -916.737984

                     E (Thermal)             CV                S
                      KCal/Mol        Cal/Mol-Kelvin    Cal/Mol-Kelvin
 Total                  148.067             61.696            133.537
 Electronic               0.000              0.000              0.000
 Translational            0.889              2.981             42.635
 Rotational               0.889              2.981             33.812
 Vibrational            146.289             55.734             57.091
 Vibration     1          0.593              1.986              7.085
 Vibration     2          0.594              1.984              5.840
 Vibration     3          0.596              1.977              4.751
 Vibration     4          0.597              1.973              4.422
 Vibration     5          0.600              1.962              3.878
 Vibration     6          0.606              1.941              3.275
 Vibration     7          0.610              1.930              3.052
 Vibration     8          0.619              1.899              2.636
 Vibration     9          0.637              1.843              2.155
 Vibration    10          0.641              1.831              2.077
 Vibration    11          0.666              1.751              1.684
 Vibration    12          0.686              1.692              1.472
 Vibration    13          0.700              1.651              1.352
 Vibration    14          0.751              1.509              1.033
 Vibration    15          0.766              1.469              0.961
 Vibration    16          0.771              1.457              0.940
 Vibration    17          0.778              1.438              0.910
 Vibration    18          0.803              1.374              0.815
 Vibration    19          0.811              1.357              0.790
 Vibration    20          0.815              1.347              0.777
 Vibration    21          0.836              1.295              0.711
 Vibration    22          0.900              1.150              0.554
 Vibration    23          0.927              1.094              0.503
 Vibration    24          0.957              1.034              0.452

 Optimization completed.
    -- Stationary point found.
 Normal termination of Gaussian 16 at Sat Feb 10 19:30:34 2024.
