 Gaussian 16, Revision A.03,
 Gaussian 16:  ES64L-G16RevA.03 25-Dec-2016

 ----------------------------------------------------------------
 #P UB3LYP/6-311++G(d,p) SCRF=(PCM,Solvent=n,n-DiMethylFormamide)
 ----------------------------------------------------------------

 ------------------
 Radical PCM in DMF
 ------------------
 Symbolic Z-matrix:
 Charge = -1 Multiplicity = 2

                         Standard orientation:
 ---------------------------------------------------------------------
 Center     Atomic      Atomic             Coordinates (Angstroms)
 Number     Number       Type             X           Y           Z
 ---------------------------------------------------------------------
      1          6           0       -4.445035    1.389364    1.116958
      2          6           0       -5.137928    2.237557    0.271446
      3          6           0       -4.847402    2.247158   -1.107187
      4          6           0       -3.445956    0.527627    0.621891
      5          6           0       -3.154320    0.537624   -0.765316
      6          6           0       -3.869535    1.408196   -1.611371
      7          6           0       -2.725136   -0.361916    1.545646
      8          6           0       -1.707954   -1.218328    0.966517
      9          6           0       -1.434473   -1.214444   -0.396594
     10          6           0       -2.120664   -0.343636   -1.326186
     11          8           0       -2.991961   -0.365686    2.779834
     12          8           0       -1.851139   -0.334486   -2.560483
     13          1           0       -5.905163    2.895919    0.668858
     14          1           0       -5.390853    2.912637   -1.771867
     15          6           0       -0.965152   -2.121666    1.922165
     16          1           0       -4.646934    1.360291    2.181602
     17          1           0       -3.623102    1.393646   -2.666978
     18          1           0       -1.193701   -3.180579    1.742552
     19          1           0       -1.264605   -1.882265    2.942723
     20          1           0        0.119728   -2.005995    1.830324
     21          6           0       -0.375990   -2.121017   -1.005062
     22          6           0        0.961898   -1.432886   -1.113767
     23          6           0        2.165480   -1.838847   -0.684012
     24          6           0        3.381170   -0.954443   -0.883534
     25          6           0        2.431292   -3.157425    0.003145
     26          6           0        3.895435   -0.288403    0.418632
     27          6           0        5.141913    0.521862    0.198576
     28          6           0        5.314188    1.845487    0.317472
     29          6           0        4.239604    2.819784    0.730412
     30          6           0        6.654235    2.481264    0.032062
     31          1           0       -0.707920   -2.358992   -2.022079
     32          1           0       -0.300931   -3.054641   -0.445293
     33          1           0        0.905580   -0.470685   -1.619313
     34          1           0        3.144475   -0.165420   -1.603249
     35          1           0        4.201824   -1.542487   -1.320384
     36          1           0        1.526629   -3.750220    0.134745
     37          1           0        2.878788   -3.015333    0.994091
     38          1           0        3.144060   -3.757205   -0.578604
     39          1           0        4.113169   -1.070481    1.156757
     40          1           0        3.089506    0.315098    0.840697
     41          1           0        6.007618   -0.060322   -0.120766
     42          1           0        3.276100    2.345986    0.912263
     43          1           0        4.096339    3.583327   -0.043647
     44          1           0        4.532059    3.353136    1.643516
     45          1           0        7.400052    1.739522   -0.262995
     46          1           0        7.033451    3.015169    0.912717
     47          1           0        6.574621    3.223800   -0.771833
 ---------------------------------------------------------------------

 SCF Done:  E(UB3LYP) =  -965.522062061     A.U. after   18 cycles

 The electronic state is 2-A.
 Alpha  occ. eigenvalues --  -19.07111 -19.07078 -10.21560 -10.21510 -10.17535
 Alpha  occ. eigenvalues --  -10.17096 -10.17047 -10.17007 -10.16883 -10.16836
 Alpha  occ. eigenvalues --  -10.16730 -10.16719 -10.16628 -10.16551 -10.16470
 Alpha  occ. eigenvalues --  -10.16418 -10.16036 -10.15994 -10.15990 -10.15903
 Alpha  occ. eigenvalues --  -10.15874 -10.15763 -10.15034  -0.99625  -0.99359
 Alpha  occ. eigenvalues --   -0.85491  -0.82609  -0.81586  -0.80185  -0.76188
 Alpha  occ. eigenvalues --   -0.74795  -0.74694  -0.72758  -0.69056  -0.68735
 Alpha  occ. eigenvalues --   -0.67979  -0.65654  -0.64339  -0.60775  -0.59409
 Alpha  occ. eigenvalues --   -0.58022  -0.54950  -0.51977  -0.51543  -0.50545
 Alpha  occ. eigenvalues --   -0.48856  -0.47194  -0.46333  -0.46194  -0.44378
 Alpha  occ. eigenvalues --   -0.43924  -0.43342  -0.42933  -0.42278  -0.41869
 Alpha  occ. eigenvalues --   -0.41451  -0.40957  -0.40812  -0.40005  -0.39465
 Alpha  occ. eigenvalues --   -0.38760  -0.38327  -0.37824  -0.37388  -0.37293
 Alpha  occ. eigenvalues --   -0.37044  -0.36652  -0.36333  -0.35899  -0.35523
 Alpha  occ. eigenvalues --   -0.34622  -0.34220  -0.33325  -0.33263  -0.32688
 Alpha  occ. eigenvalues --   -0.31724  -0.26541  -0.25418  -0.24592  -0.24248
 Alpha  occ. eigenvalues --   -0.23973  -0.23301  -0.22381  -0.14739
 Alpha virt. eigenvalues --   -0.03051  -0.01253  -0.00776  -0.00075   0.00270
 Alpha virt. eigenvalues --    0.00696   0.00962   0.01391   0.01652   0.01875
 Alpha virt. eigenvalues --    0.02517   0.02640   0.03602   0.03647   0.03822

  Beta  occ. eigenvalues --  -19.06490 -19.06479 -10.21387 -10.21338 -10.17534
  Beta  occ. eigenvalues --  -10.17061 -10.17013 -10.17004 -10.16830 -10.16786
  Beta  occ. eigenvalues --  -10.16722 -10.16712 -10.16551 -10.16486 -10.16470
  Beta  occ. eigenvalues --  -10.16289 -10.16046 -10.15994 -10.15990 -10.15903
  Beta  occ. eigenvalues --  -10.15874 -10.15752 -10.15046  -0.98557  -0.98270
  Beta  occ. eigenvalues --   -0.85284  -0.82531  -0.81399  -0.80025  -0.76048
  Beta  occ. eigenvalues --   -0.74669  -0.74527  -0.72584  -0.69056  -0.68551
  Beta  occ. eigenvalues --   -0.67929  -0.65242  -0.64007  -0.60712  -0.59316
  Beta  occ. eigenvalues --   -0.57724  -0.54679  -0.51931  -0.51481  -0.50411
  Beta  occ. eigenvalues --   -0.48638  -0.47166  -0.46291  -0.45936  -0.44306
  Beta  occ. eigenvalues --   -0.43840  -0.43191  -0.42778  -0.42206  -0.41694
  Beta  occ. eigenvalues --   -0.41045  -0.40720  -0.40266  -0.39907  -0.38888
  Beta  occ. eigenvalues --   -0.38524  -0.38326  -0.37668  -0.37309  -0.37087
  Beta  occ. eigenvalues --   -0.36998  -0.36327  -0.35830  -0.35644  -0.34492
  Beta  occ. eigenvalues --   -0.34104  -0.33422  -0.33149  -0.33076  -0.32658
  Beta  occ. eigenvalues --   -0.31648  -0.24772  -0.24578  -0.24288  -0.23691
  Beta  occ. eigenvalues --   -0.23476  -0.22590  -0.22067
  Beta virt. eigenvalues --   -0.08167  -0.02341  -0.00782  -0.00209  -0.00047
  Beta virt. eigenvalues --    0.00273   0.00705   0.00988   0.01400   0.01684
  Beta virt. eigenvalues --    0.01899   0.02537   0.02661   0.03622   0.03665

 Mulliken charges and spin densities:
               1          2
     1  C    0.073982   0.029330
     2  C   -0.483587   0.025324
     3  C   -0.449137   0.026638
     4  C   -0.071452   0.002969
     5  C    0.162049   0.016169
     6  C    0.000068   0.028693
     7  C   -0.707996   0.108514
     8  C    0.697773   0.097606
     9  C    0.830178   0.102510
    10  C   -0.876424   0.098449
    11  O   -0.478146   0.227962
    12  O   -0.458919   0.222494
    13  H    0.174474  -0.002176
    14  H    0.179396  -0.002209
    15  C   -0.520467   0.001916
    16  H    0.169848  -0.002401
    17  H    0.165593  -0.002263
    18  H    0.181966   0.006320
    19  H    0.175402  -0.001881
    20  H    0.178073   0.004314
    21  C    0.106605   0.000355
    22  C   -0.760946  -0.013690
    23  C    0.711303   0.023806
    24  C   -0.676707   0.001624
    25  C   -0.731095  -0.001697
    26  C   -0.191671   0.000390
    27  C   -0.065600  -0.000150
    28  C    0.304901   0.000184
    29  C   -0.667692  -0.000017
    30  C   -0.627775  -0.000006
    31  H    0.193659   0.003047
    32  H    0.186608  -0.000254
    33  H    0.209018  -0.002290
    34  H    0.164597   0.000081
    35  H    0.140261  -0.000031
    36  H    0.116248   0.000320
    37  H    0.159319   0.000063
    38  H    0.163316  -0.000038
    39  H    0.137034  -0.000024
    40  H    0.111213  -0.000065
    41  H    0.185267  -0.000008
    42  H    0.144482   0.000103
    43  H    0.148779   0.000000
    44  H    0.145557   0.000003
    45  H    0.152176   0.000002
    46  H    0.146805   0.000004
    47  H    0.151664   0.000009
 Sum of Mulliken charges =  -1.00000   1.00000

 Dipole moment (field-independent basis, Debye):
    X=             12.0201    Y=              1.1796    Z=             -0.1427  Tot=             12.0787
 Quadrupole moment (field-independent basis, Debye-Ang):
   XX=           -175.2614   YY=           -139.1104   ZZ=           -180.6842
   XY=             -4.5411   XZ=              9.1460   YZ=             -1.0363

 Normal termination of Gaussian 16 at Sun Jan 21 08:30:56 2024.
