 Q-Chem 5.4, Q-Chem, Inc., Pleasanton, CA (2021)
 Q-Chem 5.4.0 for Intel X86 EM64T Linux

User input:
--------------------------------------------------------------
$molecule
0 1
C                  0.6534080000      1.4177030000      0.4012650000
C                 -0.5233380000      0.6029540000      0.0390780000
C                 -0.4181840000     -0.6612420000     -0.3974290000
C                  0.9443000000     -1.2735740000     -0.5195150000
C                  2.1481280000     -0.4645060000     -0.1531080000
C                  2.0149480000      0.8109120000      0.2783680000
C                  3.1878940000      1.6711150000      0.6538330000
C                  3.4867950000     -1.1342140000     -0.2959570000
O                  0.5062600000      2.5663840000      0.7954280000
O                  1.0610790000     -2.4242910000     -0.9138830000
C                 -1.5877910000     -1.5427660000     -0.7701980000
C                 -2.9069080000     -0.8322430000     -0.8881250000
C                 -3.9827160000     -0.9544840000     -0.0996560000
C                 -4.0629390000     -1.8415100000      1.1166520000
C                 -5.2445630000     -0.1800880000     -0.3915580000
H                 -1.4842380000      1.0918910000      0.1539010000
H                  3.8839960000      1.7727010000     -0.1848000000
H                  3.7497970000      1.2271700000      1.4821550000
H                  2.8518860000      2.6624010000      0.9532010000
H                  3.3664340000     -2.1661370000     -0.6204360000
H                  4.0329770000     -1.1236750000      0.6523710000
H                  4.1094440000     -0.6095210000     -1.0281120000
H                 -1.6296830000     -2.3673520000     -0.0523240000
H                 -1.3410180000     -2.0265700000     -1.7226630000
H                 -2.9798900000     -0.1476970000     -1.7317830000
H                 -3.1374810000     -2.3773070000      1.3260660000
H                 -4.8631720000     -2.5813800000      0.9995750000
H                 -4.3149980000     -1.2484350000      2.0031260000
H                 -5.1406510000      0.4490000000     -1.2776090000
H                 -5.5149680000      0.4613620000      0.4552190000
H                 -6.0902620000     -0.8590660000     -0.5517360000
$end
$rem
MAX_SCF_CYCLES=200
BASIS  =  6-311++G(d,p)
GUI  =  2
JOB_TYPE  =  SP
THRESH = 14
SCF_CONVERGENCE = 8
METHOD  =  B3LYP
SOLVENT_METHOD = COSMO
$end
$solvent
dielectric 37.219
opticaldielectric 1.43
$end

--------------------------------------------------------------

             Standard Nuclear Orientation (Angstroms)
    I     Atom           X                Y                Z
 ----------------------------------------------------------------
    1      C       1.3376078287    -1.5491616938     0.0130403800
    2      C       0.0170228500    -0.9071022870     0.1664728945
    3      C      -0.1345100836     0.4245009766     0.2269523913
    4      C       1.0809975768     1.2960980322     0.1316747969
    5      C       2.4271654455     0.6633913781    -0.0282043171
    6      C       2.5532347689    -0.6827275700    -0.0798747059
    7      C       3.8791862907    -1.3719885746    -0.2331630476
    8      C       3.6077258627     1.5902039136    -0.1189765826
    9      O       1.4246107169    -2.7683039508    -0.0380252530
   10      O       0.9638067711     2.5113831109     0.1832651155
   11      C      -1.4612194361     1.1336913463     0.3715661451
   12      C      -2.6215417090     0.2456044641     0.7233804190
   13      C      -3.6798464148    -0.0677293724    -0.0354358535
   14      C      -3.8975683740     0.4087731718    -1.4490123385
   15      C      -4.7762292439    -0.9559450716     0.4995140112
   16      H      -0.8284858616    -1.5835542520     0.2221530425
   17      H       4.5597328301    -1.0980068974     0.5792244627
   18      H       4.3665301168    -1.0797048058    -1.1691147952
   19      H       3.7481626756    -2.4527298745    -0.2319123679
   20      H       3.2825951143     2.6286191195    -0.0940301128
   21      H       4.1702462626     1.4183936503    -1.0419087991
   22      H       4.3004248932     1.4223170500     0.7123040678
   23      H      -1.6423104460     1.6990382843    -0.5474708382
   24      H      -1.3370777733     1.9038492715     1.1420195298
   25      H      -2.5833673030    -0.1747417894     1.7271434195
   26      H      -3.0873970497     1.0312830552    -1.8278381937
   27      H      -4.8280116365     0.9837557402    -1.5208306952
   28      H      -4.0075842873    -0.4465785039    -2.1253095052
   29      H      -4.5763074289    -1.2782699620     1.5231221994
   30      H      -4.8959658023    -1.8491364368    -0.1245697941
   31      H      -5.7406763799    -0.4348192099     0.4874943230
 ----------------------------------------------------------------

   15    -655.6217853298      4.78e-09  Convergence criterion met
 Total energy in the final basis set =     -655.6217853298
   11    -655.6346647805      3.90e-09  Convergence criterion met
 Total energy in the final basis set =     -655.6346647805

                    Orbital Energies (a.u.)
 --------------------------------------------------------------

 Alpha MOs
 -- Occupied --
-19.1396 -19.1370 -10.2832 -10.2808 -10.2151 -10.2089 -10.2081 -10.1966
-10.1835 -10.1818 -10.1697 -10.1696 -10.1645 -10.1614 -10.1601  -1.0715
 -1.0676  -0.8663  -0.8321  -0.8069  -0.7482  -0.7452  -0.6928  -0.6895
 -0.6849  -0.6417  -0.5933  -0.5771  -0.5386  -0.5151  -0.4950  -0.4753
 -0.4700  -0.4587  -0.4489  -0.4358  -0.4322  -0.4268  -0.4223  -0.4189
 -0.4134  -0.4094  -0.3990  -0.3898  -0.3842  -0.3809  -0.3769  -0.3703
 -0.3616  -0.3349  -0.2988  -0.2921  -0.2759  -0.2710  -0.2445

          Ground-State Mulliken Net Atomic Charges

     Atom                 Charge (a.u.)
  ----------------------------------------
      1 C                    -0.914020
      2 C                    -1.096180
      3 C                     1.411937
      4 C                    -1.032043
      5 C                     0.282069
      6 C                     1.171891
      7 C                    -0.435152
      8 C                    -0.503462
      9 O                    -0.308007
     10 O                    -0.275935
     11 C                    -0.527297
     12 C                     0.336054
     13 C                     0.221341
     14 C                    -0.657663
     15 C                    -0.619868
     16 H                     0.230018
     17 H                     0.181223
     18 H                     0.185549
     19 H                     0.196203
     20 H                     0.202801
     21 H                     0.179715
     22 H                     0.186608
     23 H                     0.222193
     24 H                     0.223771
     25 H                     0.196650
     26 H                     0.135635
     27 H                     0.161432
     28 H                     0.165502
     29 H                     0.161103
     30 H                     0.162195
     31 H                     0.155739
  ----------------------------------------
  Sum of atomic charges =     0.000000

                    Cartesian Multipole Moments
 -----------------------------------------------------------------
    Charge (ESU x 10^10)
                 0.0000
    Dipole Moment (Debye)
         X      -0.0052      Y       0.8316      Z      -0.4818
       Tot       0.9611
    Quadrupole Moments (Debye-Ang)
        XX     -71.3412     XY       3.8021     YY    -111.9805
        XZ       0.8943     YZ      -1.4069     ZZ     -88.4949

 Total job time:  155.19s(wall), 1107.99s(cpu)
        *  Thank you very much for using Q-Chem.  Have a nice day.  *
