 Gaussian 16, Revision A.03,
 Gaussian 16:  ES64L-G16RevA.03 25-Dec-2016

 ----------------------------------------------------------------------
 #P UB3LYP/6-311++G(d,p) nosym opt freq SCRF=(PCM,Solvent=n,n-DiMethylF
 ormamide)
 ----------------------------------------------------------------------

 -------
 Radical
 -------
 Symbolic Z-matrix:
 Charge = -1 Multiplicity = 2

 SCF Done:  E(UB3LYP) =  -1293.12523983     A.U. after   20 cycles
 SCF Done:  E(UB3LYP) =  -1293.12593751     A.U. after   16 cycles
 SCF Done:  E(UB3LYP) =  -1293.12614962     A.U. after   15 cycles
 SCF Done:  E(UB3LYP) =  -1293.12616182     A.U. after   15 cycles
 SCF Done:  E(UB3LYP) =  -1293.12622651     A.U. after   13 cycles
 SCF Done:  E(UB3LYP) =  -1293.12625470     A.U. after   14 cycles
 SCF Done:  E(UB3LYP) =  -1293.12626136     A.U. after   13 cycles
 SCF Done:  E(UB3LYP) =  -1293.12626585     A.U. after   13 cycles
 SCF Done:  E(UB3LYP) =  -1293.12626768     A.U. after   13 cycles
 SCF Done:  E(UB3LYP) =  -1293.12626822     A.U. after   12 cycles
 SCF Done:  E(UB3LYP) =  -1293.12626840     A.U. after   10 cycles
 SCF Done:  E(UB3LYP) =  -1293.12626850     A.U. after    9 cycles
 SCF Done:  E(UB3LYP) =  -1293.12626856     A.U. after   10 cycles
 SCF Done:  E(UB3LYP) =  -1293.12626859     A.U. after    9 cycles
 Optimization completed.
    -- Stationary point found.
 Normal termination of Gaussian 16 at Sat Feb 10 23:53:44 2024.

 ----------------------------------------------------------------------
 #P Geom=AllCheck Guess=TCheck SCRF=Check GenChk UB3LYP/6-311++G(d,p) F
 req
 ----------------------------------------------------------------------

 Structure from the checkpoint file:  "218-rad.chk"
 -------
 Radical
 -------
 Charge = -1 Multiplicity = 2

                          Input orientation:
 ---------------------------------------------------------------------
 Center     Atomic      Atomic             Coordinates (Angstroms)
 Number     Number       Type             X           Y           Z
 ---------------------------------------------------------------------
      1          6           0        5.061452   -2.519562    0.038545
      2          6           0        5.769555   -1.559929   -0.658641
      3          6           0        5.082932   -0.512530   -1.305228
      4          6           0        3.652617   -2.473691    0.117792
      5          6           0        2.958590   -1.416072   -0.534295
      6          6           0        3.704616   -0.446874   -1.240752
      7          6           0        2.940578   -3.512792    0.866865
      8          6           0        1.484316   -3.400751    0.906778
      9          6           0        0.788574   -2.338821    0.252715
     10          6           0        1.497752   -1.307485   -0.491655
     11          6           0        0.745665   -4.369670    1.614915
     12          6           0       -0.625168   -2.295362    0.334477
     13          6           0       -1.338094   -3.244831    1.028091
     14          8           0        3.548763   -4.449713    1.444285
     15          8           0        0.886794   -0.367444   -1.070337
     16          1           0        5.574105   -3.330475    0.541395
     17          1           0       -2.418579   -3.201415    1.079732
     18          1           0        3.163873    0.352585   -1.732162
     19          1           0        1.277489   -5.172394    2.107723
     20          1           0       -1.139683   -1.486945   -0.169734
     21          6           0       -0.629081   -4.288931    1.670121
     22          1           0        5.638162    0.241099   -1.852950
     23          1           0        6.851595   -1.610907   -0.709327
     24         16           0       -1.539203   -5.524657    2.575380
     25          8           0       -0.610229   -6.593936    2.971147
     26          8           0       -2.754073   -5.899743    1.836110
     27          7           0       -2.098710   -4.656447    3.908353
     28          1           0       -1.369541   -4.549888    4.610274
     29          1           0       -2.903433   -5.134270    4.309200
 ---------------------------------------------------------------------

 SCF Done:  E(UB3LYP) =  -1293.12626859     A.U. after    2 cycles

 Alpha  occ. eigenvalues --  -89.07761 -19.12908 -19.12819 -19.08485 -19.08206
 Alpha  occ. eigenvalues --  -14.35016 -10.23516 -10.23052 -10.21553 -10.19508
 Alpha  occ. eigenvalues --  -10.19228 -10.18575 -10.18532 -10.18336 -10.18102
 Alpha  occ. eigenvalues --  -10.18051 -10.17801 -10.17729 -10.17553 -10.17482
 Alpha  occ. eigenvalues --   -8.13931  -6.10219  -6.10183  -6.10005  -1.13086
 Alpha  occ. eigenvalues --   -1.01876  -1.01079  -1.00574  -0.92132  -0.87842
 Alpha  occ. eigenvalues --   -0.86132  -0.80348  -0.77295  -0.75625  -0.75542
 Alpha  occ. eigenvalues --   -0.69756  -0.67083  -0.64110  -0.61900  -0.59845
 Alpha  occ. eigenvalues --   -0.56937  -0.55700  -0.54146  -0.53188  -0.51896
 Alpha  occ. eigenvalues --   -0.49664  -0.48494  -0.47335  -0.46660  -0.45986
 Alpha  occ. eigenvalues --   -0.44300  -0.43088  -0.43002  -0.42566  -0.41939
 Alpha  occ. eigenvalues --   -0.41557  -0.40006  -0.38707  -0.38190  -0.37266
 Alpha  occ. eigenvalues --   -0.36693  -0.35705  -0.35174  -0.34560  -0.34155
 Alpha  occ. eigenvalues --   -0.33063  -0.32158  -0.30310  -0.27729  -0.27408
 Alpha  occ. eigenvalues --   -0.26133  -0.25836  -0.25368  -0.24510  -0.15219
 Alpha virt. eigenvalues --   -0.06664  -0.04120  -0.01377  -0.01011   0.00007
 Alpha virt. eigenvalues --    0.01162   0.01566   0.02255   0.02537   0.03077
 Alpha virt. eigenvalues --    0.03666   0.04134   0.04361   0.04741   0.05333

  Beta  occ. eigenvalues --  -89.07762 -19.12901 -19.12815 -19.07959 -19.07607
  Beta  occ. eigenvalues --  -14.35013 -10.23380 -10.22888 -10.21482 -10.19545
  Beta  occ. eigenvalues --  -10.19137 -10.18458 -10.18406 -10.18345 -10.18055
  Beta  occ. eigenvalues --  -10.17992 -10.17774 -10.17689 -10.17554 -10.17468
  Beta  occ. eigenvalues --   -8.13931  -6.10218  -6.10183  -6.10008  -1.13071
  Beta  occ. eigenvalues --   -1.01864  -1.00161  -0.99523  -0.92118  -0.87603
  Beta  occ. eigenvalues --   -0.85993  -0.79945  -0.77086  -0.75423  -0.75393
  Beta  occ. eigenvalues --   -0.69416  -0.66566  -0.63918  -0.61703  -0.59782
  Beta  occ. eigenvalues --   -0.56775  -0.55526  -0.53979  -0.53139  -0.51812
  Beta  occ. eigenvalues --   -0.49531  -0.48305  -0.47166  -0.46534  -0.45947
  Beta  occ. eigenvalues --   -0.44272  -0.42938  -0.42436  -0.41839  -0.41461
  Beta  occ. eigenvalues --   -0.41309  -0.39748  -0.37829  -0.37217  -0.36598
  Beta  occ. eigenvalues --   -0.36390  -0.35599  -0.34689  -0.34139  -0.33890
  Beta  occ. eigenvalues --   -0.32967  -0.32108  -0.30107  -0.26907  -0.25683
  Beta  occ. eigenvalues --   -0.25395  -0.25155  -0.24856  -0.23978
  Beta virt. eigenvalues --   -0.09342  -0.05838  -0.03043  -0.01145  -0.00996
  Beta virt. eigenvalues --    0.00017   0.01174   0.01590   0.02265   0.02869
  Beta virt. eigenvalues --    0.03330   0.03740   0.04188   0.04398   0.04967

 Mulliken charges and spin densities:
               1          2
     1  C    0.060508   0.016563
     2  C   -0.441889   0.034830
     3  C   -0.473515   0.018905
     4  C    0.304447   0.023145
     5  C    0.358421   0.009686
     6  C    0.064676   0.035058
     7  C   -0.777595   0.073690
     8  C    0.418461   0.078452
     9  C    0.647792   0.090181
    10  C   -0.402553   0.095015
    11  C    0.046501  -0.016624
    12  C   -0.144522   0.017276
    13  C   -0.336520   0.081338
    14  O   -0.427495   0.194973
    15  O   -0.443480   0.222952
    16  H    0.167367  -0.001302
    17  H    0.255250  -0.005154
    18  H    0.169203  -0.002422
    19  H    0.227852   0.000855
    20  H    0.168965  -0.000633
    21  C   -0.784653   0.030235
    22  H    0.185903  -0.001765
    23  H    0.187026  -0.002694
    24  S    0.324684   0.008850
    25  O   -0.251585   0.001566
    26  O   -0.312673  -0.002613
    27  N   -0.421874  -0.001210
    28  H    0.304925  -0.000157
    29  H    0.326373   0.001005
 Sum of Mulliken charges =  -1.00000   1.00000

 Dipole moment (field-independent basis, Debye):
    X=             -6.3924    Y=             17.6803    Z=             -0.2029  Tot=             18.8016
 Quadrupole moment (field-independent basis, Debye-Ang):
   XX=           -149.7614   YY=           -232.6251   ZZ=           -119.0090
   XY=             19.8470   XZ=            -14.2414   YZ=             15.8995

  Exact polarizability: 498.350  55.170 339.329 -65.651-123.593 251.510
 Approx polarizability: 524.506  19.825 384.835 -37.465-131.982 278.916

                      1                      2                      3
                      A                      A                      A
 Frequencies --     27.8683                37.5049                75.5373
 Red. masses --      7.2014                 7.3451                 6.2943
 Frc consts  --      0.0033                 0.0061                 0.0212
 IR Inten    --      5.6413                 6.1957                13.6491

                      4                      5                      6
                      A                      A                      A
 Frequencies --    105.9220               119.6949               142.6577
 Red. masses --      7.9481                 3.9136                 3.6253
 Frc consts  --      0.0525                 0.0330                 0.0435
 IR Inten    --      0.7550                 4.3402                16.3619

                      7                      8                      9
                      A                      A                      A
 Frequencies --    162.2286               195.0127               217.2271
 Red. masses --      4.4681                 2.0955                 8.4171
 Frc consts  --      0.0693                 0.0470                 0.2340
 IR Inten    --     25.2414                37.5423                 4.7163

                     10                     11                     12
                      A                      A                      A
 Frequencies --    228.6475               240.9548               288.2271
 Red. masses --      6.9207                 3.5438                 8.0772
 Frc consts  --      0.2132                 0.1212                 0.3953
 IR Inten    --      6.5270                16.8782                 0.9141

                     13                     14                     15
                      A                      A                      A
 Frequencies --    328.1956               358.8685               379.0555
 Red. masses --      3.7007                 4.9859                10.5858
 Frc consts  --      0.2349                 0.3783                 0.8961
 IR Inten    --     27.3238                12.3697                17.2112

                     16                     17                     18
                      A                      A                      A
 Frequencies --    405.0879               415.7784               425.3187
 Red. masses --      7.4765                 3.5917                 5.7215
 Frc consts  --      0.7228                 0.3658                 0.6098
 IR Inten    --     11.1947                 2.8136                17.1199

                     19                     20                     21
                      A                      A                      A
 Frequencies --    439.7037               459.3417               463.6296
 Red. masses --      6.4129                 6.4413                 3.2346
 Frc consts  --      0.7305                 0.8007                 0.4097
 IR Inten    --     53.1177                32.8858                 1.5095

                     22                     23                     24
                      A                      A                      A
 Frequencies --    480.7225               496.2164               539.8538
 Red. masses --      7.4730                10.8888                 5.5374
 Frc consts  --      1.0175                 1.5797                 0.9508
 IR Inten    --     24.0005                30.1783                48.9939

                     25                     26                     27
                      A                      A                      A
 Frequencies --    554.0300               635.0759               640.7866
 Red. masses --      7.1727                 6.9818                 4.4181
 Frc consts  --      1.2972                 1.6591                 1.0688
 IR Inten    --    248.8595                13.8504                13.0391

                     28                     29                     30
                      A                      A                      A
 Frequencies --    651.5402               672.4603               693.8521
 Red. masses --      6.8937                 3.4772                 6.4424
 Frc consts  --      1.7242                 0.9264                 1.8274
 IR Inten    --     19.4311               413.0660                11.3455

                     31                     32                     33
                      A                      A                      A
 Frequencies --    706.9296               709.4643               725.2713
 Red. masses --      2.9339                 4.8826                 4.7381
 Frc consts  --      0.8639                 1.4480                 1.4684
 IR Inten    --     92.8910                33.3945                 1.3570

                     34                     35                     36
                      A                      A                      A
 Frequencies --    787.8672               802.8986               823.6747
 Red. masses --      1.5544                 2.7437                 4.7073
 Frc consts  --      0.5685                 1.0421                 1.8816
 IR Inten    --     13.5978                15.5270                20.9939

                     37                     38                     39
                      A                      A                      A
 Frequencies --    825.2833               863.6536               892.0482
 Red. masses --      2.1029                 2.0205                 1.4909
 Frc consts  --      0.8439                 0.8880                 0.6990
 IR Inten    --     30.5462               280.7544                 0.1415

                     40                     41                     42
                      A                      A                      A
 Frequencies --    932.4204               946.5452               966.6448
 Red. masses --      6.5838                 1.3978                 6.1104
 Frc consts  --      3.3725                 0.7378                 3.3640
 IR Inten    --     36.9139                 9.3087                59.2697

                     43                     44                     45
                      A                      A                      A
 Frequencies --    986.6206               992.8633              1006.6369
 Red. masses --      1.3150                 1.3715                 1.2960
 Frc consts  --      0.7542                 0.7966                 0.7738
 IR Inten    --      2.1316                 4.1397                 0.0270

                     46                     47                     48
                      A                      A                      A
 Frequencies --   1041.8031              1054.4963              1072.7709
 Red. masses --      2.0001                 3.2552                 2.9335
 Frc consts  --      1.2790                 2.1327                 1.9891
 IR Inten    --     34.4783               106.5538               517.2232

                     49                     50                     51
                      A                      A                      A
 Frequencies --   1110.8578              1112.7304              1135.4230
 Red. masses --      1.5254                 2.1065                 1.9319
 Frc consts  --      1.1091                 1.5367                 1.4674
 IR Inten    --    223.6835                36.2989                65.2982

                     52                     53                     54
                      A                      A                      A
 Frequencies --   1152.6911              1181.2045              1194.9981
 Red. masses --      1.4146                 2.9331                 2.2491
 Frc consts  --      1.1074                 2.4111                 1.8924
 IR Inten    --     29.2121                58.8685                 3.3940

                     55                     56                     57
                      A                      A                      A
 Frequencies --   1215.8815              1230.0139              1236.7561
 Red. masses --      1.7339                 2.5438                 6.2192
 Frc consts  --      1.5103                 2.2675                 5.6047
 IR Inten    --     52.5512                81.7223               512.4768

                     58                     59                     60
                      A                      A                      A
 Frequencies --   1256.2389              1331.9806              1357.5933
 Red. masses --      2.0137                 2.3167                10.3743
 Frc consts  --      1.8724                 2.4216                11.2655
 IR Inten    --    201.1610                48.5464                 3.9469

                     61                     62                     63
                      A                      A                      A
 Frequencies --   1367.6715              1400.6328              1458.2083
 Red. masses --     10.2119                 3.2879                 2.6420
 Frc consts  --     11.2544                 3.8003                 3.3100
 IR Inten    --    130.2034               878.4066               247.8497

                     64                     65                     66
                      A                      A                      A
 Frequencies --   1478.3641              1486.3923              1499.9602
 Red. masses --      3.1867                 3.1912                 4.3291
 Frc consts  --      4.1035                 4.1541                 5.7386
 IR Inten    --    181.4928                63.0011               993.1764

                     67                     68                     69
                      A                      A                      A
 Frequencies --   1523.1330              1556.6813              1581.7150
 Red. masses --      7.4866                 5.7615                 1.1141
 Frc consts  --     10.2331                 8.2260                 1.6423
 IR Inten    --    163.7307                84.0137                39.8894

                     70                     71                     72
                      A                      A                      A
 Frequencies --   1601.5718              1614.4732              1632.3369
 Red. masses --      6.5604                 7.3749                 6.1005
 Frc consts  --      9.9146                11.3258                 9.5771
 IR Inten    --     87.5667                33.5562                10.0466

                     73                     74                     75
                      A                      A                      A
 Frequencies --   3162.7146              3176.2931              3189.8821
 Red. masses --      1.0863                 1.0904                 1.0869
 Frc consts  --      6.4020                 6.4813                 6.5163
 IR Inten    --     10.9459                19.7354                 5.4917

                     76                     77                     78
                      A                      A                      A
 Frequencies --   3191.4351              3194.8255              3203.6975
 Red. masses --      1.0921                 1.0948                 1.0949
 Frc consts  --      6.5536                 6.5841                 6.6212
 IR Inten    --     12.9797                45.7416                 8.3296

                     79                     80                     81
                      A                      A                      A
 Frequencies --   3212.6651              3482.0818              3579.1141
 Red. masses --      1.0901                 1.0473                 1.0972
 Frc consts  --      6.6291                 7.4819                 8.2814
 IR Inten    --      7.3248                69.1572                61.6135

 - Thermochemistry -
 -------------------
 Temperature   298.150 Kelvin.  Pressure   1.00000 Atm.
 Atom     1 has atomic number  6 and mass  12.00000

 Molecular mass:   287.02523 amu.
 Principal axes and moments of inertia in atomic units:
                           1         2         3
     Eigenvalues --  2189.47388********************
           X            0.74536   0.66256   0.07381
           Y            0.51812  -0.64539   0.56127
           Z           -0.41951   0.38011   0.82433
 This molecule is an asymmetric top.
 Rotational symmetry number  1.
 Warning -- assumption of classical behavior for rotation
           may cause significant error
 Rotational temperatures (Kelvin)      0.03956     0.00802     0.00687
 Rotational constants (GHZ):           0.82428     0.16704     0.14317
 Zero-point vibrational energy     533110.5 (Joules/Mol)
                                  127.41646 (Kcal/Mol)
 Warning -- explicit consideration of  25 degrees of freedom as
           vibrations may cause significant error
 Vibrational temperatures:     40.10    53.96   108.68   152.40   172.21
          (Kelvin)            205.25   233.41   280.58   312.54   328.97
                              346.68   414.69   472.20   516.33   545.38
                              582.83   598.21   611.94   632.64   660.89
                              667.06   691.65   713.94   776.73   797.13
                              913.73   921.95   937.42   967.52   998.30
                             1017.11  1020.76  1043.50  1133.57  1155.19
                             1185.08  1187.40  1242.60  1283.46  1341.54
                             1361.87  1390.79  1419.53  1428.51  1448.33
                             1498.92  1517.18  1543.48  1598.28  1600.97
                             1633.62  1658.47  1699.49  1719.34  1749.38
                             1769.72  1779.42  1807.45  1916.42  1953.27
                             1967.77  2015.20  2098.04  2127.04  2138.59
                             2158.11  2191.45  2239.72  2275.74  2304.30
                             2322.87  2348.57  4550.44  4569.98  4589.53
                             4591.76  4596.64  4609.41  4622.31  5009.94
                             5149.55

 Zero-point correction=                           0.203051 (Hartree/Particle)
 Thermal correction to Energy=                    0.219238
 Thermal correction to Enthalpy=                  0.220182
 Thermal correction to Gibbs Free Energy=         0.157944
 Sum of electronic and zero-point Energies=          -1292.923218
 Sum of electronic and thermal Energies=             -1292.907031
 Sum of electronic and thermal Enthalpies=           -1292.906087
 Sum of electronic and thermal Free Energies=        -1292.968325

                     E (Thermal)             CV                S
                      KCal/Mol        Cal/Mol-Kelvin    Cal/Mol-Kelvin
 Total                  137.574             63.709            130.991
 Electronic               0.000              0.000              1.377
 Translational            0.889              2.981             42.861
 Rotational               0.889              2.981             34.055
 Vibrational            135.796             57.747             52.698
 Vibration     1          0.593              1.984              5.976
 Vibration     2          0.594              1.982              5.387
 Vibration     3          0.599              1.965              4.004
 Vibration     4          0.605              1.944              3.342
 Vibration     5          0.609              1.933              3.105
 Vibration     6          0.616              1.911              2.768
 Vibration     7          0.622              1.889              2.524
 Vibration     8          0.636              1.847              2.180
 Vibration     9          0.646              1.815              1.982
 Vibration    10          0.651              1.797              1.890
 Vibration    11          0.658              1.778              1.796
 Vibration    12          0.685              1.696              1.484
 Vibration    13          0.711              1.619              1.269
 Vibration    14          0.734              1.557              1.127
 Vibration    15          0.749              1.515              1.043
 Vibration    16          0.770              1.459              0.944
 Vibration    17          0.779              1.436              0.906
 Vibration    18          0.787              1.415              0.874
 Vibration    19          0.800              1.384              0.828
 Vibration    20          0.817              1.340              0.768
 Vibration    21          0.821              1.331              0.756
 Vibration    22          0.837              1.293              0.708
 Vibration    23          0.852              1.258              0.668
 Vibration    24          0.895              1.162              0.566
 Vibration    25          0.909              1.131              0.536

 Optimization completed.
    -- Stationary point found.
 Normal termination of Gaussian 16 at Sun Feb 11 01:21:26 2024.
