 Q-Chem 5.4, Q-Chem, Inc., Pleasanton, CA (2021)
 Q-Chem 5.4.0 for Intel X86 EM64T Linux

User input:
--------------------------------------------------------------
$molecule
-1 2
C                 -0.1641410000      3.8389820000     -0.0493980000
C                 -1.3925580000      3.2170390000     -0.1738940000
C                 -1.4599700000      1.8447260000     -0.4891190000
C                  1.0346650000      3.1164620000     -0.2341220000
C                  0.9685740000      1.7296230000     -0.5531580000
C                 -0.2929290000      1.1211810000     -0.6740890000
C                  2.3203930000      3.7683150000     -0.1035030000
C                  3.4900270000      2.9460490000     -0.3118240000
C                  3.4623820000      1.6009680000     -0.6141110000
C                  2.1913830000      0.9242220000     -0.7587890000
O                  2.4944400000      4.9996350000      0.1782790000
O                  2.1193560000     -0.2995790000     -1.0448250000
H                 -0.0865780000      4.8930340000      0.1924560000
H                 -2.3068540000      3.7854300000     -0.0290710000
H                 -2.4253040000      1.3569130000     -0.5867210000
H                 -0.3148930000      0.0650190000     -0.9179950000
O                  4.6644950000      3.6282810000     -0.1759620000
C                  4.7296690000      0.8116520000     -0.8184220000
C                  5.1578250000      0.7201630000     -2.2959430000
C                  6.4264070000     -0.1142550000     -2.5042790000
C                  6.8646650000     -0.2157770000     -3.9697160000
C                  8.1311910000     -1.0530230000     -4.1830590000
C                  8.5599610000     -1.1481930000     -5.6510200000
H                  4.3479950000      4.5328370000      0.0428780000
H                  4.5633460000     -0.2036670000     -0.4441650000
H                  5.5405550000      1.2638560000     -0.2380980000
H                  5.3173360000      1.7328220000     -2.6854790000
H                  4.3329280000      0.2835190000     -2.8689490000
H                  6.2609200000     -1.1245940000     -2.1067920000
H                  7.2459730000      0.3161460000     -1.9122390000
H                  7.0295860000      0.7940890000     -4.3687320000
H                  6.0454590000     -0.6446920000     -4.5617850000
H                  7.9664450000     -2.0623680000     -3.7856590000
H                  8.9502450000     -0.6248330000     -3.5915130000
H                  7.7739560000     -1.6038400000     -6.2623290000
H                  9.4655420000     -1.7518890000     -5.7697560000
H                  8.7647050000     -0.1561040000     -6.0671020000
$end
$rem
MAX_SCF_CYCLES=200
BASIS  =  6-311++G(d,p)
GUI  =  2
JOB_TYPE  =  SP
THRESH = 14
SCF_CONVERGENCE = 6
METHOD  =  B3LYP
SOLVENT_METHOD = COSMO
$end
$solvent
dielectric 37.219
opticaldielectric 1.43
$end

--------------------------------------------------------------

             Standard Nuclear Orientation (Angstroms)
    I     Atom           X                Y                Z
 ----------------------------------------------------------------
    1      C       4.3380917125    -0.2895801138    -0.7018401211
    2      C       5.0357521369     0.9012001777    -0.7832827687
    3      C       4.4131693093     2.1105383088    -0.4130854484
    4      C       3.0007539605    -0.3151621953    -0.2499914448
    5      C       2.3697256748     0.9060177644     0.1241705658
    6      C       3.1010938835     2.1030241739     0.0320185600
    7      C       2.2710329017    -1.5622940733    -0.1649067710
    8      C       0.9078408546    -1.4866367983     0.3078998780
    9      C       0.2693156825    -0.3240903820     0.6849356952
   10      C       0.9712023391     0.9388411293     0.6029939526
   11      O       2.7370566218    -2.7085178835    -0.4728601204
   12      O       0.4235344655     2.0252223778     0.9263034835
   13      H       4.7952525383    -1.2323271138    -0.9807075954
   14      H       6.0642433276     0.9059002654    -1.1328009881
   15      H       4.9618832780     3.0454942767    -0.4773328102
   16      H       2.5971049063     3.0179574095     0.3224372397
   17      O       0.2826357222    -2.6990080636     0.3583828004
   18      C      -1.1583812752    -0.3283719698     1.1670582295
   19      C      -2.1792882265    -0.0462228903     0.0477294143
   20      C      -3.6275620055    -0.0145532210     0.5481868765
   21      C      -4.6554093222     0.2664005853    -0.5538463554
   22      C      -6.1052905285     0.3029030811    -0.0567585720
   23      C      -7.1240231704     0.5847536063    -1.1660622388
   24      H       0.9906275946    -3.3041380131     0.0439785932
   25      H      -1.2624453559     0.4476833635     1.9322465075
   26      H      -1.3875717259    -1.2961481204     1.6249682285
   27      H      -2.0773380520    -0.8119314937    -0.7307028572
   28      H      -1.9294353648     0.9147166554    -0.4144584873
   29      H      -3.7203182030     0.7501875660     1.3309605181
   30      H      -3.8673402927    -0.9733944119     1.0283688777
   31      H      -4.5630401056    -0.4972048443    -1.3378213028
   32      H      -4.4153495096     1.2238877173    -1.0346809703
   33      H      -6.1982934101     1.0664876789     0.7256315862
   34      H      -6.3457386108    -0.6537755532     0.4239424903
   35      H      -6.9297456937     1.5510397644    -1.6432037952
   36      H      -8.1481143084     0.6047148906    -0.7794578753
   37      H      -7.0783390519    -0.1813245820    -1.9472933768
 ----------------------------------------------------------------

   13    -846.5449759454      8.70e-07  Convergence criterion met
 Total energy in the final basis set =     -846.5449759454
    7    -846.6255144753      6.96e-07  Convergence criterion met
 Total energy in the final basis set =     -846.6255144753

                    Orbital Energies (a.u.)
 --------------------------------------------------------------

 Alpha MOs
 -- Occupied --
-19.1443 -19.0889 -19.0769 -10.2255 -10.2235 -10.2225 -10.1756 -10.1734
-10.1721 -10.1711 -10.1708 -10.1694 -10.1634 -10.1570 -10.1567 -10.1545
-10.1544 -10.1540 -10.1508  -1.0645  -1.0026  -0.9989  -0.8591  -0.8137
 -0.7959  -0.7683  -0.7514  -0.7391  -0.7017  -0.6716  -0.6404  -0.6172
 -0.5975  -0.5744  -0.5697  -0.5679  -0.5373  -0.5052  -0.4851  -0.4728
 -0.4598  -0.4527  -0.4392  -0.4361  -0.4279  -0.4232  -0.4197  -0.4135
 -0.4052  -0.3911  -0.3877  -0.3839  -0.3809  -0.3741  -0.3631  -0.3523
 -0.3457  -0.3431  -0.3391  -0.3342  -0.3208  -0.3203  -0.3144  -0.3104
 -0.2689  -0.2630  -0.2587  -0.2423  -0.2285  -0.1534

 Beta MOs
 -- Occupied --
-19.1439 -19.0828 -19.0717 -10.2241 -10.2216 -10.2204 -10.1755 -10.1723
-10.1721 -10.1704 -10.1703 -10.1696 -10.1626 -10.1570 -10.1567 -10.1545
-10.1543 -10.1540 -10.1508  -1.0623  -0.9935  -0.9885  -0.8568  -0.8113
 -0.7945  -0.7667  -0.7492  -0.7380  -0.6999  -0.6643  -0.6388  -0.6153
 -0.5955  -0.5734  -0.5695  -0.5658  -0.5355  -0.5029  -0.4827  -0.4720
 -0.4587  -0.4518  -0.4368  -0.4283  -0.4265  -0.4220  -0.4150  -0.4099
 -0.4027  -0.3866  -0.3827  -0.3791  -0.3782  -0.3725  -0.3523  -0.3496
 -0.3433  -0.3382  -0.3329  -0.3299  -0.3204  -0.3198  -0.3142  -0.3094
 -0.2577  -0.2517  -0.2495  -0.2373  -0.2199

          Ground-State Mulliken Net Atomic Charges

     Atom                 Charge (a.u.)    Spin (a.u.)
  --------------------------------------------------------
      1 C                     0.072113       0.076872
      2 C                    -0.396230      -0.001453
      3 C                    -0.470884       0.072213
      4 C                     0.419604      -0.006577
      5 C                    -0.067230       0.057435
      6 C                     0.100604       0.004782
      7 C                    -0.848497       0.176590
      8 C                    -0.584710       0.058012
      9 C                     1.976658       0.050393
     10 C                    -0.719070       0.083309
     11 O                    -0.555102       0.221907
     12 O                    -0.483724       0.192651
     13 H                     0.181347      -0.004100
     14 H                     0.204387      -0.000612
     15 H                     0.199617      -0.005079
     16 H                     0.179659      -0.000343
     17 O                    -0.301559       0.016164
     18 C                    -0.377061       0.009707
     19 C                    -0.532560      -0.002118
     20 C                    -0.122859       0.003265
     21 C                    -0.224639      -0.002003
     22 C                    -0.213839      -0.000010
     23 C                    -0.700345       0.000023
     24 H                     0.307815      -0.003373
     25 H                     0.199640       0.002423
     26 H                     0.215480      -0.000542
     27 H                     0.165710       0.001796
     28 H                     0.175231      -0.001528
     29 H                     0.117626       0.000461
     30 H                     0.117005      -0.000230
     31 H                     0.125746       0.000019
     32 H                     0.124703      -0.000041
     33 H                     0.137309      -0.000008
     34 H                     0.136992      -0.000003
     35 H                     0.146115       0.000003
     36 H                     0.149088      -0.000002
     37 H                     0.145859      -0.000000
  --------------------------------------------------------
  Sum of atomic charges =    -1.000000

                    Cartesian Multipole Moments
 -----------------------------------------------------------------
    Charge (ESU x 10^10)
                -4.8032
    Dipole Moment (Debye)
         X      -6.4483      Y       1.6923      Z      -1.4759
       Tot       6.8281
    Quadrupole Moments (Debye-Ang)
        XX    -133.7108     XY      14.0330     YY    -143.4034
        XZ      -0.1027     YZ      -6.0379     ZZ    -124.0180

 Total job time:  270.77s(wall), 2087.91s(cpu)
        *  Thank you very much for using Q-Chem.  Have a nice day.  *
