 Q-Chem 5.4, Q-Chem, Inc., Pleasanton, CA (2021)
 Q-Chem 5.4.0 for Intel X86 EM64T Linux

User input:
--------------------------------------------------------------
$molecule
-2 1
C                 -1.4231940000      2.3322840000     -3.9366750000
C                 -1.3981920000      0.9588470000     -4.0667020000
C                 -1.1222520000      0.1501060000     -2.9338650000
C                 -1.1801060000      2.9650580000     -2.6929870000
C                 -0.9002750000      2.1514740000     -1.5537360000
C                 -0.8812310000      0.7440550000     -1.7119780000
C                 -1.2286190000      4.4101450000     -2.6050920000
C                 -0.6296920000      2.7278930000     -0.2526330000
C                 -0.9850450000      5.0044190000     -1.3024290000
C                 -0.6485720000      4.1765920000     -0.1515850000
C                 -1.0731310000      6.4411840000     -1.1372530000
C                 -0.7773350000      6.9960110000      0.1017990000
C                 -0.4152910000      6.1995690000      1.2029740000
C                 -0.3321520000      4.8157190000      1.1096730000
O                 -1.4765950000      5.0936060000     -3.6693480000
O                 -0.3930560000      1.9433130000      0.7422010000
H                 -1.6313180000      2.9786010000     -4.7820620000
H                 -1.5901110000      0.4967670000     -5.0324910000
H                 -1.0999630000     -0.9331160000     -3.0299450000
H                 -0.6667810000      0.1550770000     -0.8271970000
H                 -0.1770910000      6.6942030000      2.1375480000
H                 -0.8441350000      8.0684280000      0.2443100000
N                 -1.5069260000      7.2298490000     -2.2035340000
N                  0.1031780000      4.0381820000      2.1832990000
H                 -1.5345210000      6.6761840000     -3.0720460000
H                 -0.0402960000      3.0374990000      1.9841750000
C                  0.0502980000      4.4758160000      3.5636670000
C                  0.8634140000      3.4972530000      4.4208550000
C                 -1.3887190000      4.6211120000      4.1039850000
C                 -1.2452580000      8.6514040000     -2.3071480000
C                  0.2477820000      8.9841560000     -2.5165400000
C                 -2.1015760000      9.2271430000     -3.4423660000
H                  0.5367110000      5.4575440000      3.6414400000
H                  0.8775980000      3.8011190000      5.4730780000
H                  1.8941590000      3.4395480000      4.0595850000
H                  0.4324100000      2.4912420000      4.3668180000
H                 -1.9690170000      5.2868570000      3.4598430000
H                 -1.3979120000      5.0253430000      5.1237310000
H                 -1.8843180000      3.6442320000      4.1160240000
H                 -1.5685990000      9.1384230000     -1.3772720000
H                  0.8505480000      8.5320850000     -1.7245880000
H                  0.4238680000     10.0669130000     -2.5153760000
H                  0.5901210000      8.5803190000     -3.4755820000
H                 -1.8337220000      8.7624000000     -4.3978770000
H                 -1.9604770000     10.3086690000     -3.5430390000
H                 -3.1613680000      9.0283460000     -3.2589970000
$end
$rem
MAX_SCF_CYCLES=200
BASIS  =  6-311++G(d,p)
GUI  =  2
JOB_TYPE  =  SP
METHOD  =  B3LYP
SOLVENT_METHOD = PCM
$end
$pcm
theory = CPCM
$end
$solvent
dielectric 37.219
opticaldielectric 1.43
$end

--------------------------------------------------------------

             Standard Nuclear Orientation (Angstroms)
    I     Atom           X                Y                Z
 ----------------------------------------------------------------
    1      C      -1.4231940000     2.3322840000    -3.9366750000
    2      C      -1.3981920000     0.9588470000    -4.0667020000
    3      C      -1.1222520000     0.1501060000    -2.9338650000
    4      C      -1.1801060000     2.9650580000    -2.6929870000
    5      C      -0.9002750000     2.1514740000    -1.5537360000
    6      C      -0.8812310000     0.7440550000    -1.7119780000
    7      C      -1.2286190000     4.4101450000    -2.6050920000
    8      C      -0.6296920000     2.7278930000    -0.2526330000
    9      C      -0.9850450000     5.0044190000    -1.3024290000
   10      C      -0.6485720000     4.1765920000    -0.1515850000
   11      C      -1.0731310000     6.4411840000    -1.1372530000
   12      C      -0.7773350000     6.9960110000     0.1017990000
   13      C      -0.4152910000     6.1995690000     1.2029740000
   14      C      -0.3321520000     4.8157190000     1.1096730000
   15      O      -1.4765950000     5.0936060000    -3.6693480000
   16      O      -0.3930560000     1.9433130000     0.7422010000
   17      H      -1.6313180000     2.9786010000    -4.7820620000
   18      H      -1.5901110000     0.4967670000    -5.0324910000
   19      H      -1.0999630000    -0.9331160000    -3.0299450000
   20      H      -0.6667810000     0.1550770000    -0.8271970000
   21      H      -0.1770910000     6.6942030000     2.1375480000
   22      H      -0.8441350000     8.0684280000     0.2443100000
   23      N      -1.5069260000     7.2298490000    -2.2035340000
   24      N       0.1031780000     4.0381820000     2.1832990000
   25      H      -1.5345210000     6.6761840000    -3.0720460000
   26      H      -0.0402960000     3.0374990000     1.9841750000
   27      C       0.0502980000     4.4758160000     3.5636670000
   28      C       0.8634140000     3.4972530000     4.4208550000
   29      C      -1.3887190000     4.6211120000     4.1039850000
   30      C      -1.2452580000     8.6514040000    -2.3071480000
   31      C       0.2477820000     8.9841560000    -2.5165400000
   32      C      -2.1015760000     9.2271430000    -3.4423660000
   33      H       0.5367110000     5.4575440000     3.6414400000
   34      H       0.8775980000     3.8011190000     5.4730780000
   35      H       1.8941590000     3.4395480000     4.0595850000
   36      H       0.4324100000     2.4912420000     4.3668180000
   37      H      -1.9690170000     5.2868570000     3.4598430000
   38      H      -1.3979120000     5.0253430000     5.1237310000
   39      H      -1.8843180000     3.6442320000     4.1160240000
   40      H      -1.5685990000     9.1384230000    -1.3772720000
   41      H       0.8505480000     8.5320850000    -1.7245880000
   42      H       0.4238680000    10.0669130000    -2.5153760000
   43      H       0.5901210000     8.5803190000    -3.4755820000
   44      H      -1.8337220000     8.7624000000    -4.3978770000
   45      H      -1.9604770000    10.3086690000    -3.5430390000
   46      H      -3.1613680000     9.0283460000    -3.2589970000
 ----------------------------------------------------------------

    8   -1035.8771582483      3.94e-06  Convergence criterion met
 Total energy in the final basis set =    -1035.8771582483

                    Orbital Energies (a.u.)
 --------------------------------------------------------------

 Alpha MOs
 -- Occupied --
-19.0252 -19.0251 -14.2710 -14.2710 -10.1877 -10.1877 -10.1770 -10.1769
-10.1724 -10.1723 -10.1479 -10.1475 -10.1469 -10.1469 -10.1453 -10.1453
-10.1428 -10.1428 -10.1396 -10.1392 -10.1335 -10.1331 -10.1258 -10.1253
 -0.9532  -0.9500  -0.8969  -0.8928  -0.8266  -0.8042  -0.7620  -0.7513
 -0.7364  -0.7226  -0.7036  -0.6793  -0.6740  -0.6703  -0.6290  -0.6081
 -0.6016  -0.5774  -0.5645  -0.5469  -0.5333  -0.4988  -0.4959  -0.4762
 -0.4628  -0.4495  -0.4427  -0.4347  -0.4323  -0.4250  -0.4186  -0.4117
 -0.4042  -0.3969  -0.3961  -0.3827  -0.3778  -0.3762  -0.3742  -0.3734
 -0.3685  -0.3646  -0.3570  -0.3483  -0.3426  -0.3413  -0.3355  -0.3312
 -0.3276  -0.3244  -0.3190  -0.3146  -0.3050  -0.3049  -0.2803  -0.2323
 -0.2300  -0.2194  -0.2134  -0.2065  -0.1960  -0.1540  -0.0983

          Ground-State Mulliken Net Atomic Charges

     Atom                 Charge (a.u.)
  ----------------------------------------
      1 C                    -0.213241
      2 C                    -0.432224
      3 C                    -0.428811
      4 C                     0.322036
      5 C                     0.317618
      6 C                    -0.209445
      7 C                    -0.280530
      8 C                    -0.283265
      9 C                     0.026754
     10 C                     0.037877
     11 C                    -0.408229
     12 C                    -0.092381
     13 C                    -0.096065
     14 C                    -0.407288
     15 O                    -0.641064
     16 O                    -0.641018
     17 H                     0.141172
     18 H                     0.172604
     19 H                     0.172670
     20 H                     0.140508
     21 H                     0.179599
     22 H                     0.179225
     23 N                    -0.138325
     24 N                    -0.139540
     25 H                     0.391966
     26 H                     0.391224
     27 C                     0.096396
     28 C                    -0.562839
     29 C                    -0.568745
     30 C                     0.094650
     31 C                    -0.568325
     32 C                    -0.563946
     33 H                     0.114950
     34 H                     0.155826
     35 H                     0.152410
     36 H                     0.144874
     37 H                     0.141012
     38 H                     0.142360
     39 H                     0.154372
     40 H                     0.114830
     41 H                     0.140686
     42 H                     0.142530
     43 H                     0.154221
     44 H                     0.144658
     45 H                     0.155767
     46 H                     0.152483
  ----------------------------------------
  Sum of atomic charges =    -2.000001

                    Cartesian Multipole Moments
 -----------------------------------------------------------------
    Charge (ESU x 10^10)
                -9.6064
    Dipole Moment (Debye)
         X       8.8204      Y     -35.3120      Z      13.0162
       Tot      38.6543
    Quadrupole Moments (Debye-Ang)
        XX    -173.2830     XY      37.5878     YY    -311.7074
        XZ     -20.7990     YZ      58.8581     ZZ    -205.9665

 Total job time:  256.09s(wall), 860.66s(cpu)
        *  Thank you very much for using Q-Chem.  Have a nice day.  *
