 Gaussian 16, Revision A.03,
 Gaussian 16:  ES64L-G16RevA.03 25-Dec-2016

 ----------------------------------------------------------------
 #P UB3LYP/6-311++G(d,p) SCRF=(PCM,Solvent=n,n-DiMethylFormamide)
 ----------------------------------------------------------------

 -------
 Reduced
 -------
 Symbolic Z-matrix:
 Charge = -2 Multiplicity = 1

                         Standard orientation:
 ---------------------------------------------------------------------
 Center     Atomic      Atomic             Coordinates (Angstroms)
 Number     Number       Type             X           Y           Z
 ---------------------------------------------------------------------
      1          6           0        3.086106   -1.861084   -0.492997
      2          6           0        4.399814   -2.021787   -0.088143
      3          6           0        5.082150   -0.939549    0.515816
      4          6           0        2.396644   -0.640481   -0.322151
      5          6           0        3.089033    0.457772    0.290761
      6          6           0        4.429647    0.267006    0.694366
      7          6           0        1.005019   -0.542554   -0.789548
      8          6           0        0.422084    0.741503   -0.553376
      9          6           0        1.104884    1.820410    0.060734
     10          6           0        2.448377    1.760846    0.505245
     11         16           0       -1.206902    1.096621   -1.215094
     12          6           0       -2.395172    0.196699   -0.239204
     13          6           0       -2.045790   -0.821289    0.661663
     14          6           0       -3.752664    0.513362   -0.407090
     15          6           0       -4.759035   -0.147481    0.303201
     16          6           0       -3.043685   -1.474080    1.377531
     17          6           0       -4.392818   -1.148852    1.209278
     18          6           0       -6.212321    0.229298    0.105274
     19          8           0        0.408093   -1.531405   -1.331357
     20          8           0        3.071729    2.740989    1.055169
     21          1           0        2.532758   -2.669942   -0.959673
     22          1           0        4.904958   -2.975045   -0.231673
     23          1           0        6.115383   -1.057392    0.837619
     24          1           0        4.921298    1.118969    1.153860
     25          1           0        0.579141    2.759781    0.203755
     26          1           0       -1.006413   -1.100605    0.764442
     27          1           0       -4.024416    1.302738   -1.103919
     28          1           0       -2.764825   -2.263098    2.070653
     29          1           0       -5.159182   -1.673277    1.773041
     30          1           0       -6.393301    1.285083    0.343171
     31          1           0       -6.874747   -0.364604    0.743047
     32          1           0       -6.532444    0.076350   -0.931485
 ---------------------------------------------------------------------

 SCF Done:  E(UB3LYP) =  -1204.16674620     A.U. after   19 cycles

 The electronic state is 1-A.
 Alpha  occ. eigenvalues --  -88.83158 -19.02169 -19.01606 -10.19627 -10.18018
 Alpha  occ. eigenvalues --  -10.18004 -10.17196 -10.16904 -10.16593 -10.16307
 Alpha  occ. eigenvalues --  -10.16290 -10.16152 -10.15396 -10.15315 -10.15285
 Alpha  occ. eigenvalues --  -10.14908 -10.14820 -10.14367 -10.14238 -10.12188
 Alpha  occ. eigenvalues --   -7.91741  -5.88129  -5.87715  -5.87196  -0.94460
 Alpha  occ. eigenvalues --   -0.93383  -0.85804  -0.82971  -0.79327  -0.76677
 Alpha  occ. eigenvalues --   -0.75422  -0.72568  -0.72065  -0.68291  -0.67483
 Alpha  occ. eigenvalues --   -0.63692  -0.59495  -0.58846  -0.58380  -0.55465
 Alpha  occ. eigenvalues --   -0.52645  -0.49982  -0.47625  -0.46921  -0.46000
 Alpha  occ. eigenvalues --   -0.43824  -0.43235  -0.41820  -0.41668  -0.40586
 Alpha  occ. eigenvalues --   -0.40433  -0.40035  -0.38253  -0.38173  -0.37406
 Alpha  occ. eigenvalues --   -0.36565  -0.36190  -0.35582  -0.34320  -0.33796
 Alpha  occ. eigenvalues --   -0.32983  -0.32100  -0.31862  -0.30940  -0.30192
 Alpha  occ. eigenvalues --   -0.27830  -0.24503  -0.23219  -0.22716  -0.22171
 Alpha  occ. eigenvalues --   -0.20313  -0.20029  -0.19244  -0.11567
 Alpha virt. eigenvalues --   -0.01265  -0.01070  -0.00521  -0.00113   0.00303
 Alpha virt. eigenvalues --    0.00438   0.01378   0.01644   0.02053   0.03032
 Alpha virt. eigenvalues --    0.03227   0.03535   0.04320   0.04445   0.04639

  Beta  occ. eigenvalues --  -88.83158 -19.02169 -19.01606 -10.19627 -10.18018
  Beta  occ. eigenvalues --  -10.18004 -10.17196 -10.16904 -10.16593 -10.16307
  Beta  occ. eigenvalues --  -10.16290 -10.16152 -10.15396 -10.15315 -10.15285
  Beta  occ. eigenvalues --  -10.14908 -10.14820 -10.14367 -10.14238 -10.12188
  Beta  occ. eigenvalues --   -7.91741  -5.88129  -5.87715  -5.87196  -0.94460
  Beta  occ. eigenvalues --   -0.93383  -0.85804  -0.82971  -0.79327  -0.76677
  Beta  occ. eigenvalues --   -0.75422  -0.72568  -0.72065  -0.68291  -0.67483
  Beta  occ. eigenvalues --   -0.63692  -0.59495  -0.58846  -0.58380  -0.55465
  Beta  occ. eigenvalues --   -0.52645  -0.49982  -0.47625  -0.46921  -0.46000
  Beta  occ. eigenvalues --   -0.43824  -0.43235  -0.41820  -0.41668  -0.40586
  Beta  occ. eigenvalues --   -0.40433  -0.40035  -0.38253  -0.38173  -0.37406
  Beta  occ. eigenvalues --   -0.36565  -0.36190  -0.35582  -0.34320  -0.33796
  Beta  occ. eigenvalues --   -0.32983  -0.32100  -0.31862  -0.30940  -0.30192
  Beta  occ. eigenvalues --   -0.27830  -0.24503  -0.23219  -0.22716  -0.22171
  Beta  occ. eigenvalues --   -0.20313  -0.20029  -0.19244  -0.11567
  Beta virt. eigenvalues --   -0.01265  -0.01070  -0.00521  -0.00113   0.00303
  Beta virt. eigenvalues --    0.00438   0.01378   0.01644   0.02053   0.03032
  Beta virt. eigenvalues --    0.03227   0.03535   0.04320   0.04445   0.04639

 Mulliken charges and spin densities:
               1          2
     1  C    0.103401  -0.000000
     2  C   -0.471533  -0.000000
     3  C   -0.531197   0.000000
     4  C   -0.013610   0.000000
     5  C    0.324906   0.000000
     6  C   -0.127196  -0.000000
     7  C   -0.829380   0.000000
     8  C    1.761514   0.000000
     9  C   -0.338994  -0.000000
    10  C   -0.727839   0.000000
    11  S   -0.385473   0.000000
    12  C    0.246356  -0.000000
    13  C   -0.057188   0.000000
    14  C    0.012671   0.000000
    15  C    0.085564  -0.000000
    16  C   -0.156303  -0.000000
    17  C   -1.187092   0.000000
    18  C   -0.396222   0.000000
    19  O   -0.586875  -0.000000
    20  O   -0.701948  -0.000000
    21  H    0.162780   0.000000
    22  H    0.162135  -0.000000
    23  H    0.161818   0.000000
    24  H    0.154387   0.000000
    25  H    0.156052  -0.000000
    26  H    0.161724  -0.000000
    27  H    0.178292   0.000000
    28  H    0.211018  -0.000000
    29  H    0.133041   0.000000
    30  H    0.166168  -0.000000
    31  H    0.160065  -0.000000
    32  H    0.168958   0.000000
 Sum of Mulliken charges =  -2.00000  -0.00000

 Dipole moment (field-independent basis, Debye):
    X=            -14.7767    Y=             -6.3168    Z=              2.0171  Tot=             16.1963
 Quadrupole moment (field-independent basis, Debye-Ang):
   XX=           -178.1620   YY=           -172.2305   ZZ=           -148.5024
   XY=            -26.9295   XZ=            -11.1143   YZ=            -18.2674

 Normal termination of Gaussian 16 at Thu Jan 25 05:51:40 2024.
