 Q-Chem 5.4, Q-Chem, Inc., Pleasanton, CA (2021)
 Q-Chem 5.4.0 for Intel X86 EM64T Linux

User input:
--------------------------------------------------------------
$molecule
-1 2
C                 -1.2619440000      2.5425570000     -0.8088040000
C                 -2.3194250000      1.9001550000     -0.2151860000
C                 -2.1511030000      0.5979180000      0.3334000000
C                  0.0245910000      1.9318550000     -0.8934150000
C                  0.1932160000      0.6127270000     -0.3368250000
C                 -0.9267970000     -0.0219300000      0.2706770000
C                  1.1254070000      2.5622270000     -1.4947390000
C                  2.3797460000      1.9622090000     -1.5750720000
C                  2.5415320000      0.6390940000     -1.0135780000
C                  1.4593510000      0.0032180000     -0.4158660000
C                  3.4856430000      2.6904650000     -2.2224990000
C                  4.8050390000      2.0017010000     -2.2826060000
C                  4.8903610000      0.6688760000     -1.6955460000
C                  3.8437710000      0.0264450000     -1.1001890000
O                  3.3143430000      3.8345450000     -2.6976070000
O                  5.8114760000      2.5222990000     -2.8089610000
H                 -1.3885110000      3.5362550000     -1.2282400000
H                 -3.2901530000      2.3829230000     -0.1615200000
H                 -2.9937080000      0.0981480000      0.8004430000
H                 -0.7947560000     -1.0164100000      0.6879990000
H                  1.0223900000      3.5547030000     -1.9206640000
H                  1.5945900000     -0.9890990000     -0.0013620000
H                  5.8701130000      0.2122410000     -1.7697970000
O                  3.9191170000     -1.2368020000     -0.5375570000
C                  5.1800750000     -1.8867450000     -0.5303010000
C                  5.0333600000     -3.1769650000      0.2171120000
C                  5.4640520000     -4.3565880000     -0.2224470000
H                  5.9214660000     -1.2465970000     -0.0291330000
H                  5.5342940000     -2.0668880000     -1.5532870000
H                  4.5542080000     -3.0968740000      1.1902340000
H                  5.9313350000     -4.4637150000     -1.1969560000
H                  5.3661040000     -5.2564480000      0.3750250000
$end

$rem
BASIS  =  6-311++G(d,p)
GUI  =  2
JOB_TYPE  =  SP
METHOD  =  B3LYP
SCF_CONVERGENCE  = 8
SOLVENT_METHOD = sm12
$end

$smx
solvent dimethylformamide
charges CM5
$end

--------------------------------------------------------------

             Standard Nuclear Orientation (Angstroms)
    I     Atom           X                Y                Z
 ----------------------------------------------------------------
    1      C      -1.2619440000     2.5425570000    -0.8088040000
    2      C      -2.3194250000     1.9001550000    -0.2151860000
    3      C      -2.1511030000     0.5979180000     0.3334000000
    4      C       0.0245910000     1.9318550000    -0.8934150000
    5      C       0.1932160000     0.6127270000    -0.3368250000
    6      C      -0.9267970000    -0.0219300000     0.2706770000
    7      C       1.1254070000     2.5622270000    -1.4947390000
    8      C       2.3797460000     1.9622090000    -1.5750720000
    9      C       2.5415320000     0.6390940000    -1.0135780000
   10      C       1.4593510000     0.0032180000    -0.4158660000
   11      C       3.4856430000     2.6904650000    -2.2224990000
   12      C       4.8050390000     2.0017010000    -2.2826060000
   13      C       4.8903610000     0.6688760000    -1.6955460000
   14      C       3.8437710000     0.0264450000    -1.1001890000
   15      O       3.3143430000     3.8345450000    -2.6976070000
   16      O       5.8114760000     2.5222990000    -2.8089610000
   17      H      -1.3885110000     3.5362550000    -1.2282400000
   18      H      -3.2901530000     2.3829230000    -0.1615200000
   19      H      -2.9937080000     0.0981480000     0.8004430000
   20      H      -0.7947560000    -1.0164100000     0.6879990000
   21      H       1.0223900000     3.5547030000    -1.9206640000
   22      H       1.5945900000    -0.9890990000    -0.0013620000
   23      H       5.8701130000     0.2122410000    -1.7697970000
   24      O       3.9191170000    -1.2368020000    -0.5375570000
   25      C       5.1800750000    -1.8867450000    -0.5303010000
   26      C       5.0333600000    -3.1769650000     0.2171120000
   27      C       5.4640520000    -4.3565880000    -0.2224470000
   28      H       5.9214660000    -1.2465970000    -0.0291330000
   29      H       5.5342940000    -2.0668880000    -1.5532870000
   30      H       4.5542080000    -3.0968740000     1.1902340000
   31      H       5.9313350000    -4.4637150000    -1.1969560000
   32      H       5.3661040000    -5.2564480000     0.3750250000
 ----------------------------------------------------------------

   19    -880.9629714951      6.81e-09  Convergence criterion met
 Total energy in the final basis set =     -881.0599929064

                    Orbital Energies (a.u.)
 --------------------------------------------------------------

 Alpha MOs
 -- Occupied --
-19.1607 -19.0696 -19.0674 -10.2399 -10.2324 -10.2158 -10.2113 -10.1929
-10.1921 -10.1918 -10.1870 -10.1859 -10.1852 -10.1850 -10.1847 -10.1839
-10.1802 -10.1770 -10.1740 -10.1643  -1.0736  -1.0056  -0.9797  -0.8859
 -0.8477  -0.8081  -0.7881  -0.7858  -0.7418  -0.7377  -0.7051  -0.6674
 -0.6438  -0.6155  -0.6053  -0.5785  -0.5689  -0.5373  -0.5292  -0.5216
 -0.4968  -0.4882  -0.4680  -0.4643  -0.4559  -0.4454  -0.4326  -0.4298
 -0.4259  -0.4178  -0.4101  -0.4011  -0.3960  -0.3954  -0.3752  -0.3713
 -0.3660  -0.3556  -0.3470  -0.3440  -0.3365  -0.3220  -0.3001  -0.2788
 -0.2713  -0.2508  -0.2382  -0.2267  -0.2175  -0.1450

 Beta MOs
 -- Occupied --
-19.1598 -19.0625 -19.0620 -10.2380 -10.2325 -10.2146 -10.2094 -10.1923
-10.1919 -10.1911 -10.1873 -10.1857 -10.1853 -10.1851 -10.1842 -10.1839
-10.1798 -10.1761 -10.1740 -10.1650  -1.0717  -0.9949  -0.9683  -0.8847
 -0.8456  -0.8071  -0.7863  -0.7845  -0.7397  -0.7365  -0.7039  -0.6610
 -0.6426  -0.6127  -0.6045  -0.5773  -0.5674  -0.5356  -0.5277  -0.5205
 -0.4956  -0.4867  -0.4672  -0.4626  -0.4549  -0.4440  -0.4308  -0.4284
 -0.4237  -0.4116  -0.4060  -0.3989  -0.3923  -0.3845  -0.3742  -0.3683
 -0.3555  -0.3548  -0.3430  -0.3358  -0.3343  -0.3071  -0.2932  -0.2772
 -0.2642  -0.2445  -0.2282  -0.2205  -0.2118

          Ground-State Mulliken Net Atomic Charges

     Atom                 Charge (a.u.)    Spin (a.u.)
  --------------------------------------------------------
      1 C                     0.442861       0.027186
      2 C                     1.569958      -0.004024
      3 C                     1.163727       0.046082
      4 C                    -0.888369       0.002929
      5 C                     0.502871       0.048944
      6 C                     0.798361      -0.022681
      7 C                    -1.169634       0.098826
      8 C                    -1.319715       0.038801
      9 C                    -0.368776       0.036811
     10 C                    -0.618138      -0.013801
     11 C                    -2.195873       0.107502
     12 C                    -2.285424       0.125814
     13 C                     0.032177      -0.068177
     14 C                     0.922917       0.086466
     15 O                    -0.398242       0.269506
     16 O                    -0.416319       0.199923
     17 H                     0.277597      -0.000810
     18 H                     0.346414      -0.000061
     19 H                     0.355878      -0.003290
     20 H                     0.297845       0.001669
     21 H                     0.041588      -0.008118
     22 H                     0.164919       0.001202
     23 H                     0.218608       0.001761
     24 O                     0.056469       0.022514
     25 C                    -0.264672       0.002372
     26 C                     0.838459       0.000622
     27 C                    -0.024795      -0.001669
     28 H                     0.158099       0.001480
     29 H                     0.123170       0.001992
     30 H                     0.204744       0.000121
     31 H                     0.193407       0.000048
     32 H                     0.239889       0.000057
  --------------------------------------------------------
  Sum of atomic charges =    -1.000000

                    Cartesian Multipole Moments
 -----------------------------------------------------------------
    Charge (ESU x 10^10)
                -4.8032
    Dipole Moment (Debye)
         X     -18.2435      Y     -14.7920      Z      12.0288
       Tot      26.3879
    Quadrupole Moments (Debye-Ang)
        XX    -203.3196     XY     -66.0386     YY    -161.6773
        XZ      51.5706     YZ      36.3837     ZZ    -154.5787

 Total job time:  1120.81s(wall), 8429.24s(cpu)
        *  Thank you very much for using Q-Chem.  Have a nice day.  *
