 Q-Chem 5.4, Q-Chem, Inc., Pleasanton, CA (2021)
 Q-Chem 5.4.0 for Intel X86 EM64T Linux

User input:
--------------------------------------------------------------
$molecule
0 1
C                  0.2640470000      0.7400240000     -0.5544590000
C                 -0.7005280000     -0.1266280000     -1.2817150000
C                 -1.1548400000     -1.2761130000     -0.7680940000
C                 -0.7066220000     -1.7371020000      0.5667170000
C                  0.2600320000     -0.8769590000      1.2942970000
C                  0.7416740000      0.2719880000      0.7846820000
O                  0.6171770000      1.8005380000     -1.0429610000
O                 -1.1107800000     -2.7795620000      1.0531120000
C                  1.7552940000      1.0522110000      1.6098070000
C                  2.7884430000      1.8973200000      0.9102360000
O                  1.7285110000      0.9368670000      2.8167870000
H                 -1.0151320000      0.2471750000     -2.2498900000
H                 -1.8625900000     -1.9132600000     -1.2865690000
H                  0.5731550000     -1.2223500000      2.2736510000
H                  2.3127240000      2.7785090000      0.4743000000
H                  3.2467110000      1.3527820000      0.0800860000
H                  3.5453840000      2.1951290000      1.6346240000
$end
$rem
MAX_SCF_CYCLES=200
BASIS  =  6-311++G(d,p)
GUI  =  2
JOB_TYPE  =  SP
METHOD  =  B3LYP
SOLVENT_METHOD = PCM
$end
$pcm
theory = CPCM
$end
$solvent
dielectric 37.219
opticaldielectric 1.43
$end

--------------------------------------------------------------

             Standard Nuclear Orientation (Angstroms)
    I     Atom           X                Y                Z
 ----------------------------------------------------------------
    1      C       0.2640470000     0.7400240000    -0.5544590000
    2      C      -0.7005280000    -0.1266280000    -1.2817150000
    3      C      -1.1548400000    -1.2761130000    -0.7680940000
    4      C      -0.7066220000    -1.7371020000     0.5667170000
    5      C       0.2600320000    -0.8769590000     1.2942970000
    6      C       0.7416740000     0.2719880000     0.7846820000
    7      O       0.6171770000     1.8005380000    -1.0429610000
    8      O      -1.1107800000    -2.7795620000     1.0531120000
    9      C       1.7552940000     1.0522110000     1.6098070000
   10      C       2.7884430000     1.8973200000     0.9102360000
   11      O       1.7285110000     0.9368670000     2.8167870000
   12      H      -1.0151320000     0.2471750000    -2.2498900000
   13      H      -1.8625900000    -1.9132600000    -1.2865690000
   14      H       0.5731550000    -1.2223500000     2.2736510000
   15      H       2.3127240000     2.7785090000     0.4743000000
   16      H       3.2467110000     1.3527820000     0.0800860000
   17      H       3.5453840000     2.1951290000     1.6346240000
 ----------------------------------------------------------------

    9    -534.2613180323      2.75e-06  Convergence criterion met
 Total energy in the final basis set =     -534.2613180323

                    Orbital Energies (a.u.)
 --------------------------------------------------------------

 Alpha MOs
 -- Occupied --
-19.1524 -19.1512 -19.1386 -10.2993 -10.2959 -10.2911 -10.2290 -10.2249
-10.2171 -10.2156 -10.1752  -1.0840  -1.0815  -1.0745  -0.8741  -0.8100
 -0.7581  -0.7180  -0.6586  -0.6279  -0.5638  -0.5339  -0.5166  -0.4970
 -0.4821  -0.4696  -0.4585  -0.4538  -0.4478  -0.4374  -0.4288  -0.4164
 -0.4016  -0.3814  -0.3213  -0.3109  -0.3003  -0.2974  -0.2766

          Ground-State Mulliken Net Atomic Charges

     Atom                 Charge (a.u.)
  ----------------------------------------
      1 C                    -1.472936
      2 C                     0.291496
      3 C                     0.063459
      4 C                    -0.356588
      5 C                    -0.318834
      6 C                     1.649477
      7 O                    -0.252187
      8 O                    -0.287674
      9 C                     0.232174
     10 C                    -0.639577
     11 O                    -0.305248
     12 H                     0.266424
     13 H                     0.266693
     14 H                     0.265572
     15 H                     0.216993
     16 H                     0.194155
     17 H                     0.186602
  ----------------------------------------
  Sum of atomic charges =     0.000000

                    Cartesian Multipole Moments
 -----------------------------------------------------------------
    Charge (ESU x 10^10)
                 0.0000
    Dipole Moment (Debye)
         X       0.1905      Y       0.2614      Z      -3.9266
       Tot       3.9399
    Quadrupole Moments (Debye-Ang)
        XX     -58.8653     XY      -2.9476     YY     -74.8715
        XZ       0.6731     YZ       5.0938     ZZ     -74.1596

 Total job time:  13.12s(wall), 95.90s(cpu)
        *  Thank you very much for using Q-Chem.  Have a nice day.  *
