 Q-Chem 5.4, Q-Chem, Inc., Pleasanton, CA (2021)
 Q-Chem 5.4.0 for Intel X86 EM64T Linux

User input:
--------------------------------------------------------------
$molecule
-2 1
N                 -3.4330760000      1.6096380000      0.6423390000
C                 -2.8512930000      0.3416850000      0.3674620000
C                 -3.6698940000     -0.7664150000      0.3016760000
C                 -3.1407720000     -2.0562210000      0.0600430000
C                 -1.7816900000     -2.2618570000     -0.0540180000
N                 -1.3061570000     -3.5736720000     -0.3263120000
C                 -0.8652770000     -1.1436600000      0.0548150000
C                  0.5598050000     -1.3542440000      0.0400960000
O                  1.0644300000     -2.5749740000     -0.0182300000
C                  1.4208430000     -0.2003750000      0.0904120000
C                  2.8620250000     -0.3514930000      0.1382010000
N                  3.4585230000     -1.6333300000      0.2867760000
C                  3.6763830000      0.7605090000      0.0865970000
C                  3.1342060000      2.0621380000     -0.0311660000
C                  1.7709690000      2.2715230000     -0.0335970000
N                  1.2799520000      3.5972060000     -0.1854430000
C                  0.8621350000      1.1464620000      0.0677370000
C                 -0.5597350000      1.3542250000      0.1702040000
O                 -1.0641170000      2.5748610000      0.2301650000
C                 -1.4176900000      0.1974790000      0.2062670000
H                 -2.7125480000      2.3295590000      0.4656100000
H                 -4.2736130000      1.7531860000      0.0955320000
H                 -4.7408550000     -0.6377080000      0.4529200000
H                 -3.8117330000     -2.9068740000     -0.0522380000
H                 -1.7784790000     -4.2613130000      0.2482520000
H                 -0.2817770000     -3.5704410000     -0.1871570000
H                  4.2587470000     -1.7384590000     -0.3252940000
H                  2.7255640000     -2.3416440000      0.1142410000
H                  4.7551690000      0.6247670000      0.1515620000
H                  3.7973730000      2.9198660000     -0.1357380000
H                  0.2683860000      3.5823510000      0.0274020000
H                  1.7941980000      4.2472280000      0.3968930000
$end
$rem
MAX_SCF_CYCLES=200
BASIS  =  6-311++G(d,p)
GUI  =  2
JOB_TYPE  =  SP
METHOD  =  B3LYP
SOLVENT_METHOD = COSMO
$end
$solvent
dielectric 37.219
opticaldielectric 1.43
$end

--------------------------------------------------------------

             Standard Nuclear Orientation (Angstroms)
    I     Atom           X                Y                Z
 ----------------------------------------------------------------
    1      N      -2.5659311448    -2.8199795532    -0.3601038226
    2      C      -2.5081718168    -1.4151654683    -0.1482197002
    3      C      -3.6870012849    -0.7015727409    -0.0893341378
    4      C      -3.6869369881     0.7018533760     0.0905303814
    5      C      -2.5079975263     1.4153865192     0.1486006650
    6      N      -2.5652144979     2.8200368996     0.3603027623
    7      C      -1.2358588694     0.7278963900     0.0435173683
    8      C       0.0000770561     1.4667966942    -0.0001828052
    9      O       0.0001376296     2.7890031974    -0.0002527945
   10      C       1.2359422590     0.7278245027    -0.0436466625
   11      C       2.5082075269     1.4152050303    -0.1484087450
   12      N       2.5654269415     2.8197515872    -0.3604592048
   13      C       3.6870557952     0.7015750180    -0.0897628691
   14      C       3.6869420365    -0.7018762478     0.0901999287
   15      C       2.5080253949    -1.4153114941     0.1487559500
   16      N       2.5650802193    -2.8199426465     0.3617028709
   17      C       1.2358836776    -0.7278737647     0.0434236558
   18      C       0.0000076415    -1.4668191506    -0.0007282103
   19      O       0.0001014856    -2.7889183446    -0.0023031373
   20      C      -1.2359097481    -0.7278291042    -0.0437462044
   21      H      -1.6212095747    -3.2018940734    -0.1859704296
   22      H      -3.2759374582    -3.2491202202     0.2211325276
   23      H      -4.6300459587    -1.2357722718    -0.1974789821
   24      H      -4.6298976950     1.2361477926     0.1989775786
   25      H      -3.2766169977     3.2492958903    -0.2190979703
   26      H      -1.6207400906     3.2018212142     0.1844114076
   27      H       3.2770337228     3.2492186721     0.2185175248
   28      H       1.6209386108     3.2016310335    -0.1849148343
   29      H       4.6301333656     1.2357070616    -0.1980829132
   30      H       4.6299271979    -1.2360998359     0.1988610456
   31      H       1.6206628439    -3.2016508696     0.1851693302
   32      H       3.2767175624    -3.2495645834    -0.2171667596
 ----------------------------------------------------------------

   10    -910.4406388626      4.34e-06  Convergence criterion met
 Total energy in the final basis set =     -910.4406388626
    5    -910.7081497920      5.56e-06  Convergence criterion met
 Total energy in the final basis set =     -910.7081497920

                    Orbital Energies (a.u.)
 --------------------------------------------------------------

 Alpha MOs
 -- Occupied --
-19.0363 -19.0362 -14.2731 -14.2730 -14.2730 -14.2730 -10.1893 -10.1892
-10.1803 -10.1803 -10.1802 -10.1802 -10.1488 -10.1487 -10.1484 -10.1484
-10.1371 -10.1371 -10.1366 -10.1366  -0.9574  -0.9538  -0.8849  -0.8761
 -0.8746  -0.8666  -0.8050  -0.7840  -0.7497  -0.7093  -0.6966  -0.6791
 -0.6379  -0.6075  -0.6021  -0.5477  -0.5284  -0.5268  -0.5048  -0.4834
 -0.4758  -0.4629  -0.4538  -0.4460  -0.4436  -0.4348  -0.4190  -0.4058
 -0.4044  -0.3923  -0.3816  -0.3723  -0.3589  -0.3585  -0.3518  -0.3456
 -0.3425  -0.3422  -0.3258  -0.3213  -0.3044  -0.2954  -0.2616  -0.2470
 -0.2319  -0.2190  -0.2169  -0.2037  -0.1842  -0.1702  -0.1095

          Ground-State Mulliken Net Atomic Charges

     Atom                 Charge (a.u.)
  ----------------------------------------
      1 N                    -0.523440
      2 C                    -0.272285
      3 C                    -0.413030
      4 C                    -0.414122
      5 C                    -0.271746
      6 N                    -0.522626
      7 C                     0.514816
      8 C                    -0.473864
      9 O                    -0.655685
     10 C                     0.512630
     11 C                    -0.271034
     12 N                    -0.522641
     13 C                    -0.412458
     14 C                    -0.412635
     15 C                    -0.271486
     16 N                    -0.522687
     17 C                     0.514082
     18 C                    -0.475377
     19 O                    -0.654483
     20 C                     0.516087
     21 H                     0.328999
     22 H                     0.260253
     23 H                     0.168920
     24 H                     0.168837
     25 H                     0.260130
     26 H                     0.328950
     27 H                     0.260215
     28 H                     0.329087
     29 H                     0.168769
     30 H                     0.168843
     31 H                     0.328859
     32 H                     0.260123
  ----------------------------------------
  Sum of atomic charges =    -2.000000

                    Cartesian Multipole Moments
 -----------------------------------------------------------------
    Charge (ESU x 10^10)
                -9.6064
    Dipole Moment (Debye)
         X       0.0018      Y       0.0003      Z       0.0086
       Tot       0.0088
    Quadrupole Moments (Debye-Ang)
        XX    -149.9750     XY      -0.0138     YY    -171.4626
        XZ      -0.0155     YZ      -0.0269     ZZ    -137.0696

 Total job time:  84.85s(wall), 644.22s(cpu)
        *  Thank you very much for using Q-Chem.  Have a nice day.  *
