 Q-Chem 5.4, Q-Chem, Inc., Pleasanton, CA (2021)
 Q-Chem 5.4.0 for Intel X86 EM64T Linux

User input:
--------------------------------------------------------------
$molecule
0 1
C                 -1.8553760000      1.7421730000     -0.7954900000
C                 -2.6110940000      0.8871480000     -1.5897300000
C                 -2.1500160000     -0.4128810000     -1.8540680000
C                 -0.6428370000      1.3114370000     -0.2619070000
C                 -0.1837620000      0.0168890000     -0.5243540000
C                 -0.9398410000     -0.8410410000     -1.3200320000
C                  0.1621030000      2.2342400000      0.5861540000
C                  1.4634990000      1.7489430000      1.1386600000
C                  1.9013200000      0.4848770000      0.9049200000
C                  1.1107140000     -0.4529730000      0.0461380000
O                 -0.2295950000      3.3651670000      0.8276760000
O                  1.5166550000     -1.5813540000     -0.1835860000
C                  2.2006810000      2.7691190000      1.9593440000
C                  3.1990560000     -0.0736410000      1.4314700000
C                  4.3828700000      0.1519080000      0.4662160000
C                  5.6900220000     -0.4559420000      0.9855310000
C                  6.8766820000     -0.2415450000      0.0391630000
C                  8.1869510000     -0.8486750000      0.5535890000
C                  9.3739900000     -0.6373460000     -0.3929670000
C                 10.6844570000     -1.2453390000      0.1197430000
C                 11.8714710000     -1.0349870000     -0.8267830000
C                 13.1826080000     -1.6428550000     -0.3155360000
C                 14.3623100000     -1.4279240000     -1.2681970000
Cl                -3.0674010000     -1.5140660000     -2.8450780000
Cl                -4.1223560000      1.4607040000     -2.2402210000
H                 -2.2012970000      2.7458700000     -0.5855930000
H                 -0.5761730000     -1.8409570000     -1.5173070000
H                  2.3131010000      3.6957940000      1.3912730000
H                  3.1840620000      2.4238030000      2.2687110000
H                  1.6202580000      3.0315370000      2.8491300000
H                  3.0739220000     -1.1481250000      1.5801440000
H                  3.4309650000      0.3652880000      2.4042580000
H                  4.5170800000      1.2272710000      0.2991440000
H                  4.1366860000     -0.2871360000     -0.5062130000
H                  5.5461320000     -1.5310430000      1.1498100000
H                  5.9269610000     -0.0256540000      1.9674150000
H                  7.0175790000      0.8342120000     -0.1279330000
H                  6.6384580000     -0.6728810000     -0.9414250000
H                  8.0452140000     -1.9240800000      0.7214580000
H                  8.4252220000     -0.4172680000      1.5345310000
H                  9.5157520000      0.4382130000     -0.5608710000
H                  9.1350240000     -1.0682600000     -1.3738490000
H                 10.5424360000     -2.3208290000      0.2877700000
H                 10.9236230000     -0.8143960000      1.1007130000
H                 12.0145840000      0.0404800000     -0.9952830000
H                 11.6331730000     -1.4659260000     -1.8080750000
H                 13.0402450000     -2.7174150000     -0.1476430000
H                 13.4216650000     -1.2119450000      0.6644420000
H                 14.1677840000     -1.8785740000     -2.2466530000
H                 15.2805870000     -1.8729520000     -0.8749020000
H                 14.5523650000     -0.3618310000     -1.4283670000
$end

$rem
BASIS  =  6-311++G(d,p)
GUI  =  2
JOB_TYPE  =  SP
METHOD  =  B3LYP
SCF_CONVERGENCE  = 8
SOLVENT_METHOD = sm12
$end

$smx
solvent dimethylformamide
charges CM5
$end

--------------------------------------------------------------

             Standard Nuclear Orientation (Angstroms)
    I     Atom           X                Y                Z
 ----------------------------------------------------------------
    1      C      -1.8553760000     1.7421730000    -0.7954900000
    2      C      -2.6110940000     0.8871480000    -1.5897300000
    3      C      -2.1500160000    -0.4128810000    -1.8540680000
    4      C      -0.6428370000     1.3114370000    -0.2619070000
    5      C      -0.1837620000     0.0168890000    -0.5243540000
    6      C      -0.9398410000    -0.8410410000    -1.3200320000
    7      C       0.1621030000     2.2342400000     0.5861540000
    8      C       1.4634990000     1.7489430000     1.1386600000
    9      C       1.9013200000     0.4848770000     0.9049200000
   10      C       1.1107140000    -0.4529730000     0.0461380000
   11      O      -0.2295950000     3.3651670000     0.8276760000
   12      O       1.5166550000    -1.5813540000    -0.1835860000
   13      C       2.2006810000     2.7691190000     1.9593440000
   14      C       3.1990560000    -0.0736410000     1.4314700000
   15      C       4.3828700000     0.1519080000     0.4662160000
   16      C       5.6900220000    -0.4559420000     0.9855310000
   17      C       6.8766820000    -0.2415450000     0.0391630000
   18      C       8.1869510000    -0.8486750000     0.5535890000
   19      C       9.3739900000    -0.6373460000    -0.3929670000
   20      C      10.6844570000    -1.2453390000     0.1197430000
   21      C      11.8714710000    -1.0349870000    -0.8267830000
   22      C      13.1826080000    -1.6428550000    -0.3155360000
   23      C      14.3623100000    -1.4279240000    -1.2681970000
   24      Cl     -3.0674010000    -1.5140660000    -2.8450780000
   25      Cl     -4.1223560000     1.4607040000    -2.2402210000
   26      H      -2.2012970000     2.7458700000    -0.5855930000
   27      H      -0.5761730000    -1.8409570000    -1.5173070000
   28      H       2.3131010000     3.6957940000     1.3912730000
   29      H       3.1840620000     2.4238030000     2.2687110000
   30      H       1.6202580000     3.0315370000     2.8491300000
   31      H       3.0739220000    -1.1481250000     1.5801440000
   32      H       3.4309650000     0.3652880000     2.4042580000
   33      H       4.5170800000     1.2272710000     0.2991440000
   34      H       4.1366860000    -0.2871360000    -0.5062130000
   35      H       5.5461320000    -1.5310430000     1.1498100000
   36      H       5.9269610000    -0.0256540000     1.9674150000
   37      H       7.0175790000     0.8342120000    -0.1279330000
   38      H       6.6384580000    -0.6728810000    -0.9414250000
   39      H       8.0452140000    -1.9240800000     0.7214580000
   40      H       8.4252220000    -0.4172680000     1.5345310000
   41      H       9.5157520000     0.4382130000    -0.5608710000
   42      H       9.1350240000    -1.0682600000    -1.3738490000
   43      H      10.5424360000    -2.3208290000     0.2877700000
   44      H      10.9236230000    -0.8143960000     1.1007130000
   45      H      12.0145840000     0.0404800000    -0.9952830000
   46      H      11.6331730000    -1.4659260000    -1.8080750000
   47      H      13.0402450000    -2.7174150000    -0.1476430000
   48      H      13.4216650000    -1.2119450000     0.6644420000
   49      H      14.1677840000    -1.8785740000    -2.2466530000
   50      H      15.2805870000    -1.8729520000    -0.8749020000
   51      H      14.5523650000    -0.3618310000    -1.4283670000
 ----------------------------------------------------------------

   14   -1887.0747139275      7.22e-09  Convergence criterion met
 Total energy in the final basis set =    -1887.0969917152

                    Orbital Energies (a.u.)
 --------------------------------------------------------------

 Alpha MOs
 -- Occupied --
********-101.5762 -19.1362 -19.1359 -10.2856 -10.2847 -10.2747 -10.2742
-10.2203 -10.2198 -10.2174 -10.2174 -10.2170 -10.2146 -10.1771 -10.1727
-10.1707 -10.1654 -10.1641 -10.1635 -10.1630 -10.1628 -10.1626 -10.1623
-10.1577  -9.4909  -9.4909  -7.2558  -7.2557  -7.2458  -7.2457  -7.2451
 -7.2450  -1.0706  -1.0686  -0.9414  -0.8819  -0.8812  -0.8511  -0.8159
 -0.8020  -0.7862  -0.7819  -0.7723  -0.7504  -0.7243  -0.6987  -0.6834
 -0.6641  -0.6467  -0.6223  -0.6041  -0.5917  -0.5836  -0.5777  -0.5756
 -0.5567  -0.5224  -0.5211  -0.4940  -0.4874  -0.4749  -0.4713  -0.4697
 -0.4673  -0.4617  -0.4504  -0.4416  -0.4373  -0.4343  -0.4297  -0.4289
 -0.4235  -0.4200  -0.4100  -0.4055  -0.4015  -0.3979  -0.3965  -0.3881
 -0.3825  -0.3688  -0.3677  -0.3619  -0.3524  -0.3490  -0.3477  -0.3462
 -0.3415  -0.3326  -0.3299  -0.3285  -0.3264  -0.3245  -0.3237  -0.3069
 -0.2924  -0.2865  -0.2855  -0.2757  -0.2695

          Ground-State Mulliken Net Atomic Charges

     Atom                 Charge (a.u.)
  ----------------------------------------
      1 C                    -0.448579
      2 C                     0.294786
      3 C                     0.173852
      4 C                    -0.891474
      5 C                    -0.414674
      6 C                    -0.255605
      7 C                    -0.665297
      8 C                     0.273817
      9 C                     0.991894
     10 C                    -1.130707
     11 O                    -0.290133
     12 O                    -0.260709
     13 C                     0.300966
     14 C                    -0.003559
     15 C                    -0.531110
     16 C                     0.182758
     17 C                     0.150705
     18 C                     0.047159
     19 C                    -0.229397
     20 C                    -0.432613
     21 C                    -0.706007
     22 C                    -0.408045
     23 C                    -0.704786
     24 Cl                    0.562760
     25 Cl                    0.539095
     26 H                     0.234766
     27 H                     0.234866
     28 H                     0.176694
     29 H                     0.259198
     30 H                     0.201392
     31 H                     0.184260
     32 H                     0.277835
     33 H                     0.135387
     34 H                     0.134873
     35 H                     0.091337
     36 H                     0.116599
     37 H                     0.112046
     38 H                     0.098791
     39 H                     0.113850
     40 H                     0.116686
     41 H                     0.116098
     42 H                     0.111623
     43 H                     0.111705
     44 H                     0.113600
     45 H                     0.105661
     46 H                     0.105343
     47 H                     0.129893
     48 H                     0.130663
     49 H                     0.141482
     50 H                     0.157930
     51 H                     0.142323
  ----------------------------------------
  Sum of atomic charges =     0.000000

                    Cartesian Multipole Moments
 -----------------------------------------------------------------
    Charge (ESU x 10^10)
                -0.0000
    Dipole Moment (Debye)
         X       2.5566      Y       0.4183      Z       1.4761
       Tot       2.9816
    Quadrupole Moments (Debye-Ang)
        XX    -163.1724     XY       6.2696     YY    -176.2877
        XZ       4.0149     YZ       0.3877     ZZ    -166.7050

 Total job time:  2233.34s(wall), 16640.55s(cpu)
        *  Thank you very much for using Q-Chem.  Have a nice day.  *
