 Q-Chem 5.4, Q-Chem, Inc., Pleasanton, CA (2021)
 Q-Chem 5.4.0 for Intel X86 EM64T Linux

User input:
--------------------------------------------------------------
$molecule
0 1
C                 -0.8479520000      3.8025440000     -0.1505790000
C                 -1.8832410000      3.1321130000      0.4925960000
C                 -1.6939820000      1.8225340000      0.9381190000
C                  0.3786580000      3.1622880000     -0.3486900000
C                  0.5710440000      1.8451710000      0.0986040000
C                 -0.4721790000      1.1816980000      0.7420280000
C                  1.4788740000      3.8764530000     -1.0323730000
C                  2.7773990000      3.1416540000     -1.2207640000
C                  2.9600240000      1.8538340000     -0.7791560000
C                  1.8837380000      1.1349830000     -0.1042040000
O                  1.3785350000      5.0218910000     -1.4435900000
O                  2.0226210000     -0.0189740000      0.2956140000
N                  3.7337190000      3.8464400000     -1.8522280000
H                 -0.9697710000      4.8186780000     -0.5053640000
H                 -2.8352440000      3.6268150000      0.6470920000
H                 -2.5012930000      1.3003370000      1.4393900000
H                 -0.3061340000      0.1663250000      1.0802160000
H                  3.5344710000      4.7912420000     -2.1413190000
H                  4.6306530000      3.4100760000     -1.9995270000
N                  4.2391950000      1.2542150000     -1.0121200000
C                  4.9938960000      0.9511980000      0.2116730000
C                  4.2100740000      0.1237620000     -1.9504390000
H                  5.0251600000      1.8382790000      0.8481380000
H                  6.0212400000      0.6951740000     -0.0632070000
H                  4.5628310000      0.1200730000      0.7838510000
H                  3.6839900000      0.4203120000     -2.8605480000
H                  3.7204560000     -0.7647880000     -1.5320880000
H                  5.2376510000     -0.1347660000     -2.2220450000
$end
$rem
MAX_SCF_CYCLES=200
BASIS  =  6-311++G(d,p)
GUI  =  2
JOB_TYPE  =  SP
METHOD  =  B3LYP
SOLVENT_METHOD = PCM
$end
$pcm
theory = CPCM
$end
$solvent
dielectric 37.219
opticaldielectric 1.43
$end

--------------------------------------------------------------

             Standard Nuclear Orientation (Angstroms)
    I     Atom           X                Y                Z
 ----------------------------------------------------------------
    1      C      -0.8479520000     3.8025440000    -0.1505790000
    2      C      -1.8832410000     3.1321130000     0.4925960000
    3      C      -1.6939820000     1.8225340000     0.9381190000
    4      C       0.3786580000     3.1622880000    -0.3486900000
    5      C       0.5710440000     1.8451710000     0.0986040000
    6      C      -0.4721790000     1.1816980000     0.7420280000
    7      C       1.4788740000     3.8764530000    -1.0323730000
    8      C       2.7773990000     3.1416540000    -1.2207640000
    9      C       2.9600240000     1.8538340000    -0.7791560000
   10      C       1.8837380000     1.1349830000    -0.1042040000
   11      O       1.3785350000     5.0218910000    -1.4435900000
   12      O       2.0226210000    -0.0189740000     0.2956140000
   13      N       3.7337190000     3.8464400000    -1.8522280000
   14      H      -0.9697710000     4.8186780000    -0.5053640000
   15      H      -2.8352440000     3.6268150000     0.6470920000
   16      H      -2.5012930000     1.3003370000     1.4393900000
   17      H      -0.3061340000     0.1663250000     1.0802160000
   18      H       3.5344710000     4.7912420000    -2.1413190000
   19      H       4.6306530000     3.4100760000    -1.9995270000
   20      N       4.2391950000     1.2542150000    -1.0121200000
   21      C       4.9938960000     0.9511980000     0.2116730000
   22      C       4.2100740000     0.1237620000    -1.9504390000
   23      H       5.0251600000     1.8382790000     0.8481380000
   24      H       6.0212400000     0.6951740000    -0.0632070000
   25      H       4.5628310000     0.1200730000     0.7838510000
   26      H       3.6839900000     0.4203120000    -2.8605480000
   27      H       3.7204560000    -0.7647880000    -1.5320880000
   28      H       5.2376510000    -0.1347660000    -2.2220450000
 ----------------------------------------------------------------

    9    -724.6654345979      4.35e-06  Convergence criterion met
 Total energy in the final basis set =     -724.6654345979

                    Orbital Energies (a.u.)
 --------------------------------------------------------------

 Alpha MOs
 -- Occupied --
-19.1423 -19.1135 -14.3427 -14.3160 -10.2904 -10.2664 -10.2457 -10.2070
-10.2052 -10.2040 -10.1965 -10.1953 -10.1928 -10.1920 -10.1839 -10.1837
 -1.0773  -1.0481  -0.9552  -0.9168  -0.8860  -0.8120  -0.7753  -0.7572
 -0.7048  -0.6961  -0.6597  -0.6388  -0.6063  -0.5907  -0.5712  -0.5383
 -0.5113  -0.5049  -0.4872  -0.4717  -0.4667  -0.4595  -0.4500  -0.4483
 -0.4435  -0.4429  -0.4221  -0.4158  -0.3903  -0.3834  -0.3776  -0.3766
 -0.3667  -0.3649  -0.3565  -0.2953  -0.2833  -0.2772  -0.2758  -0.2325
 -0.2249

          Ground-State Mulliken Net Atomic Charges

     Atom                 Charge (a.u.)
  ----------------------------------------
      1 C                    -0.002525
      2 C                    -0.333145
      3 C                    -0.318610
      4 C                     0.946980
      5 C                     0.046516
      6 C                     0.087402
      7 C                    -0.683897
      8 C                     0.271834
      9 C                    -0.302430
     10 C                    -0.810277
     11 O                    -0.293336
     12 O                    -0.304260
     13 N                    -0.491869
     14 H                     0.190562
     15 H                     0.220657
     16 H                     0.224564
     17 H                     0.190440
     18 H                     0.353512
     19 H                     0.342951
     20 N                     0.171242
     21 C                    -0.236040
     22 C                    -0.239461
     23 H                     0.155312
     24 H                     0.159112
     25 H                     0.170324
     26 H                     0.154751
     27 H                     0.170219
     28 H                     0.159472
  ----------------------------------------
  Sum of atomic charges =     0.000000

                    Cartesian Multipole Moments
 -----------------------------------------------------------------
    Charge (ESU x 10^10)
                 0.0000
    Dipole Moment (Debye)
         X       0.1554      Y       1.8704      Z      -0.7710
       Tot       2.0291
    Quadrupole Moments (Debye-Ang)
        XX     -70.7394     XY       6.4220     YY     -96.2176
        XZ     -11.1734     YZ       0.1246     ZZ     -91.7532

 Total job time:  53.68s(wall), 332.07s(cpu)
        *  Thank you very much for using Q-Chem.  Have a nice day.  *
