 Gaussian 16, Revision A.03,
 Gaussian 16:  ES64L-G16RevA.03 25-Dec-2016

 -------------------------------
 #P UB3LYP/genecp nosym opt freq
 -------------------------------

 -------
 Reduced
 -------
 Symbolic Z-matrix:
 Charge = -2 Multiplicity = 1

 SCF Done:  E(UB3LYP) =  -1133.25604024     A.U. after   29 cycles
 SCF Done:  E(UB3LYP) =  -1133.26342249     A.U. after   22 cycles
 SCF Done:  E(UB3LYP) =  -1133.26379850     A.U. after   17 cycles
 SCF Done:  E(UB3LYP) =  -1133.26414800     A.U. after   16 cycles
 SCF Done:  E(UB3LYP) =  -1133.26417264     A.U. after   17 cycles
 SCF Done:  E(UB3LYP) =  -1133.26407667     A.U. after   19 cycles
 SCF Done:  E(UB3LYP) =  -1133.26417475     A.U. after   19 cycles
 SCF Done:  E(UB3LYP) =  -1133.26417748     A.U. after   14 cycles
 Optimization completed.
    -- Stationary point found.
 Normal termination of Gaussian 16 at Fri Dec 22 18:12:38 2023.

 ------------------------------------------------------------------
 #P Geom=AllCheck Guess=TCheck SCRF=Check GenChk UB3LYP/GenECP Freq
 ------------------------------------------------------------------

 Structure from the checkpoint file:  "016-an.chk"
 -------
 Reduced
 -------
 Charge = -2 Multiplicity = 1

                          Input orientation:
 ---------------------------------------------------------------------
 Center     Atomic      Atomic             Coordinates (Angstroms)
 Number     Number       Type             X           Y           Z
 ---------------------------------------------------------------------
      1          6           0       -1.757538    1.498368    1.061227
      2          6           0       -2.932959    0.710657    0.812763
      3          6           0       -2.979233   -0.536205    0.194344
      4          6           0       -1.772954   -1.188791   -0.281444
      5          6           0       -0.592714   -0.416530   -0.040822
      6          6           0       -0.575368    0.844164    0.587819
      7          8           0       -1.768292   -2.346182   -0.860681
      8          8           0       -1.797306    2.645514    1.639879
      9         53           0        1.210162    1.986833    0.936582
     10         53           0        1.181998   -1.397947   -0.749340
     11          1           0       -3.844840    1.183826    1.162207
     12          6           0       -4.321383   -1.274346   -0.009493
     13          6           0       -5.534901   -0.492774    0.531179
     14          6           0       -4.278375   -2.638918    0.721598
     15          6           0       -4.554775   -1.516360   -1.521232
     16          1           0       -5.647233    0.476276    0.035102
     17          1           0       -5.453496   -0.310418    1.607239
     18          1           0       -6.449781   -1.074215    0.352926
     19          1           0       -4.184554   -2.483942    1.802785
     20          1           0       -3.414590   -3.204683    0.366424
     21          1           0       -5.200467   -3.211837    0.535436
     22          1           0       -4.658541   -0.558434   -2.044093
     23          1           0       -5.474379   -2.099509   -1.686875
     24          1           0       -3.697746   -2.054927   -1.930852
 ---------------------------------------------------------------------

 SCF Done:  E(UB3LYP) =  -1133.26417748     A.U. after    1 cycles

 Alpha  occ. eigenvalues --  -18.77053 -18.76598  -9.95714  -9.94635  -9.93936
 Alpha  occ. eigenvalues --   -9.93636  -9.93596  -9.93358  -9.92847  -9.92847
 Alpha  occ. eigenvalues --   -9.90535  -9.88886  -6.57984  -6.57927  -4.60297
 Alpha  occ. eigenvalues --   -4.60235  -4.59368  -4.59311  -4.59264  -4.59212
 Alpha  occ. eigenvalues --   -1.65126  -1.65064  -1.64829  -1.64767  -1.64745
 Alpha  occ. eigenvalues --   -1.64688  -1.63938  -1.63935  -1.63886  -1.63883
 Alpha  occ. eigenvalues --   -0.69075  -0.68351  -0.59132  -0.54734  -0.48327
 Alpha  occ. eigenvalues --   -0.46698  -0.45668  -0.44945  -0.41169  -0.40077
 Alpha  occ. eigenvalues --   -0.33834  -0.29452  -0.27401  -0.22513  -0.22275
 Alpha  occ. eigenvalues --   -0.21622  -0.19002  -0.17178  -0.16947  -0.16205
 Alpha  occ. eigenvalues --   -0.14382  -0.12796  -0.12015  -0.10962  -0.10498
 Alpha  occ. eigenvalues --   -0.10120  -0.09736  -0.07927  -0.06854  -0.06351
 Alpha  occ. eigenvalues --   -0.03336  -0.01815  -0.01008   0.00993   0.02064
 Alpha  occ. eigenvalues --    0.03387   0.05107   0.05622   0.12375
 Alpha virt. eigenvalues --    0.15394   0.17719   0.18044   0.19179   0.19799
 Alpha virt. eigenvalues --    0.20938   0.21057   0.22245   0.22704   0.24057
 Alpha virt. eigenvalues --    0.24376   0.24984   0.25511   0.25681   0.26840

  Beta  occ. eigenvalues --  -18.77053 -18.76598  -9.95714  -9.94635  -9.93936
  Beta  occ. eigenvalues --   -9.93636  -9.93596  -9.93358  -9.92847  -9.92847
  Beta  occ. eigenvalues --   -9.90535  -9.88886  -6.57984  -6.57927  -4.60297
  Beta  occ. eigenvalues --   -4.60235  -4.59368  -4.59311  -4.59264  -4.59212
  Beta  occ. eigenvalues --   -1.65126  -1.65064  -1.64829  -1.64767  -1.64745
  Beta  occ. eigenvalues --   -1.64688  -1.63938  -1.63935  -1.63886  -1.63883
  Beta  occ. eigenvalues --   -0.69075  -0.68351  -0.59132  -0.54734  -0.48327
  Beta  occ. eigenvalues --   -0.46698  -0.45668  -0.44945  -0.41169  -0.40077
  Beta  occ. eigenvalues --   -0.33834  -0.29452  -0.27401  -0.22513  -0.22275
  Beta  occ. eigenvalues --   -0.21622  -0.19002  -0.17178  -0.16947  -0.16205
  Beta  occ. eigenvalues --   -0.14382  -0.12796  -0.12015  -0.10962  -0.10498
  Beta  occ. eigenvalues --   -0.10120  -0.09736  -0.07927  -0.06854  -0.06351
  Beta  occ. eigenvalues --   -0.03336  -0.01815  -0.01008   0.00993   0.02064
  Beta  occ. eigenvalues --    0.03387   0.05107   0.05622   0.12375
  Beta virt. eigenvalues --    0.15394   0.17719   0.18044   0.19179   0.19799
  Beta virt. eigenvalues --    0.20938   0.21057   0.22245   0.22704   0.24057
  Beta virt. eigenvalues --    0.24376   0.24984   0.25511   0.25681   0.26840

 Mulliken charges and spin densities:
               1          2
     1  C   -1.664165  -0.000000
     2  C   -0.099030   0.000000
     3  C    1.040057  -0.000000
     4  C   -1.122512   0.000000
     5  C    0.337876  -0.000000
     6  C    0.993102   0.000000
     7  O   -0.418856  -0.000000
     8  O   -0.463497  -0.000000
     9  I   -0.290162  -0.000000
    10  I   -0.281590   0.000000
    11  H    0.103665  -0.000000
    12  C    0.800816   0.000000
    13  C   -0.572662  -0.000000
    14  C   -0.701674  -0.000000
    15  C   -0.701547  -0.000000
    16  H    0.110096   0.000000
    17  H    0.110071   0.000000
    18  H    0.111451  -0.000000
    19  H    0.090976   0.000000
    20  H    0.196230   0.000000
    21  H    0.067081   0.000000
    22  H    0.090937   0.000000
    23  H    0.067077  -0.000000
    24  H    0.196260   0.000000
 Sum of Mulliken charges =  -2.00000  -0.00000

 Dipole moment (field-independent basis, Debye):
    X=             11.7020    Y=             -1.0994    Z=             -2.9021  Tot=             12.1066
 Quadrupole moment (field-independent basis, Debye-Ang):
   XX=           -192.1140   YY=           -188.6557   ZZ=           -152.7368
   XY=             -5.9692   XZ=              4.5499   YZ=            -23.6633

  Exact polarizability: 308.523  28.785 243.302  -4.377  39.761 177.039
 Approx polarizability: 447.926  19.333 402.409 -14.401  72.165 291.141

                      1                      2                      3
                      A                      A                      A
 Frequencies --     31.9674                52.8034                76.4491
 Red. masses --      9.0092                 4.5793                 4.1160
 Frc consts  --      0.0054                 0.0075                 0.0142
 IR Inten    --      1.5306                 6.8831                 0.3278

                      4                      5                      6
                      A                      A                      A
 Frequencies --     92.2342               119.5030               167.8140
 Red. masses --     65.8360                 8.0857                 7.8331
 Frc consts  --      0.3300                 0.0680                 0.1300
 IR Inten    --      2.9046                 3.3003                 4.6964

                      7                      8                      9
                      A                      A                      A
 Frequencies --    175.3239               211.5279               215.7535
 Red. masses --      8.5369                 4.8419                 9.9161
 Frc consts  --      0.1546                 0.1276                 0.2720
 IR Inten    --      0.5734                 1.6409                 4.5077

                     10                     11                     12
                      A                      A                      A
 Frequencies --    238.0419               250.0091               258.6816
 Red. masses --      4.7841                 1.4925                 2.4283
 Frc consts  --      0.1597                 0.0550                 0.0957
 IR Inten    --      2.1055                 0.0027                 0.4678

                     13                     14                     15
                      A                      A                      A
 Frequencies --    288.6287               296.2204               321.5422
 Red. masses --      1.8674                 1.4966                 1.0971
 Frc consts  --      0.0917                 0.0774                 0.0668
 IR Inten    --      2.5356                 0.6617                 0.2151

                     16                     17                     18
                      A                      A                      A
 Frequencies --    338.2381               338.4804               404.2064
 Red. masses --      4.4768                 2.8024                 2.6646
 Frc consts  --      0.3018                 0.1892                 0.2565
 IR Inten    --     11.4981                 0.2809                 0.0133

                     19                     20                     21
                      A                      A                      A
 Frequencies --    415.7656               464.6761               477.2018
 Red. masses --      2.6353                 5.1100                 7.3960
 Frc consts  --      0.2684                 0.6501                 0.9923
 IR Inten    --      2.3201                 4.3408                 4.0819

                     22                     23                     24
                      A                      A                      A
 Frequencies --    540.9349               564.8610               660.4075
 Red. masses --      4.9304                 3.9809                 3.9168
 Frc consts  --      0.8500                 0.7484                 1.0065
 IR Inten    --      0.4873                 0.0134                 0.0015

                     25                     26                     27
                      A                      A                      A
 Frequencies --    665.3553               717.8715               740.7375
 Red. masses --      6.3597                 8.3349                 7.8225
 Frc consts  --      1.6588                 2.5307                 2.5288
 IR Inten    --      3.8919                63.8595                 5.7182

                     28                     29                     30
                      A                      A                      A
 Frequencies --    804.9204               825.1500               837.1476
 Red. masses --      5.0875                 4.4434                 1.6856
 Frc consts  --      1.9420                 1.7825                 0.6960
 IR Inten    --    129.2214                58.3814                12.3543

                     31                     32                     33
                      A                      A                      A
 Frequencies --    916.1256               926.6508               953.0673
 Red. masses --      1.7956                 1.7640                 1.2136
 Frc consts  --      0.8879                 0.8924                 0.6495
 IR Inten    --      0.2247                 8.4495                 0.3504

                     34                     35                     36
                      A                      A                      A
 Frequencies --    956.3392              1033.7619              1046.7379
 Red. masses --      4.7918                 1.5431                 1.3795
 Frc consts  --      2.5821                 0.9716                 0.8905
 IR Inten    --      9.8603                27.4933                 0.0889

                     37                     38                     39
                      A                      A                      A
 Frequencies --   1077.4335              1110.5954              1207.8071
 Red. masses --      2.8497                10.3116                 2.6207
 Frc consts  --      1.9491                 7.4936                 2.2525
 IR Inten    --     83.5979               174.6288                 5.9393

                     40                     41                     42
                      A                      A                      A
 Frequencies --   1211.1756              1253.8177              1265.0828
 Red. masses --      2.3387                 2.2812                 2.5641
 Frc consts  --      2.0213                 2.1130                 2.4178
 IR Inten    --     41.1740                61.7633                20.1771

                     43                     44                     45
                      A                      A                      A
 Frequencies --   1326.1463              1351.7355              1354.2246
 Red. masses --      5.3136                 1.2143                 1.8227
 Frc consts  --      5.5058                 1.3073                 1.9695
 IR Inten    --     87.3433                16.0634                93.7360

                     46                     47                     48
                      A                      A                      A
 Frequencies --   1378.8293              1390.8726              1413.6016
 Red. masses --      2.4990                 1.4823                 6.0245
 Frc consts  --      2.7993                 1.6895                 7.0929
 IR Inten    --     13.9505                69.1933                51.4788

                     49                     50                     51
                      A                      A                      A
 Frequencies --   1438.0810              1458.0704              1485.9320
 Red. masses --      3.5242                 1.0473                 1.0482
 Frc consts  --      4.2941                 1.3118                 1.3637
 IR Inten    --    600.7671                 0.9954                 0.7633

                     52                     53                     54
                      A                      A                      A
 Frequencies --   1486.6222              1494.1724              1511.5019
 Red. masses --      1.1689                 1.0540                 1.0537
 Frc consts  --      1.5220                 1.3864                 1.4184
 IR Inten    --     28.8440                 1.7613                 1.5104

                     55                     56                     57
                      A                      A                      A
 Frequencies --   1529.0896              1584.4305              2945.6469
 Red. masses --      1.0572                 7.1541                 1.0495
 Frc consts  --      1.4564                10.5815                 5.3652
 IR Inten    --      3.5191               106.8134                61.4508

                     58                     59                     60
                      A                      A                      A
 Frequencies --   2955.5477              2986.2852              3025.3943
 Red. masses --      1.0485                 1.0431                 1.0854
 Frc consts  --      5.3962                 5.4806                 5.8531
 IR Inten    --    318.7370               210.5073                61.8664

                     61                     62                     63
                      A                      A                      A
 Frequencies --   3029.4200              3045.4895              3071.3303
 Red. masses --      1.0860                 1.0895                 1.1011
 Frc consts  --      5.8721                 5.9536                 6.1199
 IR Inten    --     22.7268                83.2743                55.2023

                     64                     65                     66
                      A                      A                      A
 Frequencies --   3088.2682              3091.5114              3151.7167
 Red. masses --      1.0998                 1.0990                 1.0857
 Frc consts  --      6.1799                 6.1883                 6.3542
 IR Inten    --      0.0329                15.2759                40.8330

 - Thermochemistry -
 -------------------
 Temperature   298.150 Kelvin.  Pressure   1.00000 Atm.
 Atom     1 has atomic number  6 and mass  12.00000

 Molecular mass:   415.86888 amu.
 Principal axes and moments of inertia in atomic units:
                           1         2         3
     Eigenvalues --  4552.830638143.10226**********
           X            0.89063  -0.44130   0.10972
           Y            0.44112   0.77984  -0.44414
           Z            0.11043   0.44396   0.88922
 This molecule is an asymmetric top.
 Rotational symmetry number  1.
 Warning -- assumption of classical behavior for rotation
           may cause significant error
 Rotational temperatures (Kelvin)      0.01902     0.01064     0.00704
 Rotational constants (GHZ):           0.39640     0.22163     0.14675
 Zero-point vibrational energy     449466.7 (Joules/Mol)
                                  107.42513 (Kcal/Mol)
 Warning -- explicit consideration of  23 degrees of freedom as
           vibrations may cause significant error
 Vibrational temperatures:     45.99    75.97   109.99   132.70   171.94
          (Kelvin)            241.45   252.25   304.34   310.42   342.49
                              359.71   372.19   415.27   426.20   462.63
                              486.65   487.00   581.56   598.19   668.57
                              686.59   778.28   812.71   950.18   957.30
                             1032.86  1065.76  1158.10  1187.21  1204.47
                             1318.10  1333.24  1371.25  1375.96  1487.35
                             1506.02  1550.19  1597.90  1737.77  1742.61
                             1803.96  1820.17  1908.03  1944.85  1948.43
                             1983.83  2001.16  2033.86  2069.08  2097.84
                             2137.92  2138.92  2149.78  2174.71  2200.02
                             2279.64  4238.13  4252.37  4296.60  4352.87
                             4358.66  4381.78  4418.96  4443.33  4448.00
                             4534.62

 Zero-point correction=                           0.171193 (Hartree/Particle)
 Thermal correction to Energy=                    0.186312
 Thermal correction to Enthalpy=                  0.187256
 Thermal correction to Gibbs Free Energy=         0.126602
 Sum of electronic and zero-point Energies=          -1133.092985
 Sum of electronic and thermal Energies=             -1133.077866
 Sum of electronic and thermal Enthalpies=           -1133.076922
 Sum of electronic and thermal Free Energies=        -1133.137576

                     E (Thermal)             CV                S
                      KCal/Mol        Cal/Mol-Kelvin    Cal/Mol-Kelvin
 Total                  116.912             54.755            127.657
 Electronic               0.000              0.000              0.000
 Translational            0.889              2.981             43.966
 Rotational               0.889              2.981             34.477
 Vibrational            115.135             48.793             49.214
 Vibration     1          0.594              1.983              5.703
 Vibration     2          0.596              1.976              4.710
 Vibration     3          0.599              1.965              3.980
 Vibration     4          0.602              1.955              3.612
 Vibration     5          0.609              1.933              3.108
 Vibration     6          0.625              1.882              2.460
 Vibration     7          0.627              1.873              2.378
 Vibration     8          0.643              1.823              2.030
 Vibration     9          0.645              1.817              1.994
 Vibration    10          0.656              1.782              1.817
 Vibration    11          0.663              1.763              1.731
 Vibration    12          0.667              1.748              1.671
 Vibration    13          0.685              1.695              1.482
 Vibration    14          0.690              1.681              1.438
 Vibration    15          0.707              1.632              1.302
 Vibration    16          0.719              1.599              1.220
 Vibration    17          0.719              1.599              1.219
 Vibration    18          0.769              1.461              0.947
 Vibration    19          0.779              1.436              0.906
 Vibration    20          0.822              1.328              0.753
 Vibration    21          0.834              1.301              0.718
 Vibration    22          0.896              1.160              0.563
 Vibration    23          0.921              1.107              0.514

                           ! Non-Optimized Parameters !
 Normal termination of Gaussian 16 at Fri Dec 22 18:53:31 2023.
