 Q-Chem 5.4, Q-Chem, Inc., Pleasanton, CA (2021)
 Q-Chem 5.4.0 for Intel X86 EM64T Linux

User input:
--------------------------------------------------------------
$molecule
-1 2
N                 -2.5876590000     -2.2688730000      0.5753590000
C                 -2.3435880000     -0.9443010000      0.2151730000
C                 -3.4185680000     -0.0912270000     -0.0060410000
C                 -3.2152260000      1.2607720000     -0.2995690000
C                 -1.9399280000      1.7983520000     -0.3623800000
O                 -1.7958990000      3.1413820000     -0.6398770000
C                 -0.7978250000      0.9772960000     -0.1546270000
C                  0.5557400000      1.5463690000     -0.2254980000
O                  0.7880020000      2.7595360000     -0.4151170000
C                  1.6745910000      0.6057000000     -0.0609810000
C                  2.9949250000      1.0974390000     -0.1347770000
C                  4.0801650000      0.2543550000      0.0037030000
C                  3.8734020000     -1.1249230000      0.2237810000
C                  2.5893270000     -1.6252010000      0.2996370000
C                  1.4669880000     -0.7764190000      0.1612320000
C                  0.1263160000     -1.3428350000      0.2548180000
O                 -0.0050660000     -2.5956320000      0.4388780000
C                 -1.0045040000     -0.4314600000      0.1171080000
H                 -3.4406000000     -2.6588770000      0.2031730000
H                 -1.7468710000     -2.8474940000      0.5100110000
H                 -4.4296390000     -0.4810810000      0.0717020000
H                 -4.0734290000      1.9084800000     -0.4697020000
H                 -2.6843490000      3.4975740000     -0.7466860000
H                  3.1190320000      2.1603620000     -0.3058010000
H                  5.0900280000      0.6496950000     -0.0563620000
H                  4.7247050000     -1.7906020000      0.3339430000
H                  2.3999300000     -2.6783880000      0.4689000000
$end

$rem
BASIS  =  6-311++G(d,p)
GUI  =  2
JOB_TYPE  =  SP
METHOD  =  B3LYP
SCF_CONVERGENCE  = 8
SOLVENT_METHOD = sm12
$end

$smx
solvent dimethylformamide
charges CM5
$end

--------------------------------------------------------------

             Standard Nuclear Orientation (Angstroms)
    I     Atom           X                Y                Z
 ----------------------------------------------------------------
    1      N      -2.5876590000    -2.2688730000     0.5753590000
    2      C      -2.3435880000    -0.9443010000     0.2151730000
    3      C      -3.4185680000    -0.0912270000    -0.0060410000
    4      C      -3.2152260000     1.2607720000    -0.2995690000
    5      C      -1.9399280000     1.7983520000    -0.3623800000
    6      O      -1.7958990000     3.1413820000    -0.6398770000
    7      C      -0.7978250000     0.9772960000    -0.1546270000
    8      C       0.5557400000     1.5463690000    -0.2254980000
    9      O       0.7880020000     2.7595360000    -0.4151170000
   10      C       1.6745910000     0.6057000000    -0.0609810000
   11      C       2.9949250000     1.0974390000    -0.1347770000
   12      C       4.0801650000     0.2543550000     0.0037030000
   13      C       3.8734020000    -1.1249230000     0.2237810000
   14      C       2.5893270000    -1.6252010000     0.2996370000
   15      C       1.4669880000    -0.7764190000     0.1612320000
   16      C       0.1263160000    -1.3428350000     0.2548180000
   17      O      -0.0050660000    -2.5956320000     0.4388780000
   18      C      -1.0045040000    -0.4314600000     0.1171080000
   19      H      -3.4406000000    -2.6588770000     0.2031730000
   20      H      -1.7468710000    -2.8474940000     0.5100110000
   21      H      -4.4296390000    -0.4810810000     0.0717020000
   22      H      -4.0734290000     1.9084800000    -0.4697020000
   23      H      -2.6843490000     3.4975740000    -0.7466860000
   24      H       3.1190320000     2.1603620000    -0.3058010000
   25      H       5.0900280000     0.6496950000    -0.0563620000
   26      H       4.7247050000    -1.7906020000     0.3339430000
   27      H       2.3999300000    -2.6783880000     0.4689000000
 ----------------------------------------------------------------

   18    -819.6246665682      8.88e-09  Convergence criterion met
 Total energy in the final basis set =     -819.7203044601

                    Orbital Energies (a.u.)
 --------------------------------------------------------------

 Alpha MOs
 -- Occupied --
-19.1468 -19.0773 -19.0697 -14.3046 -10.2339 -10.2281 -10.2269 -10.2162
-10.1818 -10.1816 -10.1814 -10.1811 -10.1775 -10.1775 -10.1771 -10.1770
-10.1762 -10.1736  -1.0576  -1.0036  -0.9996  -0.9122  -0.8635  -0.8389
 -0.7894  -0.7562  -0.7470  -0.7289  -0.6704  -0.6457  -0.6332  -0.5945
 -0.5702  -0.5544  -0.5442  -0.5140  -0.4969  -0.4775  -0.4709  -0.4598
 -0.4509  -0.4364  -0.4315  -0.4294  -0.4137  -0.4059  -0.3999  -0.3899
 -0.3856  -0.3818  -0.3665  -0.3587  -0.3530  -0.3475  -0.3427  -0.2914
 -0.2694  -0.2619  -0.2565  -0.2452  -0.2302  -0.2062  -0.1385

 Beta MOs
 -- Occupied --
-19.1465 -19.0719 -19.0642 -14.3041 -10.2338 -10.2262 -10.2260 -10.2159
-10.1817 -10.1813 -10.1807 -10.1805 -10.1773 -10.1772 -10.1766 -10.1764
-10.1752 -10.1725  -1.0569  -0.9944  -0.9902  -0.9108  -0.8614  -0.8371
 -0.7855  -0.7544  -0.7451  -0.7265  -0.6638  -0.6441  -0.6306  -0.5937
 -0.5682  -0.5523  -0.5431  -0.5131  -0.4958  -0.4745  -0.4697  -0.4586
 -0.4498  -0.4347  -0.4289  -0.4239  -0.4123  -0.4003  -0.3932  -0.3878
 -0.3829  -0.3719  -0.3655  -0.3516  -0.3466  -0.3415  -0.3358  -0.2852
 -0.2557  -0.2512  -0.2491  -0.2404  -0.2252  -0.1965

          Ground-State Mulliken Net Atomic Charges

     Atom                 Charge (a.u.)    Spin (a.u.)
  --------------------------------------------------------
      1 N                    -0.312186       0.019536
      2 C                    -0.319294       0.039798
      3 C                     2.031690       0.093945
      4 C                     1.886274       0.083532
      5 C                    -0.023459       0.026567
      6 O                    -0.146807       0.006464
      7 C                    -0.822196       0.033240
      8 C                    -2.185750       0.029877
      9 O                    -0.284234       0.209528
     10 C                    -1.299882       0.050682
     11 C                    -0.044283       0.013601
     12 C                     0.944872       0.048868
     13 C                     0.955772       0.023064
     14 C                     0.244289       0.045432
     15 C                    -1.046294       0.020409
     16 C                    -1.992523       0.095566
     17 O                    -0.268869       0.199621
     18 C                    -1.003814      -0.013428
     19 H                     0.369475      -0.001195
     20 H                     0.262965      -0.003325
     21 H                     0.311568      -0.006364
     22 H                     0.356831      -0.006882
     23 H                     0.354355      -0.000604
     24 H                     0.142621      -0.000618
     25 H                     0.350859      -0.003678
     26 H                     0.364804      -0.001974
     27 H                     0.173217      -0.001658
  --------------------------------------------------------
  Sum of atomic charges =    -1.000000

                    Cartesian Multipole Moments
 -----------------------------------------------------------------
    Charge (ESU x 10^10)
                -4.8032
    Dipole Moment (Debye)
         X      -3.5512      Y      -1.1668      Z      -0.8514
       Tot       3.8337
    Quadrupole Moments (Debye-Ang)
        XX    -102.4439     XY      -7.0685     YY    -133.0541
        XZ       4.4612     YZ       5.3563     ZZ    -114.4103

 Total job time:  774.85s(wall), 5836.18s(cpu)
        *  Thank you very much for using Q-Chem.  Have a nice day.  *
