 Q-Chem 5.4, Q-Chem, Inc., Pleasanton, CA (2021)
 Q-Chem 5.4.0 for Intel X86 EM64T Linux

User input:
--------------------------------------------------------------
$molecule
-2 1
C                  3.4688230000      2.1764310000      0.1853230000
C                  2.2338560000      1.5019810000      0.7413500000
O                  2.0880390000      1.2017500000      1.9044830000
O                  2.9681000000     -0.7279070000     -0.4308450000
C                  1.9417330000     -1.4939990000     -0.4189610000
C                  2.0582740000     -2.8997550000     -0.5754730000
C                  0.9545080000     -3.7680890000     -0.5541970000
C                 -0.3290670000     -3.2893270000     -0.3803990000
C                 -0.5513460000     -1.8957750000     -0.2252740000
C                 -1.9364250000     -1.4442700000     -0.0709110000
O                 -2.9125330000     -2.2545470000     -0.0550660000
C                 -2.1364140000     -0.0095710000      0.0526390000
C                 -3.4412790000      0.5090740000      0.1839310000
C                 -3.6934480000      1.8639710000      0.2923260000
C                 -2.5960800000      2.7700980000      0.2707420000
C                 -1.3075590000      2.3077580000      0.1485130000
C                 -1.0161520000      0.9076600000      0.0370150000
C                  0.2760540000      0.4052020000     -0.0968530000
O                  1.3119540000      1.3699140000     -0.2307320000
C                  0.5568470000     -0.9750950000     -0.2405110000
H                  4.0876300000      2.5549540000      1.0007100000
H                  3.1957290000      2.9849690000     -0.4988360000
H                  4.0001810000      1.4042310000     -0.3758110000
H                  3.0673610000     -3.2853760000     -0.7057320000
H                  1.1197740000     -4.8400340000     -0.6758620000
H                 -1.1953760000     -3.9389060000     -0.3621040000
H                 -4.2474510000     -0.2182650000      0.1940810000
H                 -4.7105130000      2.2354780000      0.3931400000
H                 -2.7764910000      3.8405530000      0.3561850000
H                 -0.4787320000      3.0068880000      0.1371270000
$end
$rem
MAX_SCF_CYCLES=200
BASIS  =  6-311++G(d,p)
GUI  =  2
JOB_TYPE  =  SP
METHOD  =  B3LYP
SOLVENT_METHOD = PCM
$end
$pcm
theory = CPCM
$end
$solvent
dielectric 37.219
opticaldielectric 1.43
$end

--------------------------------------------------------------

             Standard Nuclear Orientation (Angstroms)
    I     Atom           X                Y                Z
 ----------------------------------------------------------------
    1      C       3.4688230000     2.1764310000     0.1853230000
    2      C       2.2338560000     1.5019810000     0.7413500000
    3      O       2.0880390000     1.2017500000     1.9044830000
    4      O       2.9681000000    -0.7279070000    -0.4308450000
    5      C       1.9417330000    -1.4939990000    -0.4189610000
    6      C       2.0582740000    -2.8997550000    -0.5754730000
    7      C       0.9545080000    -3.7680890000    -0.5541970000
    8      C      -0.3290670000    -3.2893270000    -0.3803990000
    9      C      -0.5513460000    -1.8957750000    -0.2252740000
   10      C      -1.9364250000    -1.4442700000    -0.0709110000
   11      O      -2.9125330000    -2.2545470000    -0.0550660000
   12      C      -2.1364140000    -0.0095710000     0.0526390000
   13      C      -3.4412790000     0.5090740000     0.1839310000
   14      C      -3.6934480000     1.8639710000     0.2923260000
   15      C      -2.5960800000     2.7700980000     0.2707420000
   16      C      -1.3075590000     2.3077580000     0.1485130000
   17      C      -1.0161520000     0.9076600000     0.0370150000
   18      C       0.2760540000     0.4052020000    -0.0968530000
   19      O       1.3119540000     1.3699140000    -0.2307320000
   20      C       0.5568470000    -0.9750950000    -0.2405110000
   21      H       4.0876300000     2.5549540000     1.0007100000
   22      H       3.1957290000     2.9849690000    -0.4988360000
   23      H       4.0001810000     1.4042310000    -0.3758110000
   24      H       3.0673610000    -3.2853760000    -0.7057320000
   25      H       1.1197740000    -4.8400340000    -0.6758620000
   26      H      -1.1953760000    -3.9389060000    -0.3621040000
   27      H      -4.2474510000    -0.2182650000     0.1940810000
   28      H      -4.7105130000     2.2354780000     0.3931400000
   29      H      -2.7764910000     3.8405530000     0.3561850000
   30      H      -0.4787320000     3.0068880000     0.1371270000
 ----------------------------------------------------------------

    9    -917.1553580479      4.60e-06  Convergence criterion met
 Total energy in the final basis set =     -917.1553580479

                    Orbital Energies (a.u.)
 --------------------------------------------------------------

 Alpha MOs
 -- Occupied --
-19.1513 -19.1039 -19.0439 -19.0328 -10.2959 -10.2008 -10.1961 -10.1939
-10.1627 -10.1605 -10.1580 -10.1575 -10.1572 -10.1561 -10.1540 -10.1479
-10.1451 -10.1445 -10.1285 -10.1249  -1.0943  -1.0156  -0.9678  -0.9537
 -0.8446  -0.8127  -0.7756  -0.7447  -0.7303  -0.7140  -0.6964  -0.6622
 -0.6142  -0.5963  -0.5948  -0.5534  -0.5174  -0.5103  -0.4980  -0.4832
 -0.4696  -0.4618  -0.4408  -0.4389  -0.4336  -0.4232  -0.4095  -0.4020
 -0.3914  -0.3887  -0.3829  -0.3796  -0.3680  -0.3651  -0.3565  -0.3539
 -0.3353  -0.3306  -0.3238  -0.3163  -0.3041  -0.2884  -0.2783  -0.2728
 -0.2413  -0.2243  -0.2224  -0.2029  -0.1833  -0.1331

          Ground-State Mulliken Net Atomic Charges

     Atom                 Charge (a.u.)
  ----------------------------------------
      1 C                    -0.492617
      2 C                     0.117296
      3 O                    -0.345288
      4 O                    -0.622801
      5 C                    -0.125460
      6 C                    -0.320784
      7 C                    -0.426031
      8 C                    -0.280421
      9 C                     0.383236
     10 C                    -0.374228
     11 O                    -0.597526
     12 C                     0.403607
     13 C                    -0.013577
     14 C                    -0.484304
     15 C                    -0.516461
     16 C                    -0.092015
     17 C                     0.348057
     18 C                    -0.454280
     19 O                    -0.060388
     20 C                     0.285368
     21 H                     0.160289
     22 H                     0.166949
     23 H                     0.203899
     24 H                     0.144761
     25 H                     0.169344
     26 H                     0.133149
     27 H                     0.160402
     28 H                     0.177573
     29 H                     0.187871
     30 H                     0.164379
  ----------------------------------------
  Sum of atomic charges =    -2.000000

                    Cartesian Multipole Moments
 -----------------------------------------------------------------
    Charge (ESU x 10^10)
                -9.6064
    Dipole Moment (Debye)
         X       0.0291      Y      11.2064      Z      -1.1011
       Tot      11.2604
    Quadrupole Moments (Debye-Ang)
        XX    -179.1616     XY      -7.0349     YY    -150.4822
        XZ      -2.4952     YZ      -5.6359     ZZ    -137.7291

 Total job time:  224.40s(wall), 490.18s(cpu)
        *  Thank you very much for using Q-Chem.  Have a nice day.  *
