 Gaussian 16, Revision A.03,
 Gaussian 16:  ES64L-G16RevA.03 25-Dec-2016

 --------------------------------------
 #P UB3LYP/6-311++G(d,p) nosym opt freq
 --------------------------------------

 --------
 Oxidized
 --------
 Symbolic Z-matrix:
 Charge =  0 Multiplicity = 1

 SCF Done:  E(UB3LYP) =  -669.261591024     A.U. after   16 cycles
 SCF Done:  E(UB3LYP) =  -669.273593991     A.U. after   14 cycles
 SCF Done:  E(UB3LYP) =  -669.274567566     A.U. after   12 cycles
 SCF Done:  E(UB3LYP) =  -669.274728935     A.U. after   12 cycles
 SCF Done:  E(UB3LYP) =  -669.274748358     A.U. after   11 cycles
 SCF Done:  E(UB3LYP) =  -669.274749147     A.U. after    9 cycles
 Optimization completed.
    -- Stationary point found.
 Normal termination of Gaussian 16 at Sat Jan  6 01:51:03 2024.

 ----------------------------------------------------------------------
 #P Geom=AllCheck Guess=TCheck SCRF=Check GenChk UB3LYP/6-311++G(d,p) F
 req
 ----------------------------------------------------------------------

 Structure from the checkpoint file:  "324.chk"
 --------
 Oxidized
 --------
 Charge =  0 Multiplicity = 1

                          Input orientation:
 ---------------------------------------------------------------------
 Center     Atomic      Atomic             Coordinates (Angstroms)
 Number     Number       Type             X           Y           Z
 ---------------------------------------------------------------------
      1          6           0       -1.795549    2.756372   -0.723020
      2          6           0       -2.892058    1.929205   -0.509025
      3          6           0       -2.682705    0.595243   -0.169320
      4          6           0       -0.495432    2.263772   -0.600871
      5          6           0       -0.271563    0.914129   -0.257021
      6          6           0       -1.387976    0.095692   -0.045319
      7          6           0        0.644946    3.201176   -0.843480
      8          6           0        2.078424    2.633548   -0.703318
      9          6           0        2.199058    1.243309   -0.348451
     10          6           0        1.125739    0.414369   -0.133140
     11          8           0        0.466222    4.360834   -1.138796
     12          8           0        3.031218    3.372741   -0.895131
     13          1           0       -1.919506    3.799203   -0.988801
     14          1           0       -3.898826    2.318363   -0.605643
     15          1           0       -3.526425   -0.063673    0.000934
     16          1           0       -1.282335   -0.949301    0.220759
     17          1           0        3.211564    0.873315   -0.256875
     18          7           0        1.296233   -0.891525    0.200651
     19          6           0        2.590059   -1.542116    0.363580
     20          6           0        2.411293   -3.008067    0.740659
     21          1           0        0.483504   -1.463235    0.350207
     22          1           0        3.164789   -1.020021    1.137553
     23          1           0        3.159284   -1.458366   -0.569644
     24          1           0        1.871635   -3.112119    1.686400
     25          1           0        3.385881   -3.484986    0.860000
     26          1           0        1.866036   -3.554182   -0.034538
 ---------------------------------------------------------------------

 SCF Done:  E(UB3LYP) =  -669.274749147     A.U. after    1 cycles

 Alpha  occ. eigenvalues --  -19.12605 -19.09879 -14.36923 -10.26681 -10.25970
 Alpha  occ. eigenvalues --  -10.24944 -10.23665 -10.22654 -10.21222 -10.20900
 Alpha  occ. eigenvalues --  -10.20848 -10.20310 -10.20142 -10.19662 -10.17376
 Alpha  occ. eigenvalues --   -1.06269  -1.02390  -0.98353  -0.89549  -0.83135
 Alpha  occ. eigenvalues --   -0.79574  -0.77628  -0.76265  -0.69773  -0.66928
 Alpha  occ. eigenvalues --   -0.64648  -0.63207  -0.60106  -0.56537  -0.53174
 Alpha  occ. eigenvalues --   -0.52628  -0.50107  -0.49689  -0.48403  -0.47280
 Alpha  occ. eigenvalues --   -0.45934  -0.44693  -0.44612  -0.42562  -0.42280
 Alpha  occ. eigenvalues --   -0.41555  -0.41288  -0.40086  -0.39599  -0.38340
 Alpha  occ. eigenvalues --   -0.37493  -0.37446  -0.34965  -0.28822  -0.28651
 Alpha  occ. eigenvalues --   -0.28332  -0.23847  -0.23427
 Alpha virt. eigenvalues --   -0.10999  -0.05855  -0.02924  -0.02036  -0.01324
 Alpha virt. eigenvalues --   -0.00241   0.00784   0.00855   0.01471   0.02657
 Alpha virt. eigenvalues --    0.02968   0.03304   0.04102   0.04148   0.04850

  Beta  occ. eigenvalues --  -19.12605 -19.09879 -14.36923 -10.26681 -10.25970
  Beta  occ. eigenvalues --  -10.24944 -10.23665 -10.22654 -10.21222 -10.20900
  Beta  occ. eigenvalues --  -10.20848 -10.20310 -10.20142 -10.19662 -10.17376
  Beta  occ. eigenvalues --   -1.06269  -1.02390  -0.98353  -0.89549  -0.83135
  Beta  occ. eigenvalues --   -0.79574  -0.77628  -0.76265  -0.69773  -0.66928
  Beta  occ. eigenvalues --   -0.64648  -0.63207  -0.60106  -0.56537  -0.53174
  Beta  occ. eigenvalues --   -0.52628  -0.50107  -0.49689  -0.48403  -0.47280
  Beta  occ. eigenvalues --   -0.45934  -0.44693  -0.44612  -0.42562  -0.42280
  Beta  occ. eigenvalues --   -0.41555  -0.41288  -0.40086  -0.39599  -0.38340
  Beta  occ. eigenvalues --   -0.37493  -0.37446  -0.34965  -0.28822  -0.28651
  Beta  occ. eigenvalues --   -0.28332  -0.23847  -0.23427
  Beta virt. eigenvalues --   -0.10999  -0.05855  -0.02924  -0.02036  -0.01324
  Beta virt. eigenvalues --   -0.00241   0.00784   0.00855   0.01471   0.02657
  Beta virt. eigenvalues --    0.02968   0.03304   0.04102   0.04148   0.04850

 Mulliken charges and spin densities:
               1          2
     1  C    0.186236   0.000000
     2  C   -0.356035  -0.000000
     3  C   -0.548597   0.000000
     4  C    0.409139  -0.000000
     5  C    0.635642  -0.000000
     6  C   -0.291496   0.000000
     7  C   -0.620700   0.000000
     8  C   -0.103057  -0.000000
     9  C    0.205566   0.000000
    10  C   -0.340099   0.000000
    11  O   -0.202668  -0.000000
    12  O   -0.270185  -0.000000
    13  H    0.190055  -0.000000
    14  H    0.174300  -0.000000
    15  H    0.178194  -0.000000
    16  H    0.035399   0.000000
    17  H    0.210152  -0.000000
    18  N    0.031138   0.000000
    19  C    0.034559   0.000000
    20  C   -0.785158  -0.000000
    21  H    0.407362  -0.000000
    22  H    0.173634   0.000000
    23  H    0.173842   0.000000
    24  H    0.155438  -0.000000
    25  H    0.161887   0.000000
    26  H    0.155454  -0.000000
 Sum of Mulliken charges =   0.00000  -0.00000

 Dipole moment (field-independent basis, Debye):
    X=             -3.6636    Y=             -8.4065    Z=              2.1604  Tot=              9.4211
 Quadrupole moment (field-independent basis, Debye-Ang):
   XX=            -87.0286   YY=           -111.8457   ZZ=            -91.7626
   XY=            -22.8230   XZ=              5.9198   YZ=              5.7886

  Exact polarizability: 195.763   4.944 197.955  -1.575 -28.950  92.153
 Approx polarizability: 306.049  43.685 333.467 -11.657 -51.154 146.813

 ******    1 imaginary frequencies (negative Signs) ******

                      1                      2                      3
                      A                      A                      A
 Frequencies --    -75.2228                40.3213                60.1626
 Red. masses --      1.6977                 4.0502                 4.4627
 Frc consts  --      0.0057                 0.0039                 0.0095
 IR Inten    --     25.1958                 3.4593                 0.0043

                      4                      5                      6
                      A                      A                      A
 Frequencies --    113.7357               122.8149               137.0391
 Red. masses --      2.5624                 3.6657                 2.0513
 Frc consts  --      0.0195                 0.0326                 0.0227
 IR Inten    --      0.0049                 0.7505                 3.9697

                      7                      8                      9
                      A                      A                      A
 Frequencies --    176.3494               214.4319               263.3513
 Red. masses --      6.0374                 2.5050                 1.2506
 Frc consts  --      0.1106                 0.0679                 0.0511
 IR Inten    --      9.2711                 6.2582                 0.0982

                     10                     11                     12
                      A                      A                      A
 Frequencies --    266.5015               316.2036               362.4468
 Red. masses --      5.4448                 4.2171                12.5203
 Frc consts  --      0.2278                 0.2484                 0.9691
 IR Inten    --      5.2243                 0.4836                 3.7688

                     13                     14                     15
                      A                      A                      A
 Frequencies --    372.2523               400.2791               416.9359
 Red. masses --      4.8287                 3.7247                 7.2853
 Frc consts  --      0.3942                 0.3516                 0.7462
 IR Inten    --      0.7968                 0.0429                 2.3532

                     16                     17                     18
                      A                      A                      A
 Frequencies --    462.6005               467.0172               514.0951
 Red. masses --      7.9520                 3.7967                 4.1745
 Frc consts  --      1.0026                 0.4879                 0.6500
 IR Inten    --      0.1000                 9.0768                16.4681

                     19                     20                     21
                      A                      A                      A
 Frequencies --    594.7875               638.1824               647.7427
 Red. masses --      6.6774                 5.1825                 3.5278
 Frc consts  --      1.3918                 1.2436                 0.8721
 IR Inten    --      3.7414                 3.0282                 1.3079

                     22                     23                     24
                      A                      A                      A
 Frequencies --    696.1680               719.0896               722.2997
 Red. masses --      6.5029                 6.8556                 2.5542
 Frc consts  --      1.8569                 2.0886                 0.7851
 IR Inten    --      4.4630                 1.0707                25.4445

                     25                     26                     27
                      A                      A                      A
 Frequencies --    775.6395               802.2262               827.2330
 Red. masses --      1.8643                 1.8136                 1.5646
 Frc consts  --      0.6608                 0.6877                 0.6308
 IR Inten    --     42.7306                 3.6682                 6.9522

                     28                     29                     30
                      A                      A                      A
 Frequencies --    845.6074               850.0099               878.8144
 Red. masses --      4.1172                 1.5638                 1.4898
 Frc consts  --      1.7346                 0.6657                 0.6779
 IR Inten    --      7.6416                17.9666                 1.9913

                     31                     32                     33
                      A                      A                      A
 Frequencies --    926.0315               974.2721               974.8421
 Red. masses --      1.9658                 6.0514                 1.3707
 Frc consts  --      0.9932                 3.3843                 0.7675
 IR Inten    --      0.6210                26.9296                 0.9865

                     34                     35                     36
                      A                      A                      A
 Frequencies --   1011.9798              1055.5120              1075.0349
 Red. masses --      1.3292                 3.2640                 2.2374
 Frc consts  --      0.8020                 2.1425                 1.5235
 IR Inten    --      0.4785                 1.2565                 4.0026

                     37                     38                     39
                      A                      A                      A
 Frequencies --   1105.7572              1145.3178              1164.5858
 Red. masses --      2.6106                 1.8500                 1.5062
 Frc consts  --      1.8806                 1.4298                 1.2036
 IR Inten    --      7.5724                15.6921                 1.0207

                     40                     41                     42
                      A                      A                      A
 Frequencies --   1181.5676              1196.4184              1228.4649
 Red. masses --      2.2536                 1.3331                 2.4681
 Frc consts  --      1.8537                 1.1243                 2.1945
 IR Inten    --     10.7576                 0.1384                46.3686

                     43                     44                     45
                      A                      A                      A
 Frequencies --   1267.6146              1303.2733              1305.7531
 Red. masses --      2.1390                 1.1010                 1.9899
 Frc consts  --      2.0250                 1.1018                 1.9990
 IR Inten    --     90.8964                 0.3618               119.6612

                     46                     47                     48
                      A                      A                      A
 Frequencies --   1323.8015              1345.2664              1351.7276
 Red. masses --      2.9176                 5.1708                 1.8668
 Frc consts  --      3.0124                 5.5135                 2.0097
 IR Inten    --      9.8990                 4.7381                14.2900

                     49                     50                     51
                      A                      A                      A
 Frequencies --   1400.8657              1422.4047              1476.1020
 Red. masses --      1.4949                 1.3448                 2.2618
 Frc consts  --      1.7285                 1.6031                 2.9037
 IR Inten    --      0.8791                12.5138                19.7498

                     52                     53                     54
                      A                      A                      A
 Frequencies --   1497.2941              1499.2233              1507.6370
 Red. masses --      1.0375                 1.2893                 1.6228
 Frc consts  --      1.3704                 1.7074                 2.1733
 IR Inten    --      9.3586                86.7684                31.8485

                     55                     56                     57
                      A                      A                      A
 Frequencies --   1525.0327              1563.1420              1592.5993
 Red. masses --      1.0914                 2.0191                 5.4973
 Frc consts  --      1.4955                 2.9067                 8.2151
 IR Inten    --     30.3550               248.7418               190.6970

                     58                     59                     60
                      A                      A                      A
 Frequencies --   1630.4888              1641.0876              1706.9246
 Red. masses --      6.1648                 5.4709                11.9203
 Frc consts  --      9.6561                 8.6810                20.4628
 IR Inten    --    128.4944                46.3641               458.2964

                     61                     62                     63
                      A                      A                      A
 Frequencies --   1769.4740              3006.5981              3028.8944
 Red. masses --     12.8368                 1.0574                 1.0368
 Frc consts  --     23.6808                 5.6317                 5.6040
 IR Inten    --     90.2862                19.6705                19.6894

                     64                     65                     66
                      A                      A                      A
 Frequencies --   3031.1494              3091.4434              3109.2482
 Red. masses --      1.1062                 1.1034                 1.0997
 Frc consts  --      5.9880                 6.2130                 6.2635
 IR Inten    --     13.3146                30.7112                18.7370

                     67                     68                     69
                      A                      A                      A
 Frequencies --   3165.8265              3177.7822              3189.6177
 Red. masses --      1.0858                 1.0894                 1.0938
 Frc consts  --      6.4119                 6.4815                 6.5563
 IR Inten    --      6.5774                13.8393                 8.0451

                     70                     71                     72
                      A                      A                      A
 Frequencies --   3199.6310              3201.9569              3666.7860
 Red. masses --      1.0954                 1.0894                 1.0764
 Frc consts  --      6.6071                 6.5805                 8.5271
 IR Inten    --      8.1008                 4.8399                52.0685

 - Thermochemistry -
 -------------------
 Temperature   298.150 Kelvin.  Pressure   1.00000 Atm.
 Atom     1 has atomic number  6 and mass  12.00000

 Molecular mass:   201.07898 amu.
 Principal axes and moments of inertia in atomic units:
                           1         2         3
     Eigenvalues --  2309.132793574.507805861.09633
           X           -0.52354   0.85200   0.00262
           Y            0.82577   0.50667   0.24776
           Z           -0.20976  -0.13188   0.96882
 This molecule is an asymmetric top.
 Rotational symmetry number  1.
 Warning -- assumption of classical behavior for rotation
           may cause significant error
 Rotational temperatures (Kelvin)      0.03751     0.02423     0.01478
 Rotational constants (GHZ):           0.78157     0.50489     0.30792
    1 imaginary frequencies ignored.
 Zero-point vibrational energy     536781.0 (Joules/Mol)
                                  128.29373 (Kcal/Mol)
 Warning -- explicit consideration of  18 degrees of freedom as
           vibrations may cause significant error
 Vibrational temperatures:     58.01    86.56   163.64   176.70   197.17
          (Kelvin)            253.73   308.52   378.90   383.44   454.95
                              521.48   535.59   575.91   599.88   665.58
                              671.93   739.67   855.77   918.20   931.96
                             1001.63  1034.61  1039.23  1115.97  1154.22
                             1190.20  1216.64  1222.97  1264.42  1332.35
                             1401.76  1402.58  1456.01  1518.65  1546.74
                             1590.94  1647.86  1675.58  1700.01  1721.38
                             1767.49  1823.81  1875.12  1878.69  1904.66
                             1935.54  1944.83  2015.53  2046.52  2123.78
                             2154.27  2157.05  2169.15  2194.18  2249.01
                             2291.40  2345.91  2361.16  2455.88  2545.88
                             4325.82  4357.90  4361.15  4447.90  4473.51
                             4554.92  4572.12  4589.15  4603.56  4606.90
                             5275.69

 Zero-point correction=                           0.204449 (Hartree/Particle)
 Thermal correction to Energy=                    0.217132
 Thermal correction to Enthalpy=                  0.218077
 Thermal correction to Gibbs Free Energy=         0.164705
 Sum of electronic and zero-point Energies=           -669.070300
 Sum of electronic and thermal Energies=              -669.057617
 Sum of electronic and thermal Enthalpies=            -669.056673
 Sum of electronic and thermal Free Energies=         -669.110044

                     E (Thermal)             CV                S
                      KCal/Mol        Cal/Mol-Kelvin    Cal/Mol-Kelvin
 Total                  136.253             48.652            112.331
 Electronic               0.000              0.000              0.000
 Translational            0.889              2.981             41.800
 Rotational               0.889              2.981             32.248
 Vibrational            134.475             42.690             38.283
 Vibration     1          0.594              1.981              5.243
 Vibration     2          0.597              1.973              4.452
 Vibration     3          0.607              1.938              3.204
 Vibration     4          0.610              1.930              3.056
 Vibration     5          0.614              1.916              2.845
 Vibration     6          0.628              1.871              2.367
 Vibration     7          0.644              1.819              2.006
 Vibration     8          0.670              1.740              1.639
 Vibration     9          0.672              1.735              1.619
 Vibration    10          0.703              1.643              1.330
 Vibration    11          0.736              1.550              1.112
 Vibration    12          0.744              1.529              1.070
 Vibration    13          0.766              1.470              0.962
 Vibration    14          0.780              1.433              0.902
 Vibration    15          0.820              1.333              0.759
 Vibration    16          0.824              1.323              0.746
 Vibration    17          0.869              1.219              0.624
 Vibration    18          0.952              1.043              0.459

                           ! Non-Optimized Parameters !
 Normal termination of Gaussian 16 at Sat Jan  6 02:10:36 2024.
