 Q-Chem 5.4, Q-Chem, Inc., Pleasanton, CA (2021)
 Q-Chem 5.4.0 for Intel X86 EM64T Linux

User input:
--------------------------------------------------------------
$molecule
-1 2
C                 -1.8580460000      3.4852600000     -0.9492790000
C                 -2.9662840000      2.9043930000     -0.3678310000
C                 -0.6275710000      2.8007620000     -1.0207650000
C                 -0.5276360000      1.4889560000     -0.4841730000
C                 -2.8857310000      1.6115470000      0.1664390000
C                 -1.6798140000      0.9299250000      0.1010350000
C                  0.5057380000      3.5010470000     -1.6609870000
C                  1.7969210000      2.7877430000     -1.7379250000
C                  1.8625130000      1.4249530000     -1.1694700000
C                  0.7511090000      0.7823740000     -0.5606280000
C                  3.0966710000      0.7475970000     -1.2453480000
C                  3.2444480000     -0.5274280000     -0.7392570000
C                  2.1590770000     -1.1761460000     -0.1354860000
C                  0.9408760000     -0.5182930000     -0.0559350000
O                  0.3583690000      4.6571460000     -2.1159510000
O                  2.8093300000      3.3031200000     -2.2620370000
O                  4.4451130000     -1.2153120000     -0.8007080000
O                 -4.1865930000      3.5543630000     -0.2844220000
H                 -1.8892650000      4.4858040000     -1.3719150000
H                 -3.7618270000      1.1637180000      0.6212240000
H                 -1.6404230000     -0.0685380000      0.5205340000
H                  3.9193130000      1.2764260000     -1.7189310000
H                  2.2850120000     -2.1778120000      0.2591450000
H                  0.1153180000     -1.0389710000      0.4150270000
H                  5.0878530000     -0.6471790000     -1.2377210000
H                 -4.0861830000      4.4221440000     -0.6890770000
$end
$rem
MAX_SCF_CYCLES=200
BASIS  =  6-311++G(d,p)
GUI  =  2
JOB_TYPE  =  SP
METHOD  =  B3LYP
SOLVENT_METHOD = COSMO
$end
$solvent
dielectric 37.219
opticaldielectric 1.43
$end

--------------------------------------------------------------

             Standard Nuclear Orientation (Angstroms)
    I     Atom           X                Y                Z
 ----------------------------------------------------------------
    1      C       2.8342358701    -0.5238782578    -0.0002674766
    2      C       3.5527601912     0.6540022458    -0.0000883267
    3      C       1.4243793157    -0.5192988802    -0.0001611631
    4      C       0.7315025495     0.7211343889     0.0000668602
    5      C       2.8858605656     1.8863288254     0.0002101152
    6      C       1.4991763915     1.9014627401     0.0003148408
    7      C       0.7385453857    -1.8286133570    -0.0001261710
    8      C      -0.7385719079    -1.8286083574     0.0001781902
    9      C      -1.4243891650    -0.5192976002     0.0000661485
   10      C      -0.7314712249     0.7211377795     0.0000826421
   11      C      -2.8342450588    -0.5238739506    -0.0000145200
   12      C      -3.5527689675     0.6539962789    -0.0001028471
   13      C      -2.8858357759     1.8863131158    -0.0000469312
   14      C      -1.4991549712     1.9014440312     0.0000475049
   15      O       1.4019463732    -2.8893554985    -0.0001058306
   16      O      -1.4019682229    -2.8893553060     0.0004319839
   17      O      -4.9376803110     0.6780296934    -0.0002779995
   18      O       4.9376778745     0.6779840080    -0.0001469691
   19      H       3.3226736021    -1.4945031479    -0.0003898402
   20      H       3.4591101979     2.8062794976     0.0003845524
   21      H       1.0044368614     2.8656681812     0.0006130711
   22      H      -3.3226334246    -1.4945219986     0.0000020063
   23      H      -3.4590677100     2.8062767932    -0.0001352788
   24      H      -1.0044180567     2.8656494978     0.0000548888
   25      H      -5.2479271100    -0.2333522736    -0.0003742858
   26      H       5.2478807408    -0.2334137393    -0.0003177886
 ----------------------------------------------------------------

   11    -839.5068320200      5.75e-06  Convergence criterion met
 Total energy in the final basis set =     -839.5068320200
    5    -839.6061412711      5.90e-06  Convergence criterion met
 Total energy in the final basis set =     -839.6061412711

                    Orbital Energies (a.u.)
 --------------------------------------------------------------

 Alpha MOs
 -- Occupied --
-19.1549 -19.1548 -19.0830 -19.0830 -10.2351 -10.2351 -10.2222 -10.2219
-10.1834 -10.1830 -10.1784 -10.1783 -10.1772 -10.1772 -10.1732 -10.1732
-10.1685 -10.1685  -1.0611  -1.0611  -1.0222  -0.9949  -0.8745  -0.8475
 -0.7856  -0.7656  -0.7525  -0.7178  -0.6919  -0.6390  -0.6220  -0.5982
 -0.5937  -0.5554  -0.5441  -0.5165  -0.4910  -0.4824  -0.4605  -0.4599
 -0.4373  -0.4334  -0.4331  -0.4243  -0.4139  -0.4131  -0.4064  -0.4039
 -0.4020  -0.3804  -0.3631  -0.3626  -0.3604  -0.3527  -0.3368  -0.3229
 -0.2670  -0.2664  -0.2628  -0.2582  -0.2341  -0.2073  -0.1588

 Beta MOs
 -- Occupied --
-19.1549 -19.1549 -19.0769 -19.0768 -10.2354 -10.2354 -10.2201 -10.2198
-10.1827 -10.1823 -10.1786 -10.1785 -10.1776 -10.1776 -10.1724 -10.1724
-10.1676 -10.1676  -1.0612  -1.0612  -1.0113  -0.9834  -0.8729  -0.8466
 -0.7829  -0.7635  -0.7509  -0.7173  -0.6835  -0.6383  -0.6198  -0.5942
 -0.5922  -0.5548  -0.5436  -0.5154  -0.4870  -0.4811  -0.4592  -0.4584
 -0.4371  -0.4323  -0.4236  -0.4189  -0.4128  -0.4116  -0.4008  -0.4008
 -0.3941  -0.3800  -0.3618  -0.3537  -0.3516  -0.3436  -0.3358  -0.3099
 -0.2603  -0.2596  -0.2566  -0.2496  -0.2284  -0.2042

          Ground-State Mulliken Net Atomic Charges

     Atom                 Charge (a.u.)    Spin (a.u.)
  --------------------------------------------------------
      1 C                     0.211799       0.089436
      2 C                    -0.537561      -0.025489
      3 C                     0.659349      -0.014712
      4 C                     0.467138       0.038775
      5 C                    -0.504911       0.067622
      6 C                    -0.342650      -0.027257
      7 C                    -0.469987       0.151103
      8 C                    -0.469820       0.151074
      9 C                     0.659612      -0.014716
     10 C                     0.466950       0.038751
     11 C                     0.212503       0.089424
     12 C                    -0.538122      -0.025479
     13 C                    -0.504795       0.067611
     14 C                    -0.342735      -0.027249
     15 O                    -0.509856       0.231126
     16 O                    -0.509857       0.231090
     17 O                    -0.321394      -0.000444
     18 O                    -0.321372      -0.000445
     19 H                     0.164733      -0.007481
     20 H                     0.228376      -0.004679
     21 H                     0.132356       0.002050
     22 H                     0.164739      -0.007480
     23 H                     0.228365      -0.004679
     24 H                     0.132357       0.002050
     25 H                     0.322392      -0.000001
     26 H                     0.322391      -0.000001
  --------------------------------------------------------
  Sum of atomic charges =    -1.000000

                    Cartesian Multipole Moments
 -----------------------------------------------------------------
    Charge (ESU x 10^10)
                -4.8032
    Dipole Moment (Debye)
         X      -0.0009      Y      10.8720      Z      -0.0001
       Tot      10.8720
    Quadrupole Moments (Debye-Ang)
        XX    -116.2772     XY       0.0019     YY    -143.0535
        XZ      -0.0006     YZ       0.0045     ZZ    -110.2848

 Total job time:  92.11s(wall), 699.46s(cpu)
        *  Thank you very much for using Q-Chem.  Have a nice day.  *
