 Gaussian 16, Revision A.03,
 Gaussian 16:  ES64L-G16RevA.03 25-Dec-2016

 --------------------------------------
 #P UB3LYP/6-311++G(d,p) nosym opt freq
 --------------------------------------

 -------
 Radical
 -------
 Symbolic Z-matrix:
 Charge = -1 Multiplicity = 2

 SCF Done:  E(UB3LYP) =  -839.506720360     A.U. after   23 cycles
 Optimization completed.
    -- Stationary point found.
 Normal termination of Gaussian 16 at Tue Jan  9 20:35:05 2024.

 ----------------------------------------------------------------------
 #P Geom=AllCheck Guess=TCheck SCRF=Check GenChk UB3LYP/6-311++G(d,p) F
 req
 ----------------------------------------------------------------------

 Structure from the checkpoint file:  "331-rad.chk"
 -------
 Radical
 -------
 Charge = -1 Multiplicity = 2

                          Input orientation:
 ---------------------------------------------------------------------
 Center     Atomic      Atomic             Coordinates (Angstroms)
 Number     Number       Type             X           Y           Z
 ---------------------------------------------------------------------
      1          6           0       -1.858046    3.485260   -0.949279
      2          6           0       -2.966284    2.904393   -0.367831
      3          6           0       -0.627571    2.800762   -1.020765
      4          6           0       -0.527636    1.488956   -0.484173
      5          6           0       -2.885731    1.611547    0.166439
      6          6           0       -1.679814    0.929925    0.101035
      7          6           0        0.505738    3.501047   -1.660987
      8          6           0        1.796921    2.787743   -1.737925
      9          6           0        1.862513    1.424953   -1.169470
     10          6           0        0.751109    0.782374   -0.560628
     11          6           0        3.096671    0.747597   -1.245348
     12          6           0        3.244448   -0.527428   -0.739257
     13          6           0        2.159077   -1.176146   -0.135486
     14          6           0        0.940876   -0.518293   -0.055935
     15          8           0        0.358369    4.657146   -2.115951
     16          8           0        2.809330    3.303120   -2.262037
     17          8           0        4.445113   -1.215312   -0.800708
     18          8           0       -4.186593    3.554363   -0.284422
     19          1           0       -1.889265    4.485804   -1.371915
     20          1           0       -3.761827    1.163718    0.621224
     21          1           0       -1.640423   -0.068538    0.520534
     22          1           0        3.919313    1.276426   -1.718931
     23          1           0        2.285012   -2.177812    0.259145
     24          1           0        0.115318   -1.038971    0.415027
     25          1           0        5.087853   -0.647179   -1.237721
     26          1           0       -4.086183    4.422144   -0.689077
 ---------------------------------------------------------------------

 SCF Done:  E(UB3LYP) =  -839.506720360     A.U. after    1 cycles

 Alpha  occ. eigenvalues --  -19.05393 -19.05393 -18.94199 -18.94197 -10.12363
 Alpha  occ. eigenvalues --  -10.12363 -10.08576 -10.08545 -10.06790 -10.06789
 Alpha  occ. eigenvalues --  -10.06590 -10.06556 -10.06374 -10.06374 -10.05724
 Alpha  occ. eigenvalues --  -10.05723 -10.05326 -10.05326  -0.95996  -0.95995
 Alpha  occ. eigenvalues --   -0.87945  -0.85211  -0.75786  -0.73345  -0.67033
 Alpha  occ. eigenvalues --   -0.64977  -0.63755  -0.60589  -0.56877  -0.52967
 Alpha  occ. eigenvalues --   -0.50830  -0.48231  -0.47908  -0.44403  -0.43684
 Alpha  occ. eigenvalues --   -0.40556  -0.36869  -0.36866  -0.34929  -0.33766
 Alpha  occ. eigenvalues --   -0.32775  -0.32050  -0.31280  -0.30570  -0.30282
 Alpha  occ. eigenvalues --   -0.30056  -0.28293  -0.27688  -0.27515  -0.26803
 Alpha  occ. eigenvalues --   -0.25158  -0.24198  -0.23508  -0.23035  -0.22033
 Alpha  occ. eigenvalues --   -0.19981  -0.15285  -0.14589  -0.13939  -0.12149
 Alpha  occ. eigenvalues --   -0.09317  -0.09088  -0.02322
 Alpha virt. eigenvalues --    0.07604   0.07736   0.07946   0.08225   0.08247
 Alpha virt. eigenvalues --    0.09586   0.11602   0.12186   0.12954   0.13099
 Alpha virt. eigenvalues --    0.13996   0.14684   0.15249   0.15704   0.16277

  Beta  occ. eigenvalues --  -19.05395 -19.05395 -18.93528 -18.93526 -10.12382
  Beta  occ. eigenvalues --  -10.12381 -10.08442 -10.08413 -10.06830 -10.06829
  Beta  occ. eigenvalues --  -10.06523 -10.06490 -10.06290 -10.06289 -10.05699
  Beta  occ. eigenvalues --  -10.05698 -10.05254 -10.05253  -0.95998  -0.95998
  Beta  occ. eigenvalues --   -0.86816  -0.83979  -0.75625  -0.73243  -0.66791
  Beta  occ. eigenvalues --   -0.64765  -0.63572  -0.60527  -0.56193  -0.52862
  Beta  occ. eigenvalues --   -0.50640  -0.48069  -0.47543  -0.44322  -0.43642
  Beta  occ. eigenvalues --   -0.40447  -0.36755  -0.36541  -0.34852  -0.33595
  Beta  occ. eigenvalues --   -0.32726  -0.31950  -0.30980  -0.30477  -0.30251
  Beta  occ. eigenvalues --   -0.29970  -0.27282  -0.27136  -0.27135  -0.26523
  Beta  occ. eigenvalues --   -0.25054  -0.23327  -0.22783  -0.22350  -0.21830
  Beta  occ. eigenvalues --   -0.17917  -0.14760  -0.13645  -0.12688  -0.11480
  Beta  occ. eigenvalues --   -0.08836  -0.08467
  Beta virt. eigenvalues --    0.04156   0.07597   0.07726   0.08043   0.08238
  Beta virt. eigenvalues --    0.09387   0.09583   0.11598   0.12959   0.13100
  Beta virt. eigenvalues --    0.13665   0.14197   0.14688   0.15260   0.15695

 Mulliken charges and spin densities:
               1          2
     1  C    0.080133   0.078009
     2  C   -0.446773  -0.018731
     3  C    0.770261   0.028356
     4  C    0.585913   0.036018
     5  C   -0.442766   0.069717
     6  C   -0.330433  -0.029869
     7  C   -0.675745   0.090283
     8  C   -0.675968   0.090275
     9  C    0.770511   0.028363
    10  C    0.585549   0.036013
    11  C    0.080429   0.078016
    12  C   -0.446872  -0.018737
    13  C   -0.442668   0.069725
    14  C   -0.330141  -0.029870
    15  O   -0.360778   0.256563
    16  O   -0.360759   0.256563
    17  O   -0.273437   0.000452
    18  O   -0.273433   0.000452
    19  H    0.126116  -0.007736
    20  H    0.159297  -0.005276
    21  H    0.049757   0.002265
    22  H    0.126132  -0.007736
    23  H    0.159298  -0.005277
    24  H    0.049747   0.002265
    25  H    0.258315  -0.000051
    26  H    0.258314  -0.000051
 Sum of Mulliken charges =  -1.00000   1.00000

 Dipole moment (field-independent basis, Debye):
    X=             -4.5897    Y=            -13.2862    Z=              7.0974  Tot=             15.7468
 Quadrupole moment (field-independent basis, Debye-Ang):
   XX=           -133.0954   YY=           -164.7422   ZZ=           -125.4179
   XY=            -11.2772   XZ=             11.6310   YZ=             26.8025

  Exact polarizability: 293.283 -56.575 228.724 -35.057 -41.324 122.169
 Approx polarizability: 469.527 -71.133 393.032 -64.696 -83.819 205.159

                      1                      2                      3
                      A                      A                      A
 Frequencies --     55.1125                56.8524               108.3093
 Red. masses --      8.0570                 6.2426                 4.6922
 Frc consts  --      0.0144                 0.0119                 0.0324
 IR Inten    --      0.0000                 1.3265                 0.0000

                      4                      5                      6
                      A                      A                      A
 Frequencies --    146.1427               175.0888               182.6491
 Red. masses --      6.3919                 6.7465                 6.7517
 Frc consts  --      0.0804                 0.1219                 0.1327
 IR Inten    --      3.2123                 1.8322                 0.0001

                      7                      8                      9
                      A                      A                      A
 Frequencies --    260.3437               267.2602               306.1448
 Red. masses --      8.5574                 3.5118                 7.4051
 Frc consts  --      0.3417                 0.1478                 0.4089
 IR Inten    --     11.6729                20.0124                 0.3084

                     10                     11                     12
                      A                      A                      A
 Frequencies --    310.0428               316.7099               382.9949
 Red. masses --      1.1120                 1.3062                 5.0298
 Frc consts  --      0.0630                 0.0772                 0.4347
 IR Inten    --      0.0051               188.1856                 0.9034

                     13                     14                     15
                      A                      A                      A
 Frequencies --    384.4638               387.7796               387.8752
 Red. masses --      7.5991                 4.5998                13.5298
 Frc consts  --      0.6618                 0.4075                 1.1993
 IR Inten    --      0.1798                 0.0436                 2.3084

                     16                     17                     18
                      A                      A                      A
 Frequencies --    419.0892               426.6356               445.3066
 Red. masses --      6.0644                 6.2450                 4.1238
 Frc consts  --      0.6276                 0.6697                 0.4818
 IR Inten    --     30.2553                 2.6090                 0.0000

                     19                     20                     21
                      A                      A                      A
 Frequencies --    483.3334               489.5791               530.9259
 Red. masses --      3.6739                 5.9055                 8.1635
 Frc consts  --      0.5057                 0.8340                 1.3558
 IR Inten    --     22.4420                 0.1664                29.4899

                     22                     23                     24
                      A                      A                      A
 Frequencies --    582.1815               617.4769               649.7061
 Red. masses --      3.3775                 5.3604                 5.5191
 Frc consts  --      0.6745                 1.2042                 1.3726
 IR Inten    --      0.0000                 0.0343                 0.2685

                     25                     26                     27
                      A                      A                      A
 Frequencies --    674.7388               689.8139               693.3578
 Red. masses --      7.5680                 5.2537                 5.8568
 Frc consts  --      2.0300                 1.4729                 1.6589
 IR Inten    --      0.6827                 0.0000                 0.8633

                     28                     29                     30
                      A                      A                      A
 Frequencies --    700.8444               715.5982               748.1515
 Red. masses --      4.5098                 7.6611                 9.2661
 Frc consts  --      1.3051                 2.3114                 3.0558
 IR Inten    --      9.1067                 0.0865                 0.0000

                     31                     32                     33
                      A                      A                      A
 Frequencies --    784.6736               790.5336               825.9874
 Red. masses --      1.5436                 1.4252                 8.7998
 Frc consts  --      0.5600                 0.5248                 3.5373
 IR Inten    --      0.0000                53.4229               141.7741

                     34                     35                     36
                      A                      A                      A
 Frequencies --    884.2888               884.8365               907.0019
 Red. masses --      1.3934                 1.4049                 1.3452
 Frc consts  --      0.6420                 0.6481                 0.6520
 IR Inten    --      0.0010                43.3788                 0.0008

                     37                     38                     39
                      A                      A                      A
 Frequencies --    911.4392               929.9916               998.4783
 Red. masses --      7.0577                 1.2834                 3.5930
 Frc consts  --      3.4544                 0.6540                 2.1105
 IR Inten    --      9.4409                 1.7985                32.2354

                     40                     41                     42
                      A                      A                      A
 Frequencies --   1016.5368              1065.4501              1127.4656
 Red. masses --      4.5046                 2.3102                 1.9100
 Frc consts  --      2.7425                 1.5451                 1.4305
 IR Inten    --      3.1439                 0.0718                 1.4402

                     43                     44                     45
                      A                      A                      A
 Frequencies --   1127.9999              1172.2864              1177.0996
 Red. masses --      1.5070                 1.7058                 1.5096
 Frc consts  --      1.1297                 1.3812                 1.2324
 IR Inten    --     40.0927                62.1520                 0.0867

                     46                     47                     48
                      A                      A                      A
 Frequencies --   1184.7317              1206.6591              1229.2962
 Red. masses --      1.5541                 3.4036                 1.6701
 Frc consts  --      1.2852                 2.9198                 1.4870
 IR Inten    --    571.1594                 0.0074                 7.0262

                     49                     50                     51
                      A                      A                      A
 Frequencies --   1259.1639              1290.3469              1295.9560
 Red. masses --      2.5083                 4.6446                 2.1815
 Frc consts  --      2.3431                 4.5563                 2.1587
 IR Inten    --     80.6986                 5.7792                17.4982

                     52                     53                     54
                      A                      A                      A
 Frequencies --   1324.8383              1353.8784              1368.5565
 Red. masses --      2.9570                 6.8363                 3.2846
 Frc consts  --      3.0579                 7.3829                 3.6246
 IR Inten    --      4.8660                 3.4877                10.2569

                     55                     56                     57
                      A                      A                      A
 Frequencies --   1436.2673              1443.3288              1501.9773
 Red. masses --      2.9473                 3.2937                 2.8275
 Frc consts  --      3.5822                 4.0426                 3.7581
 IR Inten    --     11.1427                19.9578               226.8901

                     58                     59                     60
                      A                      A                      A
 Frequencies --   1511.4106              1529.4590              1563.4191
 Red. masses --      4.1748                 8.5921                 6.8765
 Frc consts  --      5.6189                11.8419                 9.9030
 IR Inten    --    167.6024               671.1463               404.3300

                     61                     62                     63
                      A                      A                      A
 Frequencies --   1596.7153              1609.0365              1635.0556
 Red. masses --      6.0744                 6.6257                 6.9767
 Frc consts  --      9.1245                10.1067                10.9891
 IR Inten    --     41.1312                11.5781               254.5670

                     64                     65                     66
                      A                      A                      A
 Frequencies --   1636.4671              3149.9221              3150.1812
 Red. masses --      5.9439                 1.0891                 1.0892
 Frc consts  --      9.3785                 6.3670                 6.3682
 IR Inten    --      2.5190                39.6098                 1.6324

                     67                     68                     69
                      A                      A                      A
 Frequencies --   3158.2131              3169.1935              3181.0528
 Red. masses --      1.0864                 1.0858                 1.0940
 Frc consts  --      6.3847                 6.4252                 6.5223
 IR Inten    --      5.9891                 0.0122                 8.6190

                     70                     71                     72
                      A                      A                      A
 Frequencies --   3187.6792              3831.7769              3832.0097
 Red. masses --      1.0920                 1.0657                 1.0658
 Frc consts  --      6.5379                 9.2194                 9.2209
 IR Inten    --     50.2376                65.4194                32.3948

 - Thermochemistry -
 -------------------
 Temperature   298.150 Kelvin.  Pressure   1.00000 Atm.
 Atom     1 has atomic number  6 and mass  12.00000

 Molecular mass:   240.04226 amu.
 Principal axes and moments of inertia in atomic units:
                           1         2         3
     Eigenvalues --  2166.847066323.953718490.80070
           X            0.87407   0.40772   0.26413
           Y           -0.48298   0.78783   0.38217
           Z           -0.05227  -0.46161   0.88554
 This molecule is an asymmetric top.
 Rotational symmetry number  1.
 Warning -- assumption of classical behavior for rotation
           may cause significant error
 Rotational temperatures (Kelvin)      0.03997     0.01370     0.01020
 Rotational constants (GHZ):           0.83289     0.28538     0.21255
 Zero-point vibrational energy     483501.7 (Joules/Mol)
                                  115.55968 (Kcal/Mol)
 Warning -- explicit consideration of  23 degrees of freedom as
           vibrations may cause significant error
 Vibrational temperatures:     79.29    81.80   155.83   210.27   251.91
          (Kelvin)            262.79   374.58   384.53   440.47   446.08
                              455.67   551.04   553.16   557.93   558.07
                              602.98   613.83   640.70   695.41   704.40
                              763.88   837.63   888.41   934.78   970.80
                              992.49   997.59  1008.36  1029.59  1076.42
                             1128.97  1137.40  1188.41  1272.29  1273.08
                             1304.97  1311.36  1338.05  1436.59  1462.57
                             1532.95  1622.17  1622.94  1686.66  1693.58
                             1704.56  1736.11  1768.68  1811.66  1856.52
                             1864.59  1906.15  1947.93  1969.05  2066.47
                             2076.63  2161.01  2174.58  2200.55  2249.41
                             2297.32  2315.04  2352.48  2354.51  4532.04
                             4532.41  4543.96  4559.76  4576.83  4586.36
                             5513.07  5513.41

 Zero-point correction=                           0.184156 (Hartree/Particle)
 Thermal correction to Energy=                    0.198118
 Thermal correction to Enthalpy=                  0.199062
 Thermal correction to Gibbs Free Energy=         0.143039
 Sum of electronic and zero-point Energies=           -839.322564
 Sum of electronic and thermal Energies=              -839.308602
 Sum of electronic and thermal Enthalpies=            -839.307658
 Sum of electronic and thermal Free Energies=         -839.363681

                     E (Thermal)             CV                S
                      KCal/Mol        Cal/Mol-Kelvin    Cal/Mol-Kelvin
 Total                  124.321             56.366            117.910
 Electronic               0.000              0.000              1.377
 Translational            0.889              2.981             42.328
 Rotational               0.889              2.981             33.120
 Vibrational            122.543             50.404             41.085
 Vibration     1          0.596              1.976              4.625
 Vibration     2          0.596              1.975              4.564
 Vibration     3          0.606              1.943              3.299
 Vibration     4          0.617              1.907              2.722
 Vibration     5          0.627              1.873              2.380
 Vibration     6          0.630              1.863              2.301
 Vibration     7          0.668              1.745              1.659
 Vibration     8          0.672              1.733              1.614
 Vibration     9          0.697              1.662              1.383
 Vibration    10          0.699              1.655              1.362
 Vibration    11          0.704              1.642              1.327
 Vibration    12          0.752              1.506              1.027
 Vibration    13          0.753              1.503              1.022
 Vibration    14          0.756              1.496              1.009
 Vibration    15          0.756              1.496              1.008
 Vibration    16          0.782              1.429              0.895
 Vibration    17          0.788              1.412              0.870
 Vibration    18          0.805              1.371              0.810
 Vibration    19          0.840              1.287              0.701
 Vibration    20          0.845              1.273              0.685
 Vibration    21          0.886              1.182              0.585
 Vibration    22          0.939              1.070              0.481
 Vibration    23          0.977              0.995              0.421

 Optimization completed.
    -- Stationary point found.
 Normal termination of Gaussian 16 at Tue Jan  9 21:36:42 2024.
