 Q-Chem 5.4, Q-Chem, Inc., Pleasanton, CA (2021)
 Q-Chem 5.4.0 for Intel X86 EM64T Linux

User input:
--------------------------------------------------------------
$molecule
-1 2
C                 -1.7699670000      1.8911020000     -5.1439780000
C                 -1.6794230000      0.5664390000     -5.5211640000
C                 -1.3015280000     -0.4142140000     -4.5778830000
C                 -1.4895250000      2.2966210000     -3.8193210000
C                 -1.1103870000      1.3079140000     -2.8739760000
C                 -1.0236280000     -0.0420890000     -3.2783660000
C                 -1.6058620000      3.7238530000     -3.4873120000
C                 -0.8101180000      1.6653510000     -1.4925240000
C                 -1.3030910000      4.0994920000     -2.0986020000
C                 -0.9234170000      3.0883560000     -1.1541780000
C                 -1.3614760000      5.4338750000     -1.6074810000
C                 -1.0840590000      5.7892100000     -0.2836690000
C                 -0.7099540000      4.7371190000      0.5904070000
C                 -0.6290030000      3.4374190000      0.1753150000
O                 -1.9500090000      4.5467560000     -4.3678540000
O                 -0.4729780000      0.8105520000     -0.6389510000
H                 -2.0580380000      2.6620470000     -5.8485260000
H                 -1.8991170000      0.2769100000     -6.5446050000
H                 -1.2308710000     -1.4561000000     -4.8755600000
H                 -0.7314120000     -0.7689170000     -2.5293820000
Br                -0.2700630000      5.1606140000      2.4328830000
H                 -0.3390680000      2.6377500000      0.8442190000
N                 -1.2148260000      7.0933360000      0.1820610000
Cl                -1.7866940000      6.8001180000     -2.6568440000
H                 -1.1924730000      7.7977170000     -0.5408210000
H                 -0.6588320000      7.3101610000      0.9961000000
$end
$rem
MAX_SCF_CYCLES=200
BASIS  =  6-311++G(d,p)
GUI  =  2
JOB_TYPE  =  SP
METHOD  =  B3LYP
SOLVENT_METHOD = COSMO
$end
$solvent
dielectric 37.219
opticaldielectric 1.43
$end

--------------------------------------------------------------

             Standard Nuclear Orientation (Angstroms)
    I     Atom           X                Y                Z
 ----------------------------------------------------------------
    1      C       4.2300088836    -0.8111776051    -0.0019566572
    2      C       5.3172577342     0.0391509878    -0.0075045703
    3      C       5.1223781897     1.4378226137    -0.0094093814
    4      C       2.9082107292    -0.3105292152     0.0012637739
    5      C       2.7164277063     1.0959490996    -0.0002679086
    6      C       3.8408733915     1.9498581067    -0.0055409294
    7      C       1.7975904631    -1.2734650388     0.0069803927
    8      C       1.3766149563     1.6714611214     0.0042061687
    9      C       0.4407581099    -0.7075196131     0.0084437034
   10      C       0.2631984650     0.7161928451     0.0091200512
   11      C      -0.7459233721    -1.4929950713     0.0098580187
   12      C      -2.0363522596    -0.9541648666     0.0223745037
   13      C      -2.1330828556     0.4605673743     0.0164791368
   14      C      -1.0299338389     1.2674482804     0.0075363611
   15      O       2.0344295839    -2.5042516842     0.0126534112
   16      O       1.1811349476     2.9102981675     0.0028220572
   17      H       4.3529894773    -1.8875608810    -0.0000085407
   18      H       6.3244717567    -0.3670958956    -0.0102172183
   19      H       5.9783923103     2.1059196579    -0.0134849158
   20      H       3.6557283738     3.0177377108    -0.0063397989
   21      Br     -3.8925276010     1.2798993458    -0.0084051136
   22      H      -1.1076963879     2.3467268180    -0.0011928544
   23      N      -3.1761324248    -1.7484800234     0.0910306888
   24      Cl     -0.6950181189    -3.2664477455    -0.0195911888
   25      H      -3.0353877878    -2.7046121650    -0.2008818162
   26      H      -4.0144707813    -1.3185864913    -0.2711602184
 ----------------------------------------------------------------

   11   -3777.5544590147      5.80e-06  Convergence criterion met
 Total energy in the final basis set =    -3777.5544590147
    4   -3777.6347577458      9.59e-06  Convergence criterion met
 Total energy in the final basis set =    -3777.6347577458

                    Orbital Energies (a.u.)
 --------------------------------------------------------------

 Alpha MOs
 -- Occupied --
********-101.5530 -62.4908 -56.3112 -56.3075 -56.3074 -19.0828 -19.0785
-14.3275 -10.2407 -10.2389 -10.2346 -10.2321 -10.2317 -10.1954 -10.1855
-10.1816 -10.1758 -10.1744 -10.1739 -10.1731 -10.1716 -10.1700  -9.4678
 -8.6995  -7.2320  -7.2230  -7.2221  -6.5306  -6.5181  -6.5179  -2.6416
 -2.6379  -2.6378  -2.6279  -2.6279  -1.0120  -1.0091  -0.9451  -0.8731
 -0.8597  -0.8522  -0.8109  -0.7736  -0.7527  -0.7414  -0.7333  -0.6697
 -0.6407  -0.6220  -0.5978  -0.5654  -0.5456  -0.5369  -0.5142  -0.4948
 -0.4721  -0.4601  -0.4552  -0.4402  -0.4380  -0.4289  -0.4234  -0.4201
 -0.4122  -0.4077  -0.3965  -0.3896  -0.3667  -0.3568  -0.3550  -0.3509
 -0.3397  -0.3235  -0.3219  -0.3103  -0.3020  -0.2667  -0.2588  -0.2530
 -0.2523  -0.2375  -0.2273  -0.1451

 Beta MOs
 -- Occupied --
********-101.5530 -62.4908 -56.3112 -56.3075 -56.3074 -19.0779 -19.0724
-14.3273 -10.2403 -10.2383 -10.2342 -10.2304 -10.2299 -10.1944 -10.1856
-10.1809 -10.1751 -10.1737 -10.1735 -10.1727 -10.1715 -10.1700  -9.4677
 -8.6994  -7.2320  -7.2229  -7.2221  -6.5306  -6.5180  -6.5179  -2.6416
 -2.6379  -2.6378  -2.6279  -2.6278  -1.0032  -0.9986  -0.9442  -0.8715
 -0.8581  -0.8514  -0.8090  -0.7710  -0.7504  -0.7396  -0.7315  -0.6629
 -0.6389  -0.6196  -0.5969  -0.5632  -0.5438  -0.5357  -0.5128  -0.4931
 -0.4694  -0.4595  -0.4540  -0.4396  -0.4312  -0.4264  -0.4220  -0.4162
 -0.4087  -0.3995  -0.3944  -0.3699  -0.3659  -0.3541  -0.3508  -0.3447
 -0.3387  -0.3227  -0.3179  -0.3025  -0.3018  -0.2545  -0.2498  -0.2477
 -0.2463  -0.2323  -0.2208

          Ground-State Mulliken Net Atomic Charges

     Atom                 Charge (a.u.)    Spin (a.u.)
  --------------------------------------------------------
      1 C                     0.119876       0.034762
      2 C                    -0.508861       0.029133
      3 C                    -0.456458       0.039315
      4 C                     0.001285       0.033823
      5 C                     0.044468       0.016527
      6 C                     0.066805       0.021078
      7 C                    -1.159803       0.105021
      8 C                    -0.526028       0.092857
      9 C                     0.736393       0.073834
     10 C                     0.246333       0.025644
     11 C                     0.268945       0.054283
     12 C                    -1.343526       0.033842
     13 C                     0.646912       0.026234
     14 C                     0.373432       0.009813
     15 O                    -0.375514       0.222651
     16 O                    -0.477474       0.178338
     17 H                     0.177648      -0.002246
     18 H                     0.204512      -0.002580
     19 H                     0.205506      -0.003081
     20 H                     0.176758      -0.000892
     21 Br                   -0.199557       0.000855
     22 H                     0.214327      -0.000768
     23 N                    -0.232956       0.009986
     24 Cl                    0.253984       0.001853
     25 H                     0.268635      -0.000373
     26 H                     0.274356       0.000093
  --------------------------------------------------------
  Sum of atomic charges =    -1.000000

                    Cartesian Multipole Moments
 -----------------------------------------------------------------
    Charge (ESU x 10^10)
                -4.8032
    Dipole Moment (Debye)
         X      -6.6471      Y      -0.6025      Z      -1.2454
       Tot       6.7896
    Quadrupole Moments (Debye-Ang)
        XX    -135.3841     XY       9.2450     YY    -166.6141
        XZ       4.4420     YZ       2.4801     ZZ    -136.1763

 Total job time:  140.16s(wall), 769.71s(cpu)
        *  Thank you very much for using Q-Chem.  Have a nice day.  *
