 Q-Chem 5.4, Q-Chem, Inc., Pleasanton, CA (2021)
 Q-Chem 5.4.0 for Intel X86 EM64T Linux

User input:
--------------------------------------------------------------
$molecule
-2 1
C                  0.1461470000      3.7279030000     -0.0564290000
C                 -0.9570050000      3.6744450000     -0.8858280000
C                 -1.0197120000      2.7077360000     -1.9197760000
C                  1.2334680000      2.8309440000     -0.2111210000
C                  1.1715720000      1.8478880000     -1.2646180000
C                  0.0327890000      1.8212720000     -2.0905800000
C                  2.3717390000      2.8935290000      0.6581250000
C                  3.4062930000      1.9377630000      0.4038160000
C                  3.3841630000      0.9731700000     -0.5976330000
C                  2.2573660000      0.8847990000     -1.4911630000
O                  2.5399450000      3.7260290000      1.6384780000
O                  2.1978740000      0.0167790000     -2.4220500000
H                  0.2154310000      4.4599210000      0.7419230000
H                 -1.7779630000      4.3748650000     -0.7462300000
H                 -1.8867920000      2.6633000000     -2.5744530000
H                  0.0159780000      1.0706110000     -2.8743990000
O                  4.4654090000      2.0519720000      1.2740620000
H                  4.1493300000      2.8051000000      1.8304910000
C                  4.5223290000     -0.0024770000     -0.7670250000
C                  5.5545790000      0.4375240000     -1.8277280000
C                  6.6782870000     -0.5818500000     -2.1121400000
C                  7.4955730000     -0.1584190000     -3.3512960000
C                  8.5129920000     -1.1879660000     -3.8671010000
C                  9.2449080000     -0.7252930000     -5.1350720000
C                 10.2151060000     -1.7456920000     -5.7644010000
C                 10.6985980000     -1.2547940000     -7.1371190000
C                  7.5788860000     -0.7952430000     -0.8844370000
C                 11.4116410000     -2.0631370000     -4.8547430000
H                  4.0995650000     -0.9622470000     -1.0873760000
H                  5.0176090000     -0.1443550000      0.1980560000
H                  6.0025820000      1.3913700000     -1.5184830000
H                  5.0074830000      0.6278820000     -2.7565320000
H                  6.1955570000     -1.5420200000     -2.3489260000
H                  8.0174640000      0.7827040000     -3.1254750000
H                  6.7925950000      0.0740610000     -4.1606420000
H                  7.9914190000     -2.1318620000     -4.0780240000
H                  9.2441380000     -1.4116240000     -3.0839090000
H                  9.7984100000      0.1992270000     -4.9182170000
H                  8.4945490000     -0.4541350000     -5.8893980000
H                  9.6571770000     -2.6794550000     -5.9222880000
H                  9.8567310000     -1.0776390000     -7.8166540000
H                 11.3662470000     -1.9789980000     -7.6163790000
H                 11.2531480000     -0.3130140000     -7.0437250000
H                  8.3402600000     -1.5626460000     -1.0577500000
H                  6.9939380000     -1.1012700000     -0.0143670000
H                  8.0938720000      0.1367920000     -0.6215470000
H                 11.0986810000     -2.4945170000     -3.8989240000
H                 11.9889380000     -1.1558950000     -4.6389580000
H                 12.0930130000     -2.7759470000     -5.3319300000
$end

$rem
BASIS  =  6-311++G(d,p)
GUI  =  2
JOB_TYPE  =  SP
METHOD  =  B3LYP
SCF_CONVERGENCE  = 8
SOLVENT_METHOD = sm12
$end

$smx
solvent dimethylformamide
charges CM5
$end

--------------------------------------------------------------

             Standard Nuclear Orientation (Angstroms)
    I     Atom           X                Y                Z
 ----------------------------------------------------------------
    1      C       0.1461470000     3.7279030000    -0.0564290000
    2      C      -0.9570050000     3.6744450000    -0.8858280000
    3      C      -1.0197120000     2.7077360000    -1.9197760000
    4      C       1.2334680000     2.8309440000    -0.2111210000
    5      C       1.1715720000     1.8478880000    -1.2646180000
    6      C       0.0327890000     1.8212720000    -2.0905800000
    7      C       2.3717390000     2.8935290000     0.6581250000
    8      C       3.4062930000     1.9377630000     0.4038160000
    9      C       3.3841630000     0.9731700000    -0.5976330000
   10      C       2.2573660000     0.8847990000    -1.4911630000
   11      O       2.5399450000     3.7260290000     1.6384780000
   12      O       2.1978740000     0.0167790000    -2.4220500000
   13      H       0.2154310000     4.4599210000     0.7419230000
   14      H      -1.7779630000     4.3748650000    -0.7462300000
   15      H      -1.8867920000     2.6633000000    -2.5744530000
   16      H       0.0159780000     1.0706110000    -2.8743990000
   17      O       4.4654090000     2.0519720000     1.2740620000
   18      H       4.1493300000     2.8051000000     1.8304910000
   19      C       4.5223290000    -0.0024770000    -0.7670250000
   20      C       5.5545790000     0.4375240000    -1.8277280000
   21      C       6.6782870000    -0.5818500000    -2.1121400000
   22      C       7.4955730000    -0.1584190000    -3.3512960000
   23      C       8.5129920000    -1.1879660000    -3.8671010000
   24      C       9.2449080000    -0.7252930000    -5.1350720000
   25      C      10.2151060000    -1.7456920000    -5.7644010000
   26      C      10.6985980000    -1.2547940000    -7.1371190000
   27      C       7.5788860000    -0.7952430000    -0.8844370000
   28      C      11.4116410000    -2.0631370000    -4.8547430000
   29      H       4.0995650000    -0.9622470000    -1.0873760000
   30      H       5.0176090000    -0.1443550000     0.1980560000
   31      H       6.0025820000     1.3913700000    -1.5184830000
   32      H       5.0074830000     0.6278820000    -2.7565320000
   33      H       6.1955570000    -1.5420200000    -2.3489260000
   34      H       8.0174640000     0.7827040000    -3.1254750000
   35      H       6.7925950000     0.0740610000    -4.1606420000
   36      H       7.9914190000    -2.1318620000    -4.0780240000
   37      H       9.2441380000    -1.4116240000    -3.0839090000
   38      H       9.7984100000     0.1992270000    -4.9182170000
   39      H       8.4945490000    -0.4541350000    -5.8893980000
   40      H       9.6571770000    -2.6794550000    -5.9222880000
   41      H       9.8567310000    -1.0776390000    -7.8166540000
   42      H      11.3662470000    -1.9789980000    -7.6163790000
   43      H      11.2531480000    -0.3130140000    -7.0437250000
   44      H       8.3402600000    -1.5626460000    -1.0577500000
   45      H       6.9939380000    -1.1012700000    -0.0143670000
   46      H       8.0938720000     0.1367920000    -0.6215470000
   47      H      11.0986810000    -2.4945170000    -3.8989240000
   48      H      11.9889380000    -1.1558950000    -4.6389580000
   49      H      12.0930130000    -2.7759470000    -5.3319300000
 ----------------------------------------------------------------

   17   -1003.7339533006      9.71e-09  Convergence criterion met
 Total energy in the final basis set =    -1004.0181147992

                    Orbital Energies (a.u.)
 --------------------------------------------------------------

 Alpha MOs
 -- Occupied --
-19.1189 -19.0292 -19.0232 -10.1871 -10.1829 -10.1740 -10.1722 -10.1712
-10.1706 -10.1660 -10.1657 -10.1654 -10.1640 -10.1630 -10.1628 -10.1589
-10.1586 -10.1570 -10.1569 -10.1569 -10.1476 -10.1448 -10.1347  -1.0323
 -0.9459  -0.9353  -0.8403  -0.8237  -0.8071  -0.7827  -0.7569  -0.7392
 -0.7354  -0.6977  -0.6833  -0.6775  -0.6499  -0.6312  -0.6027  -0.5924
 -0.5703  -0.5628  -0.5543  -0.5483  -0.5171  -0.4855  -0.4796  -0.4673
 -0.4554  -0.4492  -0.4434  -0.4391  -0.4353  -0.4320  -0.4208  -0.4156
 -0.4108  -0.3995  -0.3882  -0.3843  -0.3827  -0.3813  -0.3695  -0.3681
 -0.3617  -0.3602  -0.3582  -0.3526  -0.3475  -0.3471  -0.3331  -0.3300
 -0.3255  -0.3219  -0.3204  -0.3180  -0.3153  -0.3104  -0.3039  -0.2985
 -0.2460  -0.2335  -0.2152  -0.2012  -0.1985  -0.1131

          Ground-State Mulliken Net Atomic Charges

     Atom                 Charge (a.u.)
  ----------------------------------------
      1 C                    -0.340666
      2 C                     1.082301
      3 C                     1.038995
      4 C                    -1.895236
      5 C                    -2.144800
      6 C                    -0.524628
      7 C                    -2.205820
      8 C                    -0.209454
      9 C                     2.229838
     10 C                    -2.668516
     11 O                    -0.416575
     12 O                    -0.267761
     13 H                     0.100901
     14 H                     0.377345
     15 H                     0.351499
     16 H                     0.064092
     17 O                    -0.037715
     18 H                     0.306640
     19 C                    -0.867791
     20 C                    -4.016706
     21 C                     0.864691
     22 C                    -0.507398
     23 C                     2.663717
     24 C                     1.089041
     25 C                     1.628062
     26 C                     0.118067
     27 C                     0.086783
     28 C                    -0.579011
     29 H                     0.019289
     30 H                     0.115533
     31 H                     0.082246
     32 H                    -0.172540
     33 H                     0.174115
     34 H                     0.047540
     35 H                     0.222215
     36 H                     0.128006
     37 H                     0.049406
     38 H                     0.154991
     39 H                     0.047948
     40 H                     0.114639
     41 H                     0.131342
     42 H                     0.269346
     43 H                     0.144977
     44 H                     0.353929
     45 H                     0.157655
     46 H                     0.116378
     47 H                     0.162700
     48 H                     0.128194
     49 H                     0.232196
  ----------------------------------------
  Sum of atomic charges =    -2.000000

                    Cartesian Multipole Moments
 -----------------------------------------------------------------
    Charge (ESU x 10^10)
                -9.6064
    Dipole Moment (Debye)
         X     -20.0576      Y     -19.0811      Z       5.1631
       Tot      28.1612
    Quadrupole Moments (Debye-Ang)
        XX    -232.2248     XY     -29.7434     YY    -220.0195
        XZ       5.8199     YZ     -10.1371     ZZ    -187.9502

 Total job time:  2590.59s(wall), 19207.96s(cpu)
        *  Thank you very much for using Q-Chem.  Have a nice day.  *
