 Q-Chem 5.4, Q-Chem, Inc., Pleasanton, CA (2021)
 Q-Chem 5.4.0 for Intel X86 EM64T Linux

User input:
--------------------------------------------------------------
$molecule
0 1
C                 -1.2205300000      2.8592640000      0.0181060000
C                 -2.5220980000      2.3620060000      0.0164910000
C                 -2.7484890000      0.9798110000      0.0150010000
C                 -0.1424120000      1.9739960000      0.0182320000
C                 -0.3602400000      0.5883250000      0.0167490000
C                 -1.6729400000      0.1058100000      0.0151360000
C                  1.2392570000      2.5347570000      0.0199710000
C                  2.3731350000      1.5401260000      0.0199080000
C                  2.1426950000      0.2069210000      0.0184720000
C                  0.7873750000     -0.3595390000      0.0168930000
O                  1.4582720000      3.7285880000      0.0211970000
O                  0.6192840000     -1.5723950000      0.0154860000
H                 -1.0215270000      3.9259490000      0.0192770000
H                 -1.8289850000     -0.9660020000      0.0140030000
O                  3.5664080000      2.1406120000      0.0214060000
O                 -3.6174120000      3.1710410000      0.0162780000
H                 -3.7691910000      0.6172030000      0.0137630000
H                  2.9430290000     -0.5213890000      0.0184130000
C                  4.7383520000      1.3242240000      0.0215160000
H                 -3.3470120000      4.0958990000      0.0173760000
H                  5.5773940000      2.0162140000      0.0227870000
H                  4.7745890000      0.6967020000     -0.8738990000
H                  4.7732570000      0.6950270000      0.9158080000
$end
$rem
MAX_SCF_CYCLES=200
BASIS  =  6-311++G(d,p)
GUI  =  2
JOB_TYPE  =  SP
METHOD  =  B3LYP
SOLVENT_METHOD = COSMO
$end
$solvent
dielectric 37.219
opticaldielectric 1.43
$end

--------------------------------------------------------------

             Standard Nuclear Orientation (Angstroms)
    I     Atom           X                Y                Z
 ----------------------------------------------------------------
    1      C       1.7619694683    -1.1833713776     0.0000224914
    2      C       2.9900644019    -0.5252450859    -0.0000383743
    3      C       3.0395459754     0.8744940672    -0.0000537741
    4      C       0.5803968706    -0.4418027266     0.0000667975
    5      C       0.6209441050     0.9602997228     0.0000544443
    6      C       1.8619489005     1.6052118956    -0.0000087848
    7      C      -0.7191097664    -1.1730671424     0.0001254394
    8      C      -1.9698463781    -0.3300795571     0.0000356115
    9      C      -1.9101427520     1.0215770949     0.0000320753
   10      C      -0.6374948783     1.7551567496     0.0001166244
   11      O      -0.7851351979    -2.3850251317     0.0000581005
   12      O      -0.6243930411     2.9795360059    -0.0000220771
   13      H       1.6996889033    -2.2666726217     0.0000351163
   14      H       1.8809680437     2.6881572133    -0.0000146845
   15      O      -3.0774424252    -1.0768841670    -0.0000256118
   16      O       4.1790378749    -1.1890165176    -0.0000843996
   17      H       4.0060937340     1.3634767819    -0.0000984241
   18      H      -2.7962866323     1.6426398869    -0.0000214520
   19      C      -4.3433599409    -0.4155257558    -0.0001400417
   20      H       4.0279698690    -2.1406772467    -0.0000728542
   21      H      -5.0879873292    -1.2082257622    -0.0002161270
   22      H      -4.4581553583     0.2032714564    -0.8950014976
   23      H      -4.4583249508     0.2032614681     0.8947067738
 ----------------------------------------------------------------

    9    -725.0686397296      8.88e-06  Convergence criterion met
 Total energy in the final basis set =     -725.0686397296
    5    -725.0926848407      3.59e-06  Convergence criterion met
 Total energy in the final basis set =     -725.0926848407

                    Orbital Energies (a.u.)
 --------------------------------------------------------------

 Alpha MOs
 -- Occupied --
-19.1886 -19.1732 -19.1457 -19.1273 -10.2949 -10.2805 -10.2749 -10.2635
-10.2293 -10.2135 -10.2023 -10.1995 -10.1993 -10.1961 -10.1952  -1.1110
 -1.0855  -1.0754  -1.0609  -0.8908  -0.8353  -0.7833  -0.7738  -0.7429
 -0.6894  -0.6638  -0.6294  -0.6002  -0.5795  -0.5508  -0.5419  -0.5115
 -0.5019  -0.4943  -0.4720  -0.4596  -0.4550  -0.4530  -0.4510  -0.4378
 -0.4293  -0.4217  -0.4140  -0.3984  -0.3735  -0.3700  -0.3652  -0.3536
 -0.2952  -0.2872  -0.2804  -0.2730  -0.2521

          Ground-State Mulliken Net Atomic Charges

     Atom                 Charge (a.u.)
  ----------------------------------------
      1 C                     0.412969
      2 C                    -0.571269
      3 C                    -0.175108
      4 C                     0.621437
      5 C                     0.007183
      6 C                     0.231718
      7 C                    -0.715202
      8 C                    -0.337577
      9 C                     0.522146
     10 C                    -0.352436
     11 O                    -0.294404
     12 O                    -0.349160
     13 H                     0.185779
     14 H                     0.203738
     15 O                    -0.174960
     16 O                    -0.274635
     17 H                     0.247331
     18 H                     0.255473
     19 C                    -0.366806
     20 H                     0.330337
     21 H                     0.217313
     22 H                     0.188094
     23 H                     0.188038
  ----------------------------------------
  Sum of atomic charges =     0.000000

                    Cartesian Multipole Moments
 -----------------------------------------------------------------
    Charge (ESU x 10^10)
                 0.0000
    Dipole Moment (Debye)
         X      -0.7135      Y      -1.7375      Z      -0.0008
       Tot       1.8783
    Quadrupole Moments (Debye-Ang)
        XX     -61.5580     XY      -7.4647     YY    -101.6585
        XZ       0.0013     YZ       0.0016     ZZ     -86.8985

 Total job time:  33.70s(wall), 251.80s(cpu)
        *  Thank you very much for using Q-Chem.  Have a nice day.  *
