 Q-Chem 5.4, Q-Chem, Inc., Pleasanton, CA (2021)
 Q-Chem 5.4.0 for Intel X86 EM64T Linux

User input:
--------------------------------------------------------------
$molecule
-1 2
C                 -3.3762860000      3.4911160000      0.0273710000
C                 -4.5976280000      2.8465930000      0.0732150000
C                 -4.6104800000      1.4288190000      0.1201550000
C                 -2.1511350000      2.7848000000      0.0259220000
C                 -2.1781240000      1.3621320000      0.0733770000
C                 -3.4316580000      0.7136490000      0.1199590000
C                 -0.8956010000      3.5349240000     -0.0241400000
C                  0.3300020000      2.7352620000     -0.0224650000
C                  0.3019770000      1.3126170000      0.0250400000
C                 -0.9530770000      0.5605930000      0.0751520000
C                  1.5815030000      3.3920820000     -0.0693350000
C                  2.7769970000      2.6992600000     -0.0706240000
C                  2.7350310000      1.2820700000     -0.0230340000
C                  1.5294760000      0.6145570000      0.0233100000
O                 -0.8713280000      4.7925410000     -0.0661190000
O                 -0.9773040000     -0.6948390000      0.1170610000
C                 -5.8978690000      3.6157320000      0.0741210000
H                 -5.5623710000      0.9041820000      0.1565700000
H                 -3.4299360000     -0.3699500000      0.1555710000
H                  1.4858430000     -0.4681300000      0.0598980000
C                  4.1059490000      3.4158710000     -0.1211160000
H                  3.6659020000      0.7197990000     -0.0232840000
H                 -3.3180970000      4.5739230000     -0.0094390000
H                  1.5652330000      4.4763770000     -0.1047180000
H                 -5.7182260000      4.6928450000      0.0349170000
H                 -6.4879280000      3.4066150000      0.9747980000
H                 -6.5236100000      3.3484490000     -0.7861850000
H                  3.9680600000      4.4993430000     -0.1536830000
H                  4.6862330000      3.1248240000     -1.0052450000
H                  4.7221120000      3.1823230000      0.7557610000
$end
$rem
MAX_SCF_CYCLES=200
BASIS  =  6-311++G(d,p)
GUI  =  2
JOB_TYPE  =  SP
METHOD  =  B3LYP
SOLVENT_METHOD = PCM
$end
$pcm
theory = CPCM
$end
$solvent
dielectric 37.219
opticaldielectric 1.43
$end

--------------------------------------------------------------

             Standard Nuclear Orientation (Angstroms)
    I     Atom           X                Y                Z
 ----------------------------------------------------------------
    1      C      -3.3762860000     3.4911160000     0.0273710000
    2      C      -4.5976280000     2.8465930000     0.0732150000
    3      C      -4.6104800000     1.4288190000     0.1201550000
    4      C      -2.1511350000     2.7848000000     0.0259220000
    5      C      -2.1781240000     1.3621320000     0.0733770000
    6      C      -3.4316580000     0.7136490000     0.1199590000
    7      C      -0.8956010000     3.5349240000    -0.0241400000
    8      C       0.3300020000     2.7352620000    -0.0224650000
    9      C       0.3019770000     1.3126170000     0.0250400000
   10      C      -0.9530770000     0.5605930000     0.0751520000
   11      C       1.5815030000     3.3920820000    -0.0693350000
   12      C       2.7769970000     2.6992600000    -0.0706240000
   13      C       2.7350310000     1.2820700000    -0.0230340000
   14      C       1.5294760000     0.6145570000     0.0233100000
   15      O      -0.8713280000     4.7925410000    -0.0661190000
   16      O      -0.9773040000    -0.6948390000     0.1170610000
   17      C      -5.8978690000     3.6157320000     0.0741210000
   18      H      -5.5623710000     0.9041820000     0.1565700000
   19      H      -3.4299360000    -0.3699500000     0.1555710000
   20      H       1.4858430000    -0.4681300000     0.0598980000
   21      C       4.1059490000     3.4158710000    -0.1211160000
   22      H       3.6659020000     0.7197990000    -0.0232840000
   23      H      -3.3180970000     4.5739230000    -0.0094390000
   24      H       1.5652330000     4.4763770000    -0.1047180000
   25      H      -5.7182260000     4.6928450000     0.0349170000
   26      H      -6.4879280000     3.4066150000     0.9747980000
   27      H      -6.5236100000     3.3484490000    -0.7861850000
   28      H       3.9680600000     4.4993430000    -0.1536830000
   29      H       4.6862330000     3.1248240000    -1.0052450000
   30      H       4.7221120000     3.1823230000     0.7557610000
 ----------------------------------------------------------------

    8    -767.7545221784      5.20e-06  Convergence criterion met
 Total energy in the final basis set =     -767.7545221784

                    Orbital Energies (a.u.)
 --------------------------------------------------------------

 Alpha MOs
 -- Occupied --
-19.0760 -19.0753 -10.2245 -10.2220 -10.1792 -10.1792 -10.1705 -10.1705
-10.1689 -10.1689 -10.1681 -10.1681 -10.1671 -10.1671 -10.1635 -10.1635
-10.1599 -10.1599  -1.0033  -1.0003  -0.8612  -0.8520  -0.7946  -0.7655
 -0.7536  -0.7427  -0.7043  -0.6795  -0.6575  -0.6170  -0.6017  -0.5818
 -0.5540  -0.5190  -0.5142  -0.4736  -0.4557  -0.4541  -0.4425  -0.4258
 -0.4229  -0.4202  -0.4153  -0.4128  -0.4085  -0.4074  -0.4029  -0.3804
 -0.3747  -0.3743  -0.3641  -0.3522  -0.3405  -0.3382  -0.3288  -0.3282
 -0.2620  -0.2554  -0.2512  -0.2472  -0.2378  -0.2372  -0.1404

 Beta MOs
 -- Occupied --
-19.0711 -19.0699 -10.2227 -10.2199 -10.1788 -10.1788 -10.1697 -10.1697
-10.1684 -10.1684 -10.1679 -10.1679 -10.1666 -10.1666 -10.1633 -10.1633
-10.1599 -10.1599  -0.9944  -0.9907  -0.8588  -0.8509  -0.7912  -0.7644
 -0.7509  -0.7413  -0.7017  -0.6785  -0.6512  -0.6154  -0.5994  -0.5812
 -0.5513  -0.5165  -0.5128  -0.4712  -0.4547  -0.4525  -0.4412  -0.4222
 -0.4194  -0.4189  -0.4142  -0.4075  -0.4074  -0.4008  -0.3993  -0.3740
 -0.3739  -0.3632  -0.3571  -0.3495  -0.3394  -0.3377  -0.3269  -0.3169
 -0.2514  -0.2449  -0.2425  -0.2401  -0.2330  -0.2325

          Ground-State Mulliken Net Atomic Charges

     Atom                 Charge (a.u.)    Spin (a.u.)
  --------------------------------------------------------
      1 C                    -0.218520       0.030546
      2 C                     0.329537       0.029709
      3 C                    -0.570389       0.041393
      4 C                     0.180428       0.044995
      5 C                     0.141958       0.026882
      6 C                     0.181667       0.026571
      7 C                    -0.440915       0.127256
      8 C                     0.182562       0.045032
      9 C                     0.143006       0.026828
     10 C                    -0.926710       0.091869
     11 C                    -0.219619       0.030582
     12 C                     0.328067       0.029692
     13 C                    -0.567793       0.041428
     14 C                     0.181550       0.026553
     15 O                    -0.485266       0.203833
     16 O                    -0.480327       0.185815
     17 C                    -0.390840      -0.002244
     18 H                     0.194424      -0.003257
     19 H                     0.172095      -0.001105
     20 H                     0.171868      -0.001107
     21 C                    -0.391667      -0.002237
     22 H                     0.194526      -0.003261
     23 H                     0.134969      -0.002429
     24 H                     0.135212      -0.002427
     25 H                     0.172258       0.000079
     26 H                     0.169006       0.002234
     27 H                     0.168926       0.002231
     28 H                     0.172127       0.000078
     29 H                     0.168993       0.002234
     30 H                     0.168863       0.002228
  --------------------------------------------------------
  Sum of atomic charges =    -1.000000

                    Cartesian Multipole Moments
 -----------------------------------------------------------------
    Charge (ESU x 10^10)
                -4.8032
    Dipole Moment (Debye)
         X       4.4444      Y      -9.5664      Z      -0.1310
       Tot      10.5492
    Quadrupole Moments (Debye-Ang)
        XX     -98.1447     XY       7.8888     YY    -162.2675
        XZ      -0.2213     YZ       0.7689     ZZ    -112.4167

 Total job time:  113.77s(wall), 424.59s(cpu)
        *  Thank you very much for using Q-Chem.  Have a nice day.  *
