 Gaussian 16, Revision A.03,
 Gaussian 16:  ES64L-G16RevA.03 25-Dec-2016

 ----------------------------------------------------------------------
 #P UB3LYP/6-311++G(d,p) nosym opt freq SCRF=(PCM,Solvent=n,n-DiMethylF
 ormamide)
 ----------------------------------------------------------------------

 -------
 Reduced
 -------
 Symbolic Z-matrix:
 Charge = -2 Multiplicity = 1

 SCF Done:  E(UB3LYP) =  -5721.92202514     A.U. after   18 cycles
 SCF Done:  E(UB3LYP) =  -5721.92510675     A.U. after   15 cycles
 SCF Done:  E(UB3LYP) =  -5721.92636939     A.U. after   15 cycles
 SCF Done:  E(UB3LYP) =  -5721.92657178     A.U. after   14 cycles
 SCF Done:  E(UB3LYP) =  -5721.92663832     A.U. after   14 cycles
 SCF Done:  E(UB3LYP) =  -5721.92666252     A.U. after   11 cycles
 SCF Done:  E(UB3LYP) =  -5721.92666438     A.U. after   11 cycles
 SCF Done:  E(UB3LYP) =  -5721.92666566     A.U. after   10 cycles
 SCF Done:  E(UB3LYP) =  -5721.92666577     A.U. after    8 cycles
 SCF Done:  E(UB3LYP) =  -5721.92666584     A.U. after    8 cycles
 SCF Done:  E(UB3LYP) =  -5721.92666587     A.U. after    7 cycles
 Optimization completed.
    -- Stationary point found.
 Normal termination of Gaussian 16 at Sun Feb 11 02:35:25 2024.

 ----------------------------------------------------------------------
 #P Geom=AllCheck Guess=TCheck SCRF=Check GenChk UB3LYP/6-311++G(d,p) F
 req
 ----------------------------------------------------------------------

 Structure from the checkpoint file:  "234-an.chk"
 -------
 Reduced
 -------
 Charge = -2 Multiplicity = 1

                          Input orientation:
 ---------------------------------------------------------------------
 Center     Atomic      Atomic             Coordinates (Angstroms)
 Number     Number       Type             X           Y           Z
 ---------------------------------------------------------------------
      1          6           0        5.723347   -5.233649    1.119363
      2          6           0        6.655391   -5.108308    0.115550
      3          6           0        6.528407   -4.065572   -0.839146
      4          6           0        4.622927   -4.350170    1.241375
      5          6           0        4.495347   -3.289483    0.267518
      6          6           0        5.470912   -3.189584   -0.750916
      7          6           0        3.673077   -4.532320    2.319679
      8          6           0        2.607584   -3.597842    2.338199
      9          6           0        2.498820   -2.565727    1.377487
     10          6           0        3.399818   -2.341947    0.316790
     11          8           0        3.801153   -5.493253    3.198909
     12          8           0        3.276596   -1.372982   -0.552904
     13          1           0        5.811276   -6.026462    1.851545
     14          1           0        5.359837   -2.390004   -1.472722
     15         35           0        8.111516   -6.376160    0.052616
     16         35           0        7.800258   -3.828810   -2.272735
     17          6           0        1.563328   -3.712922    3.421943
     18          1           0        1.654030   -1.881996    1.455856
     19          1           0        1.994639   -3.572982    4.421170
     20          1           0        1.098753   -4.705982    3.431435
     21          1           0        0.773151   -2.968375    3.290830
 ---------------------------------------------------------------------

 SCF Done:  E(UB3LYP) =  -5721.92666587     A.U. after    1 cycles

 Alpha  occ. eigenvalues -- -482.82513-482.82511 -62.47796 -62.47794 -56.29821
 Alpha  occ. eigenvalues --  -56.29819 -56.29451 -56.29448 -56.29437 -56.29435
 Alpha  occ. eigenvalues --  -19.01733 -19.01612 -10.21934 -10.21838 -10.17342
 Alpha  occ. eigenvalues --  -10.16983 -10.16523 -10.16451 -10.14811 -10.14747
 Alpha  occ. eigenvalues --  -10.14130 -10.13383 -10.12258  -8.68763  -8.68761
 Alpha  occ. eigenvalues --   -6.51866  -6.51864  -6.50636  -6.50632  -6.50604
 Alpha  occ. eigenvalues --   -6.50601  -2.62966  -2.62963  -2.62616  -2.62612
 Alpha  occ. eigenvalues --   -2.62593  -2.62591  -2.61615  -2.61614  -2.61612
 Alpha  occ. eigenvalues --   -2.61611  -0.92761  -0.92295  -0.86533  -0.79912
 Alpha  occ. eigenvalues --   -0.79655  -0.76670  -0.72601  -0.71494  -0.66930
 Alpha  occ. eigenvalues --   -0.63393  -0.59616  -0.56896  -0.52992  -0.47917
 Alpha  occ. eigenvalues --   -0.46204  -0.44849  -0.41879  -0.41785  -0.39959
 Alpha  occ. eigenvalues --   -0.39371  -0.38618  -0.37830  -0.35754  -0.35530
 Alpha  occ. eigenvalues --   -0.34971  -0.34411  -0.32330  -0.31939  -0.31103
 Alpha  occ. eigenvalues --   -0.30629  -0.30353  -0.28494  -0.27585  -0.23534
 Alpha  occ. eigenvalues --   -0.22320  -0.21279  -0.19904  -0.19508  -0.11717
 Alpha virt. eigenvalues --   -0.02878  -0.02016  -0.00114   0.00025   0.00882
 Alpha virt. eigenvalues --    0.01077   0.01855   0.03354   0.03526   0.04051
 Alpha virt. eigenvalues --    0.04588   0.04823   0.05571   0.05641   0.06185

  Beta  occ. eigenvalues -- -482.82513-482.82511 -62.47796 -62.47794 -56.29821
  Beta  occ. eigenvalues --  -56.29819 -56.29451 -56.29448 -56.29437 -56.29435
  Beta  occ. eigenvalues --  -19.01733 -19.01612 -10.21934 -10.21838 -10.17342
  Beta  occ. eigenvalues --  -10.16983 -10.16523 -10.16451 -10.14811 -10.14747
  Beta  occ. eigenvalues --  -10.14130 -10.13383 -10.12258  -8.68763  -8.68761
  Beta  occ. eigenvalues --   -6.51866  -6.51864  -6.50636  -6.50632  -6.50604
  Beta  occ. eigenvalues --   -6.50601  -2.62966  -2.62963  -2.62616  -2.62612
  Beta  occ. eigenvalues --   -2.62593  -2.62591  -2.61615  -2.61614  -2.61612
  Beta  occ. eigenvalues --   -2.61611  -0.92761  -0.92295  -0.86533  -0.79912
  Beta  occ. eigenvalues --   -0.79655  -0.76670  -0.72601  -0.71494  -0.66930
  Beta  occ. eigenvalues --   -0.63393  -0.59616  -0.56896  -0.52992  -0.47917
  Beta  occ. eigenvalues --   -0.46204  -0.44849  -0.41879  -0.41785  -0.39959
  Beta  occ. eigenvalues --   -0.39371  -0.38618  -0.37830  -0.35754  -0.35530
  Beta  occ. eigenvalues --   -0.34971  -0.34411  -0.32330  -0.31939  -0.31103
  Beta  occ. eigenvalues --   -0.30629  -0.30353  -0.28494  -0.27585  -0.23534
  Beta  occ. eigenvalues --   -0.22320  -0.21279  -0.19904  -0.19508  -0.11717
  Beta virt. eigenvalues --   -0.02878  -0.02016  -0.00114   0.00025   0.00882
  Beta virt. eigenvalues --    0.01077   0.01855   0.03354   0.03526   0.04051
  Beta virt. eigenvalues --    0.04588   0.04823   0.05571   0.05641   0.06185

 Mulliken charges and spin densities:
               1          2
     1  C   -0.117543   0.000000
     2  C   -0.043443  -0.000000
     3  C   -0.087554  -0.000000
     4  C    0.218895   0.000000
     5  C    0.432975  -0.000000
     6  C   -0.110987  -0.000000
     7  C   -0.622889  -0.000000
     8  C    0.771356   0.000000
     9  C   -0.415850   0.000000
    10  C   -0.811036  -0.000000
    11  O   -0.698221   0.000000
    12  O   -0.714341   0.000000
    13  H    0.205888   0.000000
    14  H    0.201643  -0.000000
    15  Br  -0.195333   0.000000
    16  Br  -0.200137   0.000000
    17  C   -0.342103   0.000000
    18  H    0.101973  -0.000000
    19  H    0.144615  -0.000000
    20  H    0.144489  -0.000000
    21  H    0.137600   0.000000
 Sum of Mulliken charges =  -2.00000   0.00000

 Dipole moment (field-independent basis, Debye):
    X=            -40.5702    Y=             35.2880    Z=             -8.8916  Tot=             54.5000
 Quadrupole moment (field-independent basis, Debye-Ang):
   XX=           -318.2668   YY=           -288.0817   ZZ=           -164.7028
   XY=            162.3609   XZ=            -28.3118   YZ=             57.2317

  Exact polarizability: 376.078 -88.258 280.395-113.659 -43.855 309.366
 Approx polarizability: 399.799 -93.683 315.497-113.211 -56.311 339.820

                      1                      2                      3
                      A                      A                      A
 Frequencies --     36.9367                70.4029               112.8697
 Red. masses --     14.3322                 4.4894                 1.4749
 Frc consts  --      0.0115                 0.0131                 0.0111
 IR Inten    --      0.2414                 8.7167                 3.3800

                      4                      5                      6
                      A                      A                      A
 Frequencies --    122.8499               132.1602               140.2313
 Red. masses --     49.0798                 9.0433                 3.5667
 Frc consts  --      0.4364                 0.0931                 0.0413
 IR Inten    --      2.7606                 3.6639                14.8833

                      7                      8                      9
                      A                      A                      A
 Frequencies --    188.1622               213.9255               217.1871
 Red. masses --      4.3481                 5.7364                16.2436
 Frc consts  --      0.0907                 0.1547                 0.4514
 IR Inten    --      0.5978                 0.1563                 9.2924

                     10                     11                     12
                      A                      A                      A
 Frequencies --    232.5857               298.3467               304.8529
 Red. masses --     16.7554                 2.9128                 6.7600
 Frc consts  --      0.5340                 0.1528                 0.3701
 IR Inten    --      1.8768                 3.8749                 5.1436

                     13                     14                     15
                      A                      A                      A
 Frequencies --    380.5568               385.3707               396.1390
 Red. masses --      8.3907                 6.5986                 7.4525
 Frc consts  --      0.7160                 0.5774                 0.6890
 IR Inten    --     11.6923                 3.0341                13.5742

                     16                     17                     18
                      A                      A                      A
 Frequencies --    437.3545               467.9952               507.3929
 Red. masses --      3.3811                 9.0848                 7.6509
 Frc consts  --      0.3810                 1.1723                 1.1605
 IR Inten    --      8.2410                 9.9746                11.6000

                     19                     20                     21
                      A                      A                      A
 Frequencies --    521.0405               580.5432               603.9173
 Red. masses --      5.8388                 7.0008                 4.4111
 Frc consts  --      0.9339                 1.3902                 0.9479
 IR Inten    --      0.4456                70.2292                 0.7730

                     22                     23                     24
                      A                      A                      A
 Frequencies --    653.4145               672.6347               690.6240
 Red. masses --      4.9443                 6.0570                 4.2094
 Frc consts  --      1.2438                 1.6146                 1.1829
 IR Inten    --     23.3340                72.8430                 3.8376

                     25                     26                     27
                      A                      A                      A
 Frequencies --    741.1166               770.6305               842.3143
 Red. masses --      6.5091                 4.6507                 6.0379
 Frc consts  --      2.1064                 1.6273                 2.5240
 IR Inten    --    151.5644                 4.6015                44.4828

                     28                     29                     30
                      A                      A                      A
 Frequencies --    849.9654               897.0116               922.2979
 Red. masses --      1.5390                 1.3887                 1.4206
 Frc consts  --      0.6551                 0.6583                 0.7120
 IR Inten    --     50.7385                 0.3322                38.3656

                     31                     32                     33
                      A                      A                      A
 Frequencies --    952.1038              1005.8220              1038.5598
 Red. masses --      3.9042                 1.8428                 1.4840
 Frc consts  --      2.0852                 1.0984                 0.9431
 IR Inten    --    215.6320               113.0928                 5.8539

                     34                     35                     36
                      A                      A                      A
 Frequencies --   1069.6784              1109.9678              1150.1765
 Red. masses --      1.7490                 5.7119                 6.2450
 Frc consts  --      1.1791                 4.1462                 4.8676
 IR Inten    --     31.9948               190.1613                62.2152

                     37                     38                     39
                      A                      A                      A
 Frequencies --   1194.0218              1201.3225              1240.6693
 Red. masses --      1.8163                 2.6508                 1.8757
 Frc consts  --      1.5256                 2.2540                 1.7011
 IR Inten    --    450.5152               148.7862               319.0804

                     40                     41                     42
                      A                      A                      A
 Frequencies --   1315.2939              1340.8362              1355.2943
 Red. masses --      7.1754                 4.9041                 3.8696
 Frc consts  --      7.3138                 5.1947                 4.1878
 IR Inten    --    285.1869               351.4120              1516.6095

                     43                     44                     45
                      A                      A                      A
 Frequencies --   1383.7092              1399.2765              1417.1344
 Red. masses --      6.8785                 1.4710                 3.6724
 Frc consts  --      7.7595                 1.6969                 4.3453
 IR Inten    --     13.2052               214.5545               103.6887

                     46                     47                     48
                      A                      A                      A
 Frequencies --   1454.6864              1460.2113              1486.0598
 Red. masses --      2.1030                 1.3409                 1.3135
 Frc consts  --      2.6220                 1.6846                 1.7090
 IR Inten    --     53.5257                27.5047                26.5735

                     49                     50                     51
                      A                      A                      A
 Frequencies --   1519.2014              1548.4248              1582.8774
 Red. masses --      5.7707                 7.1253                 7.0285
 Frc consts  --      7.8471                10.0654                10.3755
 IR Inten    --    404.6420                 8.3475                42.2702

                     52                     53                     54
                      A                      A                      A
 Frequencies --   2990.7494              3024.0224              3072.1868
 Red. masses --      1.0391                 1.0973                 1.0988
 Frc consts  --      5.4758                 5.9121                 6.1105
 IR Inten    --    189.2798                78.2153                43.7338

                     55                     56                     57
                      A                      A                      A
 Frequencies --   3108.9977              3184.2122              3185.8074
 Red. masses --      1.0866                 1.0895                 1.0899
 Frc consts  --      6.1884                 6.5086                 6.5174
 IR Inten    --    154.1623                 0.0711                25.7684

 - Thermochemistry -
 -------------------
 Temperature   298.150 Kelvin.  Pressure   1.00000 Atm.
 Atom     1 has atomic number  6 and mass  12.00000

 Molecular mass:   327.87345 amu.
 Principal axes and moments of inertia in atomic units:
                           1         2         3
     Eigenvalues --  3209.909248436.49702**********
           X            0.82267  -0.15747   0.54627
           Y           -0.25344   0.75853   0.60033
           Z           -0.50889  -0.63233   0.58411
 This molecule is an asymmetric top.
 Rotational symmetry number  1.
 Warning -- assumption of classical behavior for rotation
           may cause significant error
 Rotational temperatures (Kelvin)      0.02698     0.01027     0.00744
 Rotational constants (GHZ):           0.56224     0.21392     0.15511
 Zero-point vibrational energy     353987.8 (Joules/Mol)
                                   84.60511 (Kcal/Mol)
 Warning -- explicit consideration of  21 degrees of freedom as
           vibrations may cause significant error
 Vibrational temperatures:     53.14   101.29   162.39   176.75   190.15
          (Kelvin)            201.76   270.72   307.79   312.48   334.64
                              429.25   438.62   547.54   554.46   569.96
                              629.26   673.34   730.03   749.66   835.27
                              868.90   940.12   967.77   993.65  1066.30
                             1108.77  1211.90  1222.91  1290.60  1326.98
                             1369.87  1447.15  1494.26  1539.03  1597.00
                             1654.85  1717.93  1728.44  1785.05  1892.41
                             1929.16  1949.97  1990.85  2013.25  2038.94
                             2092.97  2100.92  2138.11  2185.79  2227.84
                             2277.41  4303.02  4350.89  4420.19  4473.15
                             4581.37  4583.67

 Zero-point correction=                           0.134827 (Hartree/Particle)
 Thermal correction to Energy=                    0.148406
 Thermal correction to Enthalpy=                  0.149350
 Thermal correction to Gibbs Free Energy=         0.092561
 Sum of electronic and zero-point Energies=          -5721.791839
 Sum of electronic and thermal Energies=             -5721.778260
 Sum of electronic and thermal Enthalpies=           -5721.777316
 Sum of electronic and thermal Free Energies=        -5721.834105

                     E (Thermal)             CV                S
                      KCal/Mol        Cal/Mol-Kelvin    Cal/Mol-Kelvin
 Total                   93.126             49.911            119.524
 Electronic               0.000              0.000              0.000
 Translational            0.889              2.981             43.258
 Rotational               0.889              2.981             34.110
 Vibrational             91.349             43.950             42.157
 Vibration     1          0.594              1.982              5.417
 Vibration     2          0.598              1.968              4.142
 Vibration     3          0.607              1.939              3.219
 Vibration     4          0.610              1.930              3.055
 Vibration     5          0.612              1.921              2.914
 Vibration     6          0.615              1.913              2.801
 Vibration     7          0.633              1.856              2.246
 Vibration     8          0.644              1.820              2.010
 Vibration     9          0.646              1.815              1.982
 Vibration    10          0.653              1.791              1.859
 Vibration    11          0.691              1.677              1.426
 Vibration    12          0.696              1.664              1.390
 Vibration    13          0.750              1.512              1.037
 Vibration    14          0.754              1.501              1.018
 Vibration    15          0.763              1.478              0.977
 Vibration    16          0.798              1.389              0.835
 Vibration    17          0.825              1.321              0.743
 Vibration    18          0.863              1.234              0.640
 Vibration    19          0.876              1.203              0.608
 Vibration    20          0.937              1.073              0.484
 Vibration    21          0.962              1.023              0.443

                           ! Non-Optimized Parameters !
 Normal termination of Gaussian 16 at Sun Feb 11 03:20:54 2024.
