 Gaussian 16, Revision A.03,
 Gaussian 16:  ES64L-G16RevA.03 25-Dec-2016

 ----------------------------------------------------------------------
 #P UB3LYP/6-311++G(d,p) nosym opt freq SCRF=(PCM,Solvent=n,n-DiMethylF
 ormamide)
 ----------------------------------------------------------------------

 -------
 Reduced
 -------
 Symbolic Z-matrix:
 Charge = -2 Multiplicity = 1

 SCF Done:  E(UB3LYP) =  -806.150173516     A.U. after   18 cycles
 SCF Done:  E(UB3LYP) =  -806.152905014     A.U. after   14 cycles
 SCF Done:  E(UB3LYP) =  -806.153228557     A.U. after   14 cycles
 SCF Done:  E(UB3LYP) =  -806.153331903     A.U. after   14 cycles
 SCF Done:  E(UB3LYP) =  -806.153351717     A.U. after   12 cycles
 SCF Done:  E(UB3LYP) =  -806.153356346     A.U. after   11 cycles
 SCF Done:  E(UB3LYP) =  -806.153357631     A.U. after   11 cycles
 SCF Done:  E(UB3LYP) =  -806.153358103     A.U. after   11 cycles
 SCF Done:  E(UB3LYP) =  -806.153358230     A.U. after   10 cycles
 Optimization completed.
    -- Stationary point found.
 Normal termination of Gaussian 16 at Sun Feb 11 03:30:59 2024.

 ----------------------------------------------------------------------
 #P Geom=AllCheck Guess=TCheck SCRF=Check GenChk UB3LYP/6-311++G(d,p) F
 req
 ----------------------------------------------------------------------

 Structure from the checkpoint file:  "290-an.chk"
 -------
 Reduced
 -------
 Charge = -2 Multiplicity = 1

                          Input orientation:
 ---------------------------------------------------------------------
 Center     Atomic      Atomic             Coordinates (Angstroms)
 Number     Number       Type             X           Y           Z
 ---------------------------------------------------------------------
      1          8           0       -0.343598    2.234110    0.358995
      2          6           0       -0.530363    0.957850    0.133245
      3          6           0        0.526254    0.062103   -0.172330
      4          6           0        0.289213   -1.320830   -0.398902
      5          8           0        1.378533   -2.155454   -0.681578
      6          6           0       -0.978214   -1.936774   -0.388587
      7          8           0       -1.167830   -3.218081   -0.615077
      8          6           0       -2.068081   -1.033828   -0.100966
      9          6           0       -3.402792   -1.524289   -0.061039
     10          6           0       -4.479446   -0.708113    0.218536
     11          6           0       -4.271061    0.670050    0.476952
     12          6           0       -2.987382    1.179601    0.445219
     13          6           0       -1.857197    0.371892    0.162473
     14          6           0        1.934584    0.623071   -0.293016
     15          1           0       -3.551197   -2.579519   -0.262240
     16          1           0       -5.484839   -1.118855    0.239510
     17          1           0       -5.114480    1.317596    0.696960
     18          1           0       -2.808790    2.231964    0.638517
     19          6           0        2.915627    0.079357    0.721398
     20          6           0        4.166099   -0.376122    0.531174
     21          6           0        4.873365   -0.424613   -0.801430
     22          6           0        4.994931   -0.871020    1.692808
     23          1           0        2.176413   -1.738731   -0.327674
     24          1           0        1.833361    1.702859   -0.142239
     25          1           0        2.319432    0.481492   -1.309942
     26          1           0        2.536500    0.068344    1.743422
     27          1           0        4.243396   -0.118966   -1.636500
     28          1           0        5.245470   -1.435578   -1.004411
     29          1           0        5.751956    0.231435   -0.787352
     30          1           0        4.446924   -0.815471    2.635704
     31          1           0        5.914121   -0.281576    1.795328
     32          1           0        5.308081   -1.910360    1.537417
 ---------------------------------------------------------------------

 SCF Done:  E(UB3LYP) =  -806.153358230     A.U. after    1 cycles

 Alpha  occ. eigenvalues --  -19.11411 -19.01316 -19.00849 -10.17660 -10.17385
 Alpha  occ. eigenvalues --  -10.16876 -10.16109 -10.15876 -10.15774 -10.15739
 Alpha  occ. eigenvalues --  -10.15071 -10.14692 -10.14475 -10.14362 -10.14230
 Alpha  occ. eigenvalues --  -10.13554 -10.13376 -10.12821  -1.01690  -0.92248
 Alpha  occ. eigenvalues --   -0.91158  -0.82145  -0.81144  -0.76928  -0.73448
 Alpha  occ. eigenvalues --   -0.71908  -0.68948  -0.68895  -0.65032  -0.62170
 Alpha  occ. eigenvalues --   -0.58250  -0.56684  -0.52339  -0.51126  -0.50905
 Alpha  occ. eigenvalues --   -0.48006  -0.46145  -0.44433  -0.43019  -0.42668
 Alpha  occ. eigenvalues --   -0.42018  -0.40018  -0.39331  -0.38665  -0.38291
 Alpha  occ. eigenvalues --   -0.38112  -0.37023  -0.36591  -0.36361  -0.35658
 Alpha  occ. eigenvalues --   -0.34559  -0.34426  -0.32943  -0.32570  -0.31494
 Alpha  occ. eigenvalues --   -0.30753  -0.29835  -0.29062  -0.23664  -0.22550
 Alpha  occ. eigenvalues --   -0.21726  -0.19492  -0.19297  -0.18828  -0.10930
 Alpha virt. eigenvalues --   -0.00542  -0.00271   0.00428   0.01204   0.01641
 Alpha virt. eigenvalues --    0.01771   0.01879   0.02124   0.03218   0.03800
 Alpha virt. eigenvalues --    0.04057   0.04356   0.04798   0.05444   0.05849

  Beta  occ. eigenvalues --  -19.11411 -19.01316 -19.00849 -10.17660 -10.17385
  Beta  occ. eigenvalues --  -10.16876 -10.16109 -10.15876 -10.15774 -10.15739
  Beta  occ. eigenvalues --  -10.15071 -10.14692 -10.14475 -10.14362 -10.14230
  Beta  occ. eigenvalues --  -10.13554 -10.13376 -10.12821  -1.01690  -0.92248
  Beta  occ. eigenvalues --   -0.91158  -0.82145  -0.81144  -0.76928  -0.73448
  Beta  occ. eigenvalues --   -0.71908  -0.68948  -0.68895  -0.65032  -0.62170
  Beta  occ. eigenvalues --   -0.58250  -0.56684  -0.52339  -0.51126  -0.50905
  Beta  occ. eigenvalues --   -0.48006  -0.46145  -0.44433  -0.43019  -0.42668
  Beta  occ. eigenvalues --   -0.42018  -0.40018  -0.39331  -0.38665  -0.38291
  Beta  occ. eigenvalues --   -0.38112  -0.37023  -0.36591  -0.36361  -0.35658
  Beta  occ. eigenvalues --   -0.34559  -0.34426  -0.32943  -0.32570  -0.31494
  Beta  occ. eigenvalues --   -0.30753  -0.29835  -0.29062  -0.23664  -0.22550
  Beta  occ. eigenvalues --   -0.21726  -0.19492  -0.19297  -0.18828  -0.10930
  Beta virt. eigenvalues --   -0.00542  -0.00271   0.00428   0.01204   0.01641
  Beta virt. eigenvalues --    0.01771   0.01879   0.02124   0.03218   0.03800
  Beta virt. eigenvalues --    0.04057   0.04356   0.04798   0.05444   0.05849

 Mulliken charges and spin densities:
               1          2
     1  O   -0.688779  -0.000000
     2  C   -1.000373   0.000000
     3  C    1.321769  -0.000000
     4  C   -0.518803  -0.000000
     5  O   -0.365906  -0.000000
     6  C   -0.516726  -0.000000
     7  O   -0.752662  -0.000000
     8  C    0.555685  -0.000000
     9  C   -0.104290  -0.000000
    10  C   -0.439389  -0.000000
    11  C   -0.500288   0.000000
    12  C   -0.014214  -0.000000
    13  C   -0.142573   0.000000
    14  C   -0.040152  -0.000000
    15  H    0.142134   0.000000
    16  H    0.154845  -0.000000
    17  H    0.152107  -0.000000
    18  H    0.148171  -0.000000
    19  C   -0.634572   0.000000
    20  C    0.639277  -0.000000
    21  C   -0.560250  -0.000000
    22  C   -0.598016   0.000000
    23  H    0.343495   0.000000
    24  H    0.196937  -0.000000
    25  H    0.145577   0.000000
    26  H    0.172897   0.000000
    27  H    0.156288  -0.000000
    28  H    0.147425   0.000000
    29  H    0.151432  -0.000000
    30  H    0.156308  -0.000000
    31  H    0.143709   0.000000
    32  H    0.148937  -0.000000
 Sum of Mulliken charges =  -2.00000   0.00000

 Dipole moment (field-independent basis, Debye):
    X=             10.6727    Y=              6.9616    Z=              1.6924  Tot=             12.8544
 Quadrupole moment (field-independent basis, Debye-Ang):
   XX=           -129.6387   YY=           -183.0211   ZZ=           -120.3182
   XY=            -11.0513   XZ=             -0.9302   YZ=            -13.3107

  Exact polarizability: 463.544 -20.964 333.024 -21.057  27.978 199.559
 Approx polarizability: 488.333 -25.265 383.346 -29.423  36.564 216.745

                      1                      2                      3
                      A                      A                      A
 Frequencies --     36.9157                42.6001                54.7984
 Red. masses --      3.7355                 3.6157                 3.6966
 Frc consts  --      0.0030                 0.0039                 0.0065
 IR Inten    --      4.8895                 2.2202                 1.9838

                      4                      5                      6
                      A                      A                      A
 Frequencies --     93.7333               125.7431               141.4393
 Red. masses --      7.8575                 3.0670                 1.1435
 Frc consts  --      0.0407                 0.0286                 0.0135
 IR Inten    --     23.5598                 2.2157                 0.2172

                      7                      8                      9
                      A                      A                      A
 Frequencies --    160.5632               184.8670               191.1440
 Red. masses --      3.7186                 1.6387                 5.5836
 Frc consts  --      0.0565                 0.0330                 0.1202
 IR Inten    --      0.7701                 2.3517                 7.9296

                     10                     11                     12
                      A                      A                      A
 Frequencies --    198.4766               262.3291               274.1295
 Red. masses --      2.8240                 3.6677                 3.3080
 Frc consts  --      0.0655                 0.1487                 0.1465
 IR Inten    --      6.3773                16.2139                 8.6650

                     13                     14                     15
                      A                      A                      A
 Frequencies --    306.2735               318.4769               340.8644
 Red. masses --      2.1988                 5.2096                 5.6919
 Frc consts  --      0.1215                 0.3113                 0.3896
 IR Inten    --      5.3025                 4.5977                16.2774

                     16                     17                     18
                      A                      A                      A
 Frequencies --    369.9411               389.8072               408.3372
 Red. masses --      8.0341                 4.8563                 3.0036
 Frc consts  --      0.6478                 0.4348                 0.2951
 IR Inten    --     20.5329                 1.4408                 1.5239

                     19                     20                     21
                      A                      A                      A
 Frequencies --    427.8637               441.0174               448.4132
 Red. masses --      2.6887                 2.9059                 1.9648
 Frc consts  --      0.2900                 0.3330                 0.2328
 IR Inten    --     45.0000                17.4374                88.9717

                     22                     23                     24
                      A                      A                      A
 Frequencies --    460.5562               494.9915               513.1654
 Red. masses --      2.4305                 5.5357                 3.2610
 Frc consts  --      0.3037                 0.7991                 0.5060
 IR Inten    --     12.0134                 8.0306                15.4704

                     25                     26                     27
                      A                      A                      A
 Frequencies --    534.2924               564.1208               633.4685
 Red. masses --      5.2158                 4.5285                 5.9292
 Frc consts  --      0.8773                 0.8491                 1.4018
 IR Inten    --      2.8957                 7.2187                81.7061

                     28                     29                     30
                      A                      A                      A
 Frequencies --    666.6126               686.6590               701.7635
 Red. masses --      5.2622                 4.3992                 5.1920
 Frc consts  --      1.3777                 1.2221                 1.5065
 IR Inten    --      5.4243                24.8989                19.3724

                     31                     32                     33
                      A                      A                      A
 Frequencies --    705.3460               769.2474               778.1360
 Red. masses --      3.1583                 1.9507                 2.6321
 Frc consts  --      0.9258                 0.6801                 0.9390
 IR Inten    --     66.9835                59.4262                 0.2369

                     34                     35                     36
                      A                      A                      A
 Frequencies --    786.5963               850.3318               854.6328
 Red. masses --      3.5329                 3.2021                 1.5926
 Frc consts  --      1.2879                 1.3641                 0.6854
 IR Inten    --      2.0691                 0.8092                 0.7611

                     37                     38                     39
                      A                      A                      A
 Frequencies --    864.6237               914.1954               958.8820
 Red. masses --      1.7862                 4.6516                 1.4533
 Frc consts  --      0.7867                 2.2905                 0.7873
 IR Inten    --     80.7842                91.8866                 6.3872

                     40                     41                     42
                      A                      A                      A
 Frequencies --    961.0872               971.0606               978.6846
 Red. masses --      2.5727                 1.3587                 1.2360
 Frc consts  --      1.4001                 0.7549                 0.6975
 IR Inten    --     23.8355                 5.2446                 0.0938

                     43                     44                     45
                      A                      A                      A
 Frequencies --   1012.2395              1014.6266              1021.9675
 Red. masses --      2.4140                 1.5581                 2.0220
 Frc consts  --      1.4573                 0.9450                 1.2442
 IR Inten    --    145.9346                52.5558                25.9873

                     46                     47                     48
                      A                      A                      A
 Frequencies --   1044.0283              1096.7628              1097.5941
 Red. masses --      2.8772                 2.3641                 1.6754
 Frc consts  --      1.8478                 1.6755                 1.1892
 IR Inten    --    235.3261                85.9690                 4.4790

                     49                     50                     51
                      A                      A                      A
 Frequencies --   1114.8844              1122.4177              1146.2270
 Red. masses --      1.9599                 1.7039                 2.6718
 Frc consts  --      1.4353                 1.2647                 2.0682
 IR Inten    --     45.3190                50.2275               133.4075

                     52                     53                     54
                      A                      A                      A
 Frequencies --   1174.2594              1186.3030              1207.5055
 Red. masses --      1.7686                 1.6749                 2.1201
 Frc consts  --      1.4368                 1.3888                 1.8213
 IR Inten    --    113.2735               108.8054               466.1214

                     55                     56                     57
                      A                      A                      A
 Frequencies --   1241.2245              1267.8298              1297.3493
 Red. masses --      1.7322                 1.8829                 1.9081
 Frc consts  --      1.5723                 1.7832                 1.8922
 IR Inten    --    245.8836                27.2564               358.9919

                     58                     59                     60
                      A                      A                      A
 Frequencies --   1303.9781              1327.5577              1368.5133
 Red. masses --      1.8008                 5.5556                 4.0217
 Frc consts  --      1.8041                 5.7688                 4.4377
 IR Inten    --     47.6846               599.6513              1277.0138

                     61                     62                     63
                      A                      A                      A
 Frequencies --   1374.3741              1393.5397              1403.1338
 Red. masses --      1.4949                 6.3520                 1.3603
 Frc consts  --      1.6637                 7.2678                 1.5779
 IR Inten    --    207.3065                43.5518                15.6854

                     64                     65                     66
                      A                      A                      A
 Frequencies --   1410.2517              1428.0489              1444.7884
 Red. masses --      1.2513                 3.1067                 2.5603
 Frc consts  --      1.4663                 3.7329                 3.1488
 IR Inten    --      0.8659                86.9613                17.9041

                     67                     68                     69
                      A                      A                      A
 Frequencies --   1464.0495              1464.4503              1479.7509
 Red. masses --      1.0591                 1.0765                 1.0520
 Frc consts  --      1.3375                 1.3602                 1.3572
 IR Inten    --      3.0870                 3.7183                16.3563

                     70                     71                     72
                      A                      A                      A
 Frequencies --   1480.9447              1484.0392              1499.6895
 Red. masses --      1.0429                 1.0848                 3.7215
 Frc consts  --      1.3476                 1.4077                 4.9315
 IR Inten    --     23.7829                 5.6545                51.1084

                     73                     74                     75
                      A                      A                      A
 Frequencies --   1531.8620              1591.1930              1604.7861
 Red. masses --      5.6586                 7.1097                 5.4639
 Frc consts  --      7.8235                10.6058                 8.2906
 IR Inten    --    295.2191                22.2208                12.6451

                     76                     77                     78
                      A                      A                      A
 Frequencies --   1701.1450              3000.4924              3002.7353
 Red. masses --      6.2033                 1.0389                 1.0589
 Frc consts  --     10.5768                 5.5108                 5.6252
 IR Inten    --      4.9036                63.4283                61.7948

                     79                     80                     81
                      A                      A                      A
 Frequencies --   3008.5667              3040.7812              3044.5118
 Red. masses --      1.0426                 1.0994                 1.0980
 Frc consts  --      5.5603                 5.9891                 5.9963
 IR Inten    --    164.6103                34.8867                37.7937

                     82                     83                     84
                      A                      A                      A
 Frequencies --   3045.3948              3093.0947              3102.3873
 Red. masses --      1.0979                 1.0986                 1.0877
 Frc consts  --      5.9995                 6.1926                 6.1679
 IR Inten    --     16.6789                27.0172                60.2580

                     85                     86                     87
                      A                      A                      A
 Frequencies --   3115.5271              3135.0740              3150.8804
 Red. masses --      1.0953                 1.0844                 1.0888
 Frc consts  --      6.2642                 6.2799                 6.3687
 IR Inten    --     39.4785                18.8038                32.6108

                     88                     89                     90
                      A                      A                      A
 Frequencies --   3167.5233              3171.9643              3720.3643
 Red. masses --      1.0909                 1.0941                 1.0665
 Frc consts  --      6.4488                 6.4856                 8.6969
 IR Inten    --     45.9459                74.0345               534.3169

 - Thermochemistry -
 -------------------
 Temperature   298.150 Kelvin.  Pressure   1.00000 Atm.
 Atom     1 has atomic number  8 and mass  15.99491

 Molecular mass:   242.09429 amu.
 Principal axes and moments of inertia in atomic units:
                           1         2         3
     Eigenvalues --  2018.515587692.729149133.88003
           X            0.99940   0.01731  -0.02998
           Y           -0.02334   0.97650  -0.21426
           Z            0.02556   0.21484   0.97632
 This molecule is an asymmetric top.
 Rotational symmetry number  1.
 Warning -- assumption of classical behavior for rotation
           may cause significant error
 Rotational temperatures (Kelvin)      0.04291     0.01126     0.00948
 Rotational constants (GHZ):           0.89409     0.23460     0.19759
 Zero-point vibrational energy     654756.9 (Joules/Mol)
                                  156.49065 (Kcal/Mol)
 Warning -- explicit consideration of  26 degrees of freedom as
           vibrations may cause significant error
 Vibrational temperatures:     53.11    61.29    78.84   134.86   180.92
          (Kelvin)            203.50   231.01   265.98   275.01   285.56
                              377.43   394.41   440.66   458.22   490.43
                              532.26   560.85   587.51   615.60   634.53
                              645.17   662.64   712.18   738.33   768.73
                              811.64   911.42   959.11   987.95  1009.68
                             1014.84  1106.78  1119.56  1131.74  1223.44
                             1229.63  1244.00  1315.32  1379.62  1382.79
                             1397.14  1408.11  1456.39  1459.82  1470.38
                             1502.12  1578.00  1579.19  1604.07  1614.91
                             1649.16  1689.50  1706.83  1737.33  1785.85
                             1824.12  1866.60  1876.13  1910.06  1968.99
                             1977.42  2004.99  2018.80  2029.04  2054.64
                             2078.73  2106.44  2107.02  2129.03  2130.75
                             2135.20  2157.72  2204.01  2289.37  2308.93
                             2447.57  4317.04  4320.27  4328.66  4375.01
                             4380.37  4381.64  4450.27  4463.64  4482.55
                             4510.67  4533.41  4557.36  4563.75  5352.77

 Zero-point correction=                           0.249384 (Hartree/Particle)
 Thermal correction to Energy=                    0.265892
 Thermal correction to Enthalpy=                  0.266836
 Thermal correction to Gibbs Free Energy=         0.205188
 Sum of electronic and zero-point Energies=           -805.903975
 Sum of electronic and thermal Energies=              -805.887467
 Sum of electronic and thermal Enthalpies=            -805.886523
 Sum of electronic and thermal Free Energies=         -805.948170

                     E (Thermal)             CV                S
                      KCal/Mol        Cal/Mol-Kelvin    Cal/Mol-Kelvin
 Total                  166.849             64.062            129.749
 Electronic               0.000              0.000              0.000
 Translational            0.889              2.981             42.354
 Rotational               0.889              2.981             33.317
 Vibrational            165.072             58.101             54.079
 Vibration     1          0.594              1.982              5.418
 Vibration     2          0.595              1.980              5.134
 Vibration     3          0.596              1.976              4.636
 Vibration     4          0.603              1.954              3.581
 Vibration     5          0.611              1.927              3.010
 Vibration     6          0.615              1.912              2.784
 Vibration     7          0.622              1.891              2.543
 Vibration     8          0.631              1.860              2.279
 Vibration     9          0.634              1.852              2.217
 Vibration    10          0.637              1.842              2.147
 Vibration    11          0.670              1.742              1.646
 Vibration    12          0.676              1.721              1.570
 Vibration    13          0.697              1.662              1.382
 Vibration    14          0.705              1.638              1.318
 Vibration    15          0.720              1.594              1.208
 Vibration    16          0.742              1.534              1.080
 Vibration    17          0.758              1.492              1.001
 Vibration    18          0.773              1.452              0.933
 Vibration    19          0.789              1.410              0.866
 Vibration    20          0.801              1.381              0.823
 Vibration    21          0.807              1.364              0.801
 Vibration    22          0.818              1.338              0.764
 Vibration    23          0.851              1.261              0.671
 Vibration    24          0.868              1.221              0.626
 Vibration    25          0.889              1.174              0.578
 Vibration    26          0.920              1.109              0.516

                           ! Non-Optimized Parameters !
 Normal termination of Gaussian 16 at Sun Feb 11 04:15:48 2024.
