 Gaussian 16, Revision A.03,
 Gaussian 16:  ES64L-G16RevA.03 25-Dec-2016

 --------------------------------------
 #P UB3LYP/6-311++G(d,p) nosym opt freq
 --------------------------------------

 --------
 Oxidized
 --------
 Symbolic Z-matrix:
 Charge =  0 Multiplicity = 1

 SCF Done:  E(UB3LYP) =  -649.795670192     A.U. after   16 cycles
 SCF Done:  E(UB3LYP) =  -649.816484426     A.U. after   14 cycles
 SCF Done:  E(UB3LYP) =  -649.819126433     A.U. after   14 cycles
 SCF Done:  E(UB3LYP) =  -649.819295125     A.U. after   13 cycles
 SCF Done:  E(UB3LYP) =  -649.819325804     A.U. after   12 cycles
 SCF Done:  E(UB3LYP) =  -649.819325919     A.U. after   10 cycles
 SCF Done:  E(UB3LYP) =  -649.819327407     A.U. after   10 cycles
 Optimization completed.
    -- Stationary point found.
 Normal termination of Gaussian 16 at Tue Dec 26 20:13:19 2023.

 ----------------------------------------------------------------------
 #P Geom=AllCheck Guess=TCheck SCRF=Check GenChk UB3LYP/6-311++G(d,p) F
 req
 ----------------------------------------------------------------------

 Structure from the checkpoint file:  "257.chk"
 --------
 Oxidized
 --------
 Charge =  0 Multiplicity = 1

                          Input orientation:
 ---------------------------------------------------------------------
 Center     Atomic      Atomic             Coordinates (Angstroms)
 Number     Number       Type             X           Y           Z
 ---------------------------------------------------------------------
      1          6           0        3.946224    0.625237   -0.108227
      2          8           0        2.668597    1.262316   -0.156977
      3          6           0        1.573865    0.501723   -0.095850
      4          6           0        1.538068   -0.847453    0.011338
      5          6           0        0.280701   -1.597747    0.071367
      6          8           0        0.281212   -2.817412    0.168571
      7          6           0       -0.998012   -0.822918    0.010663
      8          6           0       -2.218580   -1.496860    0.064632
      9          6           0       -3.411733   -0.782633    0.008443
     10          6           0       -3.392725    0.609773   -0.102019
     11          6           0       -2.180219    1.288632   -0.156326
     12          6           0       -0.978398    0.576988   -0.100341
     13          6           0        0.308662    1.323776   -0.159975
     14          8           0        0.361318    2.532451   -0.255309
     15          1           0        4.073593    0.082075    0.832753
     16          1           0        4.676242    1.428648   -0.173721
     17          1           0        4.070595   -0.060621   -0.951334
     18          1           0        2.434998   -1.450968    0.058891
     19          1           0       -2.209655   -2.576524    0.150205
     20          1           0       -4.358435   -1.309234    0.050571
     21          1           0       -4.323845    1.163093   -0.145565
     22          1           0       -2.142471    2.367658   -0.241885
 ---------------------------------------------------------------------

 SCF Done:  E(UB3LYP) =  -649.819327407     A.U. after    1 cycles

 Alpha  occ. eigenvalues --  -19.19197 -19.13643 -19.12188 -10.28704 -10.27635
 Alpha  occ. eigenvalues --  -10.27627 -10.24859 -10.21060 -10.20889 -10.20313
 Alpha  occ. eigenvalues --  -10.20226 -10.20129 -10.19916 -10.19912  -1.11413
 Alpha  occ. eigenvalues --   -1.06688  -1.05432  -0.89262  -0.83825  -0.78188
 Alpha  occ. eigenvalues --   -0.78078  -0.75189  -0.68841  -0.65466  -0.63220
 Alpha  occ. eigenvalues --   -0.59542  -0.55962  -0.55395  -0.52727  -0.50373
 Alpha  occ. eigenvalues --   -0.49724  -0.48024  -0.46486  -0.45350  -0.45026
 Alpha  occ. eigenvalues --   -0.44752  -0.43985  -0.43604  -0.41546  -0.38939
 Alpha  occ. eigenvalues --   -0.38937  -0.37703  -0.36719  -0.36633  -0.28885
 Alpha  occ. eigenvalues --   -0.28511  -0.28044  -0.27242  -0.26973
 Alpha virt. eigenvalues --   -0.11969  -0.05698  -0.02933  -0.01395  -0.00734
 Alpha virt. eigenvalues --    0.01150   0.01331   0.01881   0.02167   0.02801
 Alpha virt. eigenvalues --    0.03347   0.04599   0.04809   0.05142   0.05566

  Beta  occ. eigenvalues --  -19.19197 -19.13643 -19.12188 -10.28704 -10.27635
  Beta  occ. eigenvalues --  -10.27627 -10.24859 -10.21060 -10.20889 -10.20313
  Beta  occ. eigenvalues --  -10.20226 -10.20129 -10.19916 -10.19912  -1.11413
  Beta  occ. eigenvalues --   -1.06688  -1.05432  -0.89262  -0.83825  -0.78188
  Beta  occ. eigenvalues --   -0.78078  -0.75189  -0.68841  -0.65466  -0.63220
  Beta  occ. eigenvalues --   -0.59542  -0.55962  -0.55395  -0.52727  -0.50373
  Beta  occ. eigenvalues --   -0.49724  -0.48024  -0.46486  -0.45350  -0.45026
  Beta  occ. eigenvalues --   -0.44752  -0.43985  -0.43604  -0.41546  -0.38939
  Beta  occ. eigenvalues --   -0.38937  -0.37703  -0.36719  -0.36633  -0.28885
  Beta  occ. eigenvalues --   -0.28511  -0.28044  -0.27242  -0.26973
  Beta virt. eigenvalues --   -0.11969  -0.05698  -0.02933  -0.01395  -0.00734
  Beta virt. eigenvalues --    0.01150   0.01331   0.01881   0.02167   0.02801
  Beta virt. eigenvalues --    0.03347   0.04599   0.04809   0.05142   0.05566

 Mulliken charges and spin densities:
               1          2
     1  C   -0.302659  -0.000000
     2  O   -0.122190   0.000000
     3  C   -0.129386  -0.000000
     4  C    0.728477   0.000000
     5  C   -0.756107  -0.000000
     6  O   -0.245721   0.000000
     7  C    0.620949  -0.000000
     8  C    0.124247   0.000000
     9  C   -0.329124   0.000000
    10  C   -0.417866  -0.000000
    11  C    0.121358   0.000000
    12  C    0.473820  -0.000000
    13  C   -1.022926   0.000000
    14  O   -0.209875   0.000000
    15  H    0.168560   0.000000
    16  H    0.199899  -0.000000
    17  H    0.168376   0.000000
    18  H    0.208306  -0.000000
    19  H    0.181971  -0.000000
    20  H    0.180224   0.000000
    21  H    0.180030  -0.000000
    22  H    0.179638  -0.000000
 Sum of Mulliken charges =  -0.00000   0.00000

 Dipole moment (field-independent basis, Debye):
    X=              0.2915    Y=              0.0592    Z=             -0.0083  Tot=              0.2976
 Quadrupole moment (field-independent basis, Debye-Ang):
   XX=            -54.6470   YY=            -97.6950   ZZ=            -81.8663
   XY=             -0.8666   XZ=              0.0325   YZ=              1.2575

  Exact polarizability: 184.558   9.861 161.954  -0.841  -7.115  72.850
 Approx polarizability: 253.657  18.992 327.884  -1.570 -17.064 114.223

                      1                      2                      3
                      A                      A                      A
 Frequencies --     45.7596               114.4792               120.6706
 Red. masses --      5.9161                 4.5266                 4.5308
 Frc consts  --      0.0073                 0.0350                 0.0389
 IR Inten    --      7.9516                 0.0310                 0.0016

                      4                      5                      6
                      A                      A                      A
 Frequencies --    157.4332               189.1136               196.5826
 Red. masses --      3.0761                 3.8496                 3.6748
 Frc consts  --      0.0449                 0.0811                 0.0837
 IR Inten    --      4.6066                 0.0648                 3.9732

                      7                      8                      9
                      A                      A                      A
 Frequencies --    244.6779               273.1781               332.9047
 Red. masses --      1.3461                 6.1150                 5.9257
 Frc consts  --      0.0475                 0.2689                 0.3869
 IR Inten    --      0.8365                 1.3706                 2.2216

                     10                     11                     12
                      A                      A                      A
 Frequencies --    378.7255               405.6740               449.0027
 Red. masses --     11.1025                 3.4888                 7.0031
 Frc consts  --      0.9382                 0.3383                 0.8318
 IR Inten    --     18.1464                 0.0410                 6.1542

                     13                     14                     15
                      A                      A                      A
 Frequencies --    449.8073               458.4111               502.0753
 Red. masses --      4.8646                10.0354                 3.8695
 Frc consts  --      0.5799                 1.2425                 0.5747
 IR Inten    --      1.6223                 3.9639                 3.4451

                     16                     17                     18
                      A                      A                      A
 Frequencies --    542.5547               655.7567               679.6587
 Red. masses --      6.9871                 7.2518                 3.8797
 Frc consts  --      1.2118                 1.8373                 1.0559
 IR Inten    --      1.8408                 6.6087                 2.2477

                     19                     20                     21
                      A                      A                      A
 Frequencies --    704.5402               716.6777               736.5384
 Red. masses --      5.5986                 6.5438                 2.7906
 Frc consts  --      1.6373                 1.9803                 0.8920
 IR Inten    --      3.9338                 0.4927                27.7186

                     22                     23                     24
                      A                      A                      A
 Frequencies --    787.5098               822.0848               829.6132
 Red. masses --      1.8804                 3.8656                 4.3007
 Frc consts  --      0.6871                 1.5392                 1.7440
 IR Inten    --     40.8891                 9.6324                 4.8658

                     25                     26                     27
                      A                      A                      A
 Frequencies --    868.4948               915.0544               937.2822
 Red. masses --      1.5359                 1.3618                 5.8041
 Frc consts  --      0.6826                 0.6718                 3.0042
 IR Inten    --     25.9874                 0.0047                18.1452

                     28                     29                     30
                      A                      A                      A
 Frequencies --   1000.4543              1017.6073              1044.9529
 Red. masses --      1.3801                 1.3224                 3.4281
 Frc consts  --      0.8139                 0.8068                 2.2054
 IR Inten    --      1.5397                 0.0400                52.8518

                     31                     32                     33
                      A                      A                      A
 Frequencies --   1068.7908              1102.4263              1137.4101
 Red. masses --      3.4866                 2.8935                 1.8536
 Frc consts  --      2.3466                 2.0719                 1.4128
 IR Inten    --     57.1912                26.6731                11.0900

                     34                     35                     36
                      A                      A                      A
 Frequencies --   1167.4759              1183.2489              1198.0409
 Red. masses --      1.2797                 1.1355                 1.4031
 Frc consts  --      1.0277                 0.9367                 1.1865
 IR Inten    --      0.8246                14.7509                11.1505

                     37                     38                     39
                      A                      A                      A
 Frequencies --   1236.7109              1267.0011              1283.3597
 Red. masses --      2.3906                 2.5970                 2.0179
 Frc consts  --      2.1542                 2.4563                 1.9581
 IR Inten    --    138.5083               374.2184                65.9902

                     40                     41                     42
                      A                      A                      A
 Frequencies --   1324.0399              1359.7007              1371.2254
 Red. masses --      4.0935                 6.4797                 3.0106
 Frc consts  --      4.2282                 7.0581                 3.3352
 IR Inten    --     74.4836                18.2010                28.6010

                     43                     44                     45
                      A                      A                      A
 Frequencies --   1474.5750              1482.7925              1492.7069
 Red. masses --      1.2323                 2.3680                 1.0444
 Frc consts  --      1.5787                 3.0676                 1.3711
 IR Inten    --      4.7403                 0.3001                11.7602

                     46                     47                     48
                      A                      A                      A
 Frequencies --   1498.7388              1505.6575              1611.5615
 Red. masses --      1.0508                 2.5987                 6.5241
 Frc consts  --      1.3906                 3.4710                 9.9831
 IR Inten    --     19.0344                 5.5774                42.1705

                     49                     50                     51
                      A                      A                      A
 Frequencies --   1629.5132              1649.6049              1707.3698
 Red. masses --      5.8864                 7.6072                11.1169
 Frc consts  --      9.2090                12.1965                19.0937
 IR Inten    --     53.7023               299.3460               215.1965

                     52                     53                     54
                      A                      A                      A
 Frequencies --   1746.7058              3020.4983              3086.6146
 Red. masses --     12.8169                 1.0334                 1.1068
 Frc consts  --     23.0395                 5.5550                 6.2125
 IR Inten    --    229.4354                34.2846                23.6924

                     55                     56                     57
                      A                      A                      A
 Frequencies --   3152.1582              3170.4873              3184.6672
 Red. masses --      1.1012                 1.0869                 1.0915
 Frc consts  --      6.4466                 6.4374                 6.5226
 IR Inten    --     13.2208                 3.2708                 8.6062

                     58                     59                     60
                      A                      A                      A
 Frequencies --   3198.9295              3201.6648              3204.0514
 Red. masses --      1.0926                 1.0952                 1.0906
 Frc consts  --      6.5874                 6.6146                 6.5967
 IR Inten    --      0.3975                10.8607                 3.1706

 - Thermochemistry -
 -------------------
 Temperature   298.150 Kelvin.  Pressure   1.00000 Atm.
 Atom     1 has atomic number  6 and mass  12.00000

 Molecular mass:   188.04734 amu.
 Principal axes and moments of inertia in atomic units:
                           1         2         3
     Eigenvalues --  1417.035613257.061964662.56839
           X            0.97994  -0.19930   0.00060
           Y            0.19863   0.97688   0.07904
           Z           -0.01633  -0.07733   0.99687
 This molecule is an asymmetric top.
 Rotational symmetry number  1.
 Warning -- assumption of classical behavior for rotation
           may cause significant error
 Rotational temperatures (Kelvin)      0.06112     0.02659     0.01858
 Rotational constants (GHZ):           1.27360     0.55410     0.38707
 Zero-point vibrational energy     432420.1 (Joules/Mol)
                                  103.35090 (Kcal/Mol)
 Warning -- explicit consideration of  16 degrees of freedom as
           vibrations may cause significant error
 Vibrational temperatures:     65.84   164.71   173.62   226.51   272.09
          (Kelvin)            282.84   352.04   393.04   478.98   544.90
                              583.67   646.01   647.17   659.55   722.37
                              780.62   943.49   977.88  1013.68  1031.14
                             1059.71  1133.05  1182.80  1193.63  1249.57
                             1316.56  1348.54  1439.43  1464.11  1503.45
                             1537.75  1586.15  1636.48  1679.74  1702.43
                             1723.71  1779.35  1822.93  1846.47  1905.00
                             1956.31  1972.89  2121.58  2133.41  2147.67
                             2156.35  2166.31  2318.68  2344.51  2373.41
                             2456.52  2513.12  4345.82  4440.95  4535.25
                             4561.62  4582.03  4602.55  4606.48  4609.92

 Zero-point correction=                           0.164700 (Hartree/Particle)
 Thermal correction to Energy=                    0.176007
 Thermal correction to Enthalpy=                  0.176951
 Thermal correction to Gibbs Free Energy=         0.127141
 Sum of electronic and zero-point Energies=           -649.654627
 Sum of electronic and thermal Energies=              -649.643320
 Sum of electronic and thermal Enthalpies=            -649.642376
 Sum of electronic and thermal Free Energies=         -649.692186

                     E (Thermal)             CV                S
                      KCal/Mol        Cal/Mol-Kelvin    Cal/Mol-Kelvin
 Total                  110.446             43.503            104.835
 Electronic               0.000              0.000              0.000
 Translational            0.889              2.981             41.600
 Rotational               0.889              2.981             31.443
 Vibrational            108.669             37.541             31.792
 Vibration     1          0.595              1.979              4.993
 Vibration     2          0.607              1.937              3.192
 Vibration     3          0.609              1.932              3.090
 Vibration     4          0.621              1.894              2.580
 Vibration     5          0.633              1.855              2.236
 Vibration     6          0.636              1.845              2.165
 Vibration     7          0.660              1.772              1.769
 Vibration     8          0.676              1.723              1.576
 Vibration     9          0.715              1.610              1.246
 Vibration    10          0.749              1.515              1.044
 Vibration    11          0.771              1.458              0.942
 Vibration    12          0.808              1.363              0.799
 Vibration    13          0.809              1.361              0.796
 Vibration    14          0.816              1.342              0.771
 Vibration    15          0.857              1.245              0.653
 Vibration    16          0.898              1.156              0.560

                           ! Non-Optimized Parameters !
 Normal termination of Gaussian 16 at Tue Dec 26 20:31:24 2023.
