 Q-Chem 5.4, Q-Chem, Inc., Pleasanton, CA (2021)
 Q-Chem 5.4.0 for Intel X86 EM64T Linux

User input:
--------------------------------------------------------------
$molecule
-1 2
Br                -2.7083910000     -1.8520180000     -0.0956920000
C                 -1.1368080000     -0.7258150000     -0.0395540000
C                 -1.2966100000      0.6288750000     -0.0297750000
C                 -0.1562830000      1.5235390000      0.0118370000
O                 -0.2842320000      2.7765030000      0.0212290000
C                  1.1420230000      0.8780540000      0.0413610000
C                  1.2606870000     -0.4806950000      0.0303820000
Br                 3.0279040000     -1.2655890000      0.0715970000
C                  0.1457990000     -1.4229380000     -0.0107280000
O                  0.2726450000     -2.6624120000     -0.0204580000
H                 -2.2798130000      1.0819240000     -0.0527070000
H                  2.0130790000      1.5205730000      0.0725080000
$end
$rem
MAX_SCF_CYCLES=200
BASIS  =  6-311++G(d,p)
GUI  =  2
JOB_TYPE  =  SP
METHOD  =  B3LYP
SOLVENT_METHOD = PCM
$end
$pcm
theory = CPCM
$end
$solvent
dielectric 37.219
opticaldielectric 1.43
$end

--------------------------------------------------------------

             Standard Nuclear Orientation (Angstroms)
    I     Atom           X                Y                Z
 ----------------------------------------------------------------
    1      Br     -2.7083910000    -1.8520180000    -0.0956920000
    2      C      -1.1368080000    -0.7258150000    -0.0395540000
    3      C      -1.2966100000     0.6288750000    -0.0297750000
    4      C      -0.1562830000     1.5235390000     0.0118370000
    5      O      -0.2842320000     2.7765030000     0.0212290000
    6      C       1.1420230000     0.8780540000     0.0413610000
    7      C       1.2606870000    -0.4806950000     0.0303820000
    8      Br      3.0279040000    -1.2655890000     0.0715970000
    9      C       0.1457990000    -1.4229380000    -0.0107280000
   10      O       0.2726450000    -2.6624120000    -0.0204580000
   11      H      -2.2798130000     1.0819240000    -0.0527070000
   12      H       2.0130790000     1.5205730000     0.0725080000
 ----------------------------------------------------------------

    9   -5528.8144002910      8.01e-06  Convergence criterion met
 Total energy in the final basis set =    -5528.8144002910

                    Orbital Energies (a.u.)
 --------------------------------------------------------------

 Alpha MOs
 -- Occupied --
********-482.8296 -62.4825 -62.4825 -56.3029 -56.3029 -56.2993 -56.2992
-56.2990 -56.2989 -19.0983 -19.0941 -10.2515 -10.2399 -10.2324 -10.2324
-10.1824 -10.1824  -8.6912  -8.6911  -6.5223  -6.5222  -6.5101  -6.5100
 -6.5094  -6.5093  -2.6334  -2.6331  -2.6299  -2.6298  -2.6293  -2.6293
 -2.6196  -2.6196  -2.6196  -2.6195  -1.0287  -1.0163  -0.8610  -0.8230
 -0.7768  -0.7278  -0.6985  -0.5994  -0.5801  -0.5029  -0.4870  -0.4429
 -0.4354  -0.4234  -0.4219  -0.3967  -0.3958  -0.3720  -0.3389  -0.3254
 -0.2960  -0.2922  -0.2802  -0.2658  -0.2555  -0.2539  -0.1802

 Beta MOs
 -- Occupied --
********-482.8296 -62.4825 -62.4825 -56.3029 -56.3029 -56.2992 -56.2992
-56.2990 -56.2989 -19.0916 -19.0870 -10.2500 -10.2387 -10.2314 -10.2314
-10.1812 -10.1811  -8.6912  -8.6911  -6.5224  -6.5223  -6.5100  -6.5100
 -6.5094  -6.5093  -2.6334  -2.6331  -2.6299  -2.6298  -2.6294  -2.6293
 -2.6196  -2.6196  -2.6196  -2.6195  -1.0171  -1.0037  -0.8557  -0.8217
 -0.7745  -0.7256  -0.6881  -0.5952  -0.5756  -0.5006  -0.4826  -0.4377
 -0.4209  -0.4182  -0.4172  -0.3928  -0.3700  -0.3671  -0.3354  -0.3090
 -0.2957  -0.2917  -0.2596  -0.2588  -0.2494  -0.2479

          Ground-State Mulliken Net Atomic Charges

     Atom                 Charge (a.u.)    Spin (a.u.)
  --------------------------------------------------------
      1 Br                   -0.182012       0.004512
      2 C                     1.408268       0.091921
      3 C                    -0.403758       0.076811
      4 C                    -0.207274       0.124913
      5 O                    -0.490638       0.251599
      6 C                    -0.390688       0.076788
      7 C                     1.396196       0.091561
      8 Br                   -0.182524       0.004517
      9 C                    -2.070959       0.046954
     10 O                    -0.367646       0.245830
     11 H                     0.245454      -0.007698
     12 H                     0.245581      -0.007708
  --------------------------------------------------------
  Sum of atomic charges =    -1.000000

                    Cartesian Multipole Moments
 -----------------------------------------------------------------
    Charge (ESU x 10^10)
                -4.8032
    Dipole Moment (Debye)
         X      -0.2104      Y       2.0387      Z       0.0166
       Tot       2.0496
    Quadrupole Moments (Debye-Ang)
        XX     -91.7823     XY       3.4829     YY    -125.3383
        XZ      -0.1291     YZ      -0.3195     ZZ     -85.8784

 Total job time:  28.39s(wall), 109.25s(cpu)
        *  Thank you very much for using Q-Chem.  Have a nice day.  *
