 Gaussian 16, Revision A.03,
 Gaussian 16:  ES64L-G16RevA.03 25-Dec-2016

 --------------------------------------
 #P UB3LYP/6-311++G(d,p) nosym opt freq
 --------------------------------------

 -------
 Radical
 -------
 Symbolic Z-matrix:
 Charge = -1 Multiplicity = 2

 SCF Done:  E(UB3LYP) =  -5528.74142096     A.U. after   20 cycles
 Optimization completed.
    -- Stationary point found.
 Normal termination of Gaussian 16 at Sat Jan  6 05:39:35 2024.

 ----------------------------------------------------------------------
 #P Geom=AllCheck Guess=TCheck SCRF=Check GenChk UB3LYP/6-311++G(d,p) F
 req
 ----------------------------------------------------------------------

 Structure from the checkpoint file:  "012-rad.chk"
 -------
 Radical
 -------
 Charge = -1 Multiplicity = 2

                          Input orientation:
 ---------------------------------------------------------------------
 Center     Atomic      Atomic             Coordinates (Angstroms)
 Number     Number       Type             X           Y           Z
 ---------------------------------------------------------------------
      1         35           0       -2.708391   -1.852018   -0.095692
      2          6           0       -1.136808   -0.725815   -0.039554
      3          6           0       -1.296610    0.628875   -0.029775
      4          6           0       -0.156283    1.523539    0.011837
      5          8           0       -0.284232    2.776503    0.021229
      6          6           0        1.142023    0.878054    0.041361
      7          6           0        1.260687   -0.480695    0.030382
      8         35           0        3.027904   -1.265589    0.071597
      9          6           0        0.145799   -1.422938   -0.010728
     10          8           0        0.272645   -2.662412   -0.020458
     11          1           0       -2.279813    1.081924   -0.052707
     12          1           0        2.013079    1.520573    0.072508
 ---------------------------------------------------------------------

 SCF Done:  E(UB3LYP) =  -5528.74142096     A.U. after    1 cycles

 Alpha  occ. eigenvalues -- -482.70544-482.70541 -62.35823 -62.35820 -56.17843
 Alpha  occ. eigenvalues --  -56.17840 -56.17488 -56.17485 -56.17461 -56.17458
 Alpha  occ. eigenvalues --  -18.95973 -18.95728 -10.11672 -10.10617 -10.10410
 Alpha  occ. eigenvalues --  -10.10409 -10.05521 -10.05520  -8.56782  -8.56779
 Alpha  occ. eigenvalues --   -6.39874  -6.39871  -6.38683  -6.38680  -6.38606
 Alpha  occ. eigenvalues --   -6.38602  -2.50977  -2.50973  -2.50648  -2.50645
 Alpha  occ. eigenvalues --   -2.50590  -2.50587  -2.49641  -2.49640  -2.49637
 Alpha  occ. eigenvalues --   -2.49637  -0.88993  -0.87910  -0.73190  -0.69704
 Alpha  occ. eigenvalues --   -0.65073  -0.60144  -0.56714  -0.47066  -0.45094
 Alpha  occ. eigenvalues --   -0.37145  -0.35616  -0.31100  -0.30188  -0.29731
 Alpha  occ. eigenvalues --   -0.28645  -0.26307  -0.25850  -0.24426  -0.21314
 Alpha  occ. eigenvalues --   -0.19408  -0.17068  -0.16636  -0.15127  -0.12817
 Alpha  occ. eigenvalues --   -0.12622  -0.11873  -0.04566
 Alpha virt. eigenvalues --    0.08405   0.09654   0.10384   0.10625   0.11425
 Alpha virt. eigenvalues --    0.13189   0.14178   0.14216   0.14691   0.15553
 Alpha virt. eigenvalues --    0.15642   0.15764   0.16711   0.17881   0.18557

  Beta  occ. eigenvalues -- -482.70544-482.70541 -62.35823 -62.35820 -56.17845
  Beta  occ. eigenvalues --  -56.17842 -56.17485 -56.17482 -56.17461 -56.17458
  Beta  occ. eigenvalues --  -18.95245 -18.94953 -10.11578 -10.10545 -10.10300
  Beta  occ. eigenvalues --  -10.10298 -10.05388 -10.05387  -8.56782  -8.56778
  Beta  occ. eigenvalues --   -6.39878  -6.39875  -6.38678  -6.38675  -6.38606
  Beta  occ. eigenvalues --   -6.38603  -2.50979  -2.50976  -2.50646  -2.50643
  Beta  occ. eigenvalues --   -2.50592  -2.50589  -2.49638  -2.49638  -2.49635
  Beta  occ. eigenvalues --   -2.49635  -0.87762  -0.86575  -0.72659  -0.69572
  Beta  occ. eigenvalues --   -0.64854  -0.59920  -0.55718  -0.46652  -0.44683
  Beta  occ. eigenvalues --   -0.36929  -0.35197  -0.30731  -0.29627  -0.28516
  Beta  occ. eigenvalues --   -0.27932  -0.25810  -0.24241  -0.23009  -0.20974
  Beta  occ. eigenvalues --   -0.17970  -0.17043  -0.16597  -0.12477  -0.12188
  Beta  occ. eigenvalues --   -0.11932  -0.11180
  Beta virt. eigenvalues --    0.02737   0.08520   0.10411   0.10644   0.11034
  Beta virt. eigenvalues --    0.11441   0.13221   0.14251   0.14264   0.15664
  Beta virt. eigenvalues --    0.15700   0.15784   0.16711   0.16977   0.17913

 Mulliken charges and spin densities:
               1          2
     1  Br  -0.217740   0.003052
     2  C    1.270188   0.101074
     3  C   -0.239670   0.083363
     4  C   -0.496082   0.095968
     5  O   -0.398713   0.273113
     6  C   -0.239324   0.083252
     7  C    1.268961   0.100748
     8  Br  -0.217682   0.003044
     9  C   -1.887511   0.003976
    10  O   -0.261969   0.269252
    11  H    0.209762  -0.008426
    12  H    0.209781  -0.008417
 Sum of Mulliken charges =  -1.00000   1.00000

 Dipole moment (field-independent basis, Debye):
    X=             -0.1884    Y=              1.8478    Z=              0.0146  Tot=              1.8574
 Quadrupole moment (field-independent basis, Debye-Ang):
   XX=            -98.2160   YY=           -121.7950   ZZ=            -86.3143
   XY=              2.4394   XZ=             -0.3089   YZ=             -0.3058

  Exact polarizability: 170.144  -0.361 173.429   2.764   1.065  71.677
 Approx polarizability: 229.299  -9.160 317.508   3.290   1.946 108.834

                      1                      2                      3
                      A                      A                      A
 Frequencies --     71.1782               126.4528               150.8851
 Red. masses --     17.8935                30.3403                11.6859
 Frc consts  --      0.0534                 0.2858                 0.1567
 IR Inten    --      4.3430                 1.9233                 5.8430

                      4                      5                      6
                      A                      A                      A
 Frequencies --    181.8332               210.3694               254.3090
 Red. masses --      4.9735                14.7250                22.4441
 Frc consts  --      0.0969                 0.3839                 0.8552
 IR Inten    --      0.0000                 0.0646                 0.1840

                      7                      8                      9
                      A                      A                      A
 Frequencies --    266.8541               323.2089               432.9969
 Red. masses --     17.9294                 6.8688                 8.5166
 Frc consts  --      0.7523                 0.4228                 0.9408
 IR Inten    --      0.0797                 0.8362                16.9035

                     10                     11                     12
                      A                      A                      A
 Frequencies --    457.4241               479.9972               609.2831
 Red. masses --      5.4824                12.8393                 6.1188
 Frc consts  --      0.6759                 1.7429                 1.3383
 IR Inten    --      0.0000                 0.0132                 8.7429

                     13                     14                     15
                      A                      A                      A
 Frequencies --    627.9629               697.8263               732.2853
 Red. masses --      2.9083                10.2407                10.3544
 Frc consts  --      0.6757                 2.9382                 3.2714
 IR Inten    --      0.4624                81.8730                 3.0032

                     16                     17                     18
                      A                      A                      A
 Frequencies --    814.5996               848.0179               865.6565
 Red. masses --      6.6918                 1.3068                 1.6388
 Frc consts  --      2.6163                 0.5537                 0.7235
 IR Inten    --     40.1169                 0.0034                38.3987

                     19                     20                     21
                      A                      A                      A
 Frequencies --    885.2874               994.9966              1096.8225
 Red. masses --      8.0375                 2.8337                 4.6138
 Frc consts  --      3.7114                 1.6529                 3.2703
 IR Inten    --     32.0375                87.1009                49.5337

                     22                     23                     24
                      A                      A                      A
 Frequencies --   1222.3896              1292.2294              1366.9355
 Red. masses --      1.7146                 1.7070                 5.6656
 Frc consts  --      1.5095                 1.6794                 6.2373
 IR Inten    --      7.3772                 2.4291                97.2758

                     25                     26                     27
                      A                      A                      A
 Frequencies --   1475.1323              1512.8348              1546.9206
 Red. masses --      6.3936                11.3640                10.0624
 Frc consts  --      8.1971                15.3238                14.1869
 IR Inten    --      4.3053               152.4344               323.0402

                     28                     29                     30
                      A                      A                      A
 Frequencies --   1614.9564              3190.2223              3191.2216
 Red. masses --      8.5209                 1.0911                 1.0909
 Frc consts  --     13.0936                 6.5426                 6.5457
 IR Inten    --     13.3564                 1.5665                 5.9806

 - Thermochemistry -
 -------------------
 Temperature   298.150 Kelvin.  Pressure   1.00000 Atm.
 Atom     1 has atomic number 35 and mass  78.91834

 Molecular mass:   263.84215 amu.
 Principal axes and moments of inertia in atomic units:
                           1         2         3
     Eigenvalues --  1752.561994976.046756728.60873
           X            0.99440  -0.10192  -0.02807
           Y            0.10166   0.99476  -0.01056
           Z            0.02900   0.00765   0.99955
 This molecule is an asymmetric top.
 Rotational symmetry number  1.
 Warning -- assumption of classical behavior for rotation
           may cause significant error
 Rotational temperatures (Kelvin)      0.04942     0.01741     0.01287
 Rotational constants (GHZ):           1.02977     0.36269     0.26822
 Zero-point vibrational energy     164732.3 (Joules/Mol)
                                   39.37196 (Kcal/Mol)
 Warning -- explicit consideration of  12 degrees of freedom as
           vibrations may cause significant error
 Vibrational temperatures:    102.41   181.94   217.09   261.62   302.67
          (Kelvin)            365.89   383.94   465.03   622.99   658.13
                              690.61   876.62   903.50  1004.02  1053.60
                             1172.03  1220.11  1245.49  1273.73  1431.58
                             1578.08  1758.75  1859.23  1966.72  2122.39
                             2176.63  2225.67  2323.56  4590.02  4591.46

 Zero-point correction=                           0.062743 (Hartree/Particle)
 Thermal correction to Energy=                    0.071827
 Thermal correction to Enthalpy=                  0.072772
 Thermal correction to Gibbs Free Energy=         0.025316
 Sum of electronic and zero-point Energies=          -5528.678678
 Sum of electronic and thermal Energies=             -5528.669593
 Sum of electronic and thermal Enthalpies=           -5528.668649
 Sum of electronic and thermal Free Energies=        -5528.716105

                     E (Thermal)             CV                S
                      KCal/Mol        Cal/Mol-Kelvin    Cal/Mol-Kelvin
 Total                   45.072             31.854             99.880
 Electronic               0.000              0.000              1.377
 Translational            0.889              2.981             42.610
 Rotational               0.889              2.981             32.440
 Vibrational             43.295             25.893             23.453
 Vibration     1          0.598              1.968              4.121
 Vibration     2          0.611              1.927              2.999
 Vibration     3          0.618              1.902              2.661
 Vibration     4          0.630              1.864              2.310
 Vibration     5          0.643              1.825              2.040
 Vibration     6          0.665              1.756              1.701
 Vibration     7          0.672              1.734              1.616
 Vibration     8          0.708              1.629              1.294
 Vibration     9          0.794              1.398              0.849
 Vibration    10          0.816              1.344              0.774
 Vibration    11          0.836              1.294              0.710
 Vibration    12          0.968              1.012              0.434

 Optimization completed.
    -- Stationary point found.
 Normal termination of Gaussian 16 at Sat Jan  6 05:50:25 2024.
