 Q-Chem 5.4, Q-Chem, Inc., Pleasanton, CA (2021)
 Q-Chem 5.4.0 for Intel X86 EM64T Linux

User input:
--------------------------------------------------------------
$molecule
-1 2
C                 -1.3521190000      1.9580320000      0.8177640000
C                 -2.6146170000      1.4194430000      0.3065330000
C                 -2.6346080000      0.2507450000     -0.4046360000
C                 -1.4583250000     -0.5296930000     -0.7082430000
C                 -0.1779950000     -0.0157950000     -0.2062360000
C                 -0.1792830000      1.1575160000      0.5071200000
O                 -1.5289840000     -1.6023400000     -1.3718470000
H                 -3.5646230000     -0.1596090000     -0.7846170000
O                 -1.3077570000      3.0297420000      1.4737090000
I                  1.6478890000      1.9679480000      1.2759600000
C                  1.0539380000     -0.8225870000     -0.5129790000
C                 -3.8577800000      2.2465040000      0.5938630000
C                 -3.9546380000      3.4389500000     -0.3797910000
C                 -5.1633180000      1.4404170000      0.5955410000
H                  0.7645720000     -1.6999240000     -1.0918440000
H                  1.5582010000     -1.1447510000      0.4043050000
H                  1.7822480000     -0.2366700000     -1.0836820000
H                 -3.7123920000      2.6712450000      1.5928170000
H                 -4.8077990000      4.0809440000     -0.1278890000
H                 -4.0850100000      3.0869150000     -1.4091600000
H                 -3.0462130000      4.0415950000     -0.3301110000
H                 -5.9988540000      2.0766060000      0.9082870000
H                 -5.1072590000      0.5900850000      1.2812140000
H                 -5.4044740000      1.0508540000     -0.3990170000
$end
$rem
MAX_SCF_CYCLES=200
BASIS  =  6-311++G(d,p)
GUI  =  2
JOB_TYPE  =  SP
METHOD  =  B3LYP
SOLVENT_METHOD = PCM
$end
$pcm
theory = CPCM
$end
$solvent
dielectric 37.219
opticaldielectric 1.43
$end

--------------------------------------------------------------

             Standard Nuclear Orientation (Angstroms)
    I     Atom           X                Y                Z
 ----------------------------------------------------------------
    1      C      -1.3521190000     1.9580320000     0.8177640000
    2      C      -2.6146170000     1.4194430000     0.3065330000
    3      C      -2.6346080000     0.2507450000    -0.4046360000
    4      C      -1.4583250000    -0.5296930000    -0.7082430000
    5      C      -0.1779950000    -0.0157950000    -0.2062360000
    6      C      -0.1792830000     1.1575160000     0.5071200000
    7      O      -1.5289840000    -1.6023400000    -1.3718470000
    8      H      -3.5646230000    -0.1596090000    -0.7846170000
    9      O      -1.3077570000     3.0297420000     1.4737090000
   10      I       1.6478890000     1.9679480000     1.2759600000
   11      C       1.0539380000    -0.8225870000    -0.5129790000
   12      C      -3.8577800000     2.2465040000     0.5938630000
   13      C      -3.9546380000     3.4389500000    -0.3797910000
   14      C      -5.1633180000     1.4404170000     0.5955410000
   15      H       0.7645720000    -1.6999240000    -1.0918440000
   16      H       1.5582010000    -1.1447510000     0.4043050000
   17      H       1.7822480000    -0.2366700000    -1.0836820000
   18      H      -3.7123920000     2.6712450000     1.5928170000
   19      H      -4.8077990000     4.0809440000    -0.1278890000
   20      H      -4.0850100000     3.0869150000    -1.4091600000
   21      H      -3.0462130000     4.0415950000    -0.3301110000
   22      H      -5.9988540000     2.0766060000     0.9082870000
   23      H      -5.1072590000     0.5900850000     1.2812140000
   24      H      -5.4044740000     1.0508540000    -0.3990170000
 ----------------------------------------------------------------

    9   -7457.9464786735      5.68e-06  Convergence criterion met
 Total energy in the final basis set =    -7457.9464786735

                    Orbital Energies (a.u.)
 --------------------------------------------------------------

 Alpha MOs
 -- Occupied --
********-176.2864-165.6899-165.6882-165.6880 -35.7828 -31.2753 -31.2705
-31.2700 -22.9260 -22.9250 -22.9247 -22.9212 -22.9212 -19.0821 -19.0819
-10.2292 -10.2244 -10.2056 -10.1834 -10.1737 -10.1697 -10.1591 -10.1563
-10.1503 -10.1501  -6.3321  -4.7429  -4.7309  -4.7299  -2.0090  -2.0052
 -2.0047  -1.9942  -1.9940  -1.0088  -1.0039  -0.8379  -0.8023  -0.7500
 -0.7106  -0.6782  -0.6672  -0.6409  -0.5965  -0.5569  -0.5362  -0.4949
 -0.4647  -0.4418  -0.4321  -0.4293  -0.4182  -0.4089  -0.4015  -0.3844
 -0.3826  -0.3780  -0.3764  -0.3704  -0.3500  -0.3357  -0.3332  -0.3221
 -0.2947  -0.2707  -0.2612  -0.2496  -0.2381  -0.2367  -0.1644

 Beta MOs
 -- Occupied --
********-176.2864-165.6899-165.6881-165.6880 -35.7828 -31.2754 -31.2704
-31.2700 -22.9260 -22.9249 -22.9247 -22.9212 -22.9212 -19.0756 -19.0752
-10.2275 -10.2229 -10.2048 -10.1817 -10.1725 -10.1698 -10.1583 -10.1565
-10.1503 -10.1500  -6.3321  -4.7430  -4.7309  -4.7299  -2.0090  -2.0052
 -2.0047  -1.9941  -1.9940  -0.9977  -0.9918  -0.8324  -0.8005  -0.7480
 -0.7058  -0.6777  -0.6612  -0.6391  -0.5939  -0.5531  -0.5335  -0.4927
 -0.4612  -0.4391  -0.4297  -0.4209  -0.4139  -0.4056  -0.3965  -0.3813
 -0.3762  -0.3755  -0.3686  -0.3528  -0.3464  -0.3345  -0.3316  -0.3209
 -0.2827  -0.2601  -0.2487  -0.2436  -0.2329  -0.2309

          Ground-State Mulliken Net Atomic Charges

     Atom                 Charge (a.u.)    Spin (a.u.)
  --------------------------------------------------------
      1 C                    -0.935145       0.106488
      2 C                     1.000779       0.083667
      3 C                    -0.342248       0.039886
      4 C                    -0.972820       0.112830
      5 C                     0.977917       0.150709
      6 C                     0.047386       0.012901
      7 O                    -0.498448       0.245155
      8 H                     0.181790      -0.005702
      9 O                    -0.417031       0.231654
     10 I                    -0.083531       0.000714
     11 C                    -0.393868      -0.000392
     12 C                     0.128718       0.000771
     13 C                    -0.722654       0.010213
     14 C                    -0.589897       0.001004
     15 H                     0.179359      -0.001924
     16 H                     0.160249       0.005464
     17 H                     0.158833       0.005379
     18 H                     0.194955       0.002614
     19 H                     0.145766       0.001974
     20 H                     0.149256      -0.001080
     21 H                     0.171149      -0.001695
     22 H                     0.173981      -0.000364
     23 H                     0.138482      -0.000127
     24 H                     0.147021      -0.000137
  --------------------------------------------------------
  Sum of atomic charges =    -1.000000

                    Cartesian Multipole Moments
 -----------------------------------------------------------------
    Charge (ESU x 10^10)
                -4.8032
    Dipole Moment (Debye)
         X       4.1486      Y      -4.2703      Z      -1.1228
       Tot       6.0587
    Quadrupole Moments (Debye-Ang)
        XX    -109.7933     XY      -2.4084     YY    -137.0528
        XZ      -3.0321     YZ     -18.4484     ZZ    -116.8622

 Total job time:  40.43s(wall), 288.33s(cpu)
        *  Thank you very much for using Q-Chem.  Have a nice day.  *
