 Q-Chem 5.4, Q-Chem, Inc., Pleasanton, CA (2021)
 Q-Chem 5.4.0 for Intel X86 EM64T Linux

User input:
--------------------------------------------------------------
$molecule
0 1
C                 -1.3791820000      1.8895790000     -4.2654010000
C                 -1.3403730000      0.5042610000     -4.3356110000
C                 -1.0592070000     -0.2491370000     -3.1897280000
C                 -1.1373920000      2.5401110000     -3.0483200000
C                 -0.8558980000      1.7858270000     -1.9011150000
C                 -0.8184950000      0.3873960000     -1.9804820000
C                 -1.1828260000      4.0216790000     -2.9940460000
C                 -0.5974950000      2.4475620000     -0.5998030000
C                 -0.9281930000      4.6844710000     -1.7136340000
C                 -0.6433780000      3.9098210000     -0.5343840000
C                 -0.9646970000      6.1061770000     -1.6451040000
C                 -0.7086410000      6.7169510000     -0.3859030000
C                 -0.4388050000      5.9811000000      0.7336770000
C                 -0.3990300000      4.5595880000      0.7080250000
O                 -1.4349430000      4.6506300000     -4.0370570000
O                 -0.3497580000      1.7392130000      0.3927720000
H                 -1.5943390000      2.4935720000     -5.1376070000
H                 -1.5282860000      0.0049500000     -5.2795970000
H                 -1.0295920000     -1.3315330000     -3.2467150000
H                 -0.5994140000     -0.1735120000     -1.0809200000
H                 -0.2514590000      6.4993290000      1.6648970000
H                 -0.7268610000      7.7960500000     -0.3079440000
N                 -1.2302780000      6.8817240000     -2.7293760000
C                 -1.2836430000      8.3273580000     -2.7206860000
H                 -1.4008100000      6.3634930000     -3.5872460000
H                 -0.3262210000      8.7768790000     -2.4304610000
H                 -2.0611240000      8.7104780000     -2.0486410000
H                 -1.5185590000      8.6639940000     -3.7301560000
N                 -0.1347030000      3.8689380000      1.8511070000
C                  0.1549870000      4.4660960000      3.1385770000
C                  0.3181840000      3.3715700000      4.1953380000
O                  0.5874790000      3.9178580000      5.4807460000
H                 -0.1039110000      2.8576060000      1.7281950000
H                 -0.6523300000      5.1355560000      3.4583730000
H                  1.0773600000      5.0660090000      3.0967380000
H                  1.1027510000      2.6672140000      3.8898930000
H                 -0.6129420000      2.8105530000      4.2955810000
H                  1.4793550000      4.2795580000      5.4867470000
$end

$rem
BASIS  =  6-311++G(d,p)
GUI  =  2
JOB_TYPE  =  SP
METHOD  =  B3LYP
SCF_CONVERGENCE  = 8
SOLVENT_METHOD = sm12
$end

$smx
solvent dimethylformamide
charges CM5
$end

--------------------------------------------------------------

             Standard Nuclear Orientation (Angstroms)
    I     Atom           X                Y                Z
 ----------------------------------------------------------------
    1      C      -1.3791820000     1.8895790000    -4.2654010000
    2      C      -1.3403730000     0.5042610000    -4.3356110000
    3      C      -1.0592070000    -0.2491370000    -3.1897280000
    4      C      -1.1373920000     2.5401110000    -3.0483200000
    5      C      -0.8558980000     1.7858270000    -1.9011150000
    6      C      -0.8184950000     0.3873960000    -1.9804820000
    7      C      -1.1828260000     4.0216790000    -2.9940460000
    8      C      -0.5974950000     2.4475620000    -0.5998030000
    9      C      -0.9281930000     4.6844710000    -1.7136340000
   10      C      -0.6433780000     3.9098210000    -0.5343840000
   11      C      -0.9646970000     6.1061770000    -1.6451040000
   12      C      -0.7086410000     6.7169510000    -0.3859030000
   13      C      -0.4388050000     5.9811000000     0.7336770000
   14      C      -0.3990300000     4.5595880000     0.7080250000
   15      O      -1.4349430000     4.6506300000    -4.0370570000
   16      O      -0.3497580000     1.7392130000     0.3927720000
   17      H      -1.5943390000     2.4935720000    -5.1376070000
   18      H      -1.5282860000     0.0049500000    -5.2795970000
   19      H      -1.0295920000    -1.3315330000    -3.2467150000
   20      H      -0.5994140000    -0.1735120000    -1.0809200000
   21      H      -0.2514590000     6.4993290000     1.6648970000
   22      H      -0.7268610000     7.7960500000    -0.3079440000
   23      N      -1.2302780000     6.8817240000    -2.7293760000
   24      C      -1.2836430000     8.3273580000    -2.7206860000
   25      H      -1.4008100000     6.3634930000    -3.5872460000
   26      H      -0.3262210000     8.7768790000    -2.4304610000
   27      H      -2.0611240000     8.7104780000    -2.0486410000
   28      H      -1.5185590000     8.6639940000    -3.7301560000
   29      N      -0.1347030000     3.8689380000     1.8511070000
   30      C       0.1549870000     4.4660960000     3.1385770000
   31      C       0.3181840000     3.3715700000     4.1953380000
   32      O       0.5874790000     3.9178580000     5.4807460000
   33      H      -0.1039110000     2.8576060000     1.7281950000
   34      H      -0.6523300000     5.1355560000     3.4583730000
   35      H       1.0773600000     5.0660090000     3.0967380000
   36      H       1.1027510000     2.6672140000     3.8898930000
   37      H      -0.6129420000     2.8105530000     4.2955810000
   38      H       1.4793550000     4.2795580000     5.4867470000
 ----------------------------------------------------------------

   15    -992.9091650841      5.74e-09  Convergence criterion met
 Total energy in the final basis set =     -992.9405571483

                    Orbital Energies (a.u.)
 --------------------------------------------------------------

 Alpha MOs
 -- Occupied --
-19.1295 -19.1115 -19.1107 -14.3370 -14.3359 -10.2644 -10.2637 -10.2400
-10.2389 -10.2232 -10.2112 -10.2010 -10.1977 -10.1973 -10.1972 -10.1966
-10.1962 -10.1955 -10.1911 -10.1906 -10.1887 -10.1886  -1.0451  -1.0430
 -1.0312  -0.9566  -0.9498  -0.8810  -0.8579  -0.8061  -0.7772  -0.7694
 -0.7665  -0.7328  -0.6944  -0.6828  -0.6606  -0.6472  -0.6296  -0.6082
 -0.5903  -0.5542  -0.5509  -0.5345  -0.5233  -0.5110  -0.4987  -0.4849
 -0.4820  -0.4777  -0.4692  -0.4554  -0.4544  -0.4428  -0.4416  -0.4386
 -0.4382  -0.4260  -0.4171  -0.4104  -0.4022  -0.4010  -0.3974  -0.3874
 -0.3799  -0.3704  -0.3618  -0.3594  -0.3443  -0.3311  -0.2891  -0.2840
 -0.2759  -0.2727  -0.2704  -0.2634  -0.2620  -0.1943

          Ground-State Mulliken Net Atomic Charges

     Atom                 Charge (a.u.)
  ----------------------------------------
      1 C                    -0.048747
      2 C                     0.185255
      3 C                     0.227395
      4 C                    -0.512638
      5 C                    -0.492004
      6 C                    -0.091969
      7 C                    -1.431806
      8 C                    -1.174053
      9 C                    -0.143668
     10 C                     0.015979
     11 C                    -0.865924
     12 C                     1.335021
     13 C                     1.295612
     14 C                    -1.063386
     15 O                    -0.288570
     16 O                    -0.259135
     17 H                     0.184990
     18 H                     0.311946
     19 H                     0.314390
     20 H                     0.176888
     21 H                     0.389408
     22 H                     0.391625
     23 N                    -0.375344
     24 C                    -0.098228
     25 H                     0.333373
     26 H                     0.218778
     27 H                     0.218387
     28 H                     0.238984
     29 N                    -0.128196
     30 C                     0.144475
     31 C                    -0.180487
     32 O                    -0.289901
     33 H                     0.441521
     34 H                     0.194299
     35 H                     0.220593
     36 H                     0.181616
     37 H                     0.155543
     38 H                     0.267976
  ----------------------------------------
  Sum of atomic charges =     0.000000

                    Cartesian Multipole Moments
 -----------------------------------------------------------------
    Charge (ESU x 10^10)
                 0.0000
    Dipole Moment (Debye)
         X       1.4942      Y       3.9844      Z       0.9207
       Tot       4.3538
    Quadrupole Moments (Debye-Ang)
        XX    -129.8127     XY       4.6335     YY     -71.5935
        XZ       7.3309     YZ       9.0824     ZZ    -135.9543

 Total job time:  1352.31s(wall), 10469.29s(cpu)
        *  Thank you very much for using Q-Chem.  Have a nice day.  *
