 Q-Chem 5.4, Q-Chem, Inc., Pleasanton, CA (2021)
 Q-Chem 5.4.0 for Intel X86 EM64T Linux

User input:
--------------------------------------------------------------
$molecule
0 1
C                  5.7363340000     -5.2387200000      1.1146010000
C                  6.6835370000     -5.1124060000      0.1025660000
C                  6.5612920000     -4.0831570000     -0.8442830000
C                  4.6669560000     -4.3486860000      1.1929840000
C                  4.5460430000     -3.3210990000      0.2468140000
C                  5.4929460000     -3.1939190000     -0.7658820000
C                  3.6637750000     -4.5044140000      2.2871460000
C                  2.5272620000     -3.5295130000      2.3410320000
C                  2.4354750000     -2.5517060000      1.4193660000
C                  3.4046760000     -2.3621340000      0.3213130000
O                  3.7569490000     -5.3927130000      3.1167180000
O                  3.2694770000     -1.4564600000     -0.4854780000
H                  5.8188960000     -6.0275960000      1.8506100000
H                  5.3848180000     -2.3953370000     -1.4881360000
Br                 8.1160290000     -6.3658610000      0.0603810000
Br                 7.8164230000     -3.8478010000     -2.2557310000
C                  1.5391380000     -3.7144060000      3.4512510000
H                  1.6217990000     -1.8336030000      1.4373490000
H                  2.0387090000     -3.6577200000      4.4222560000
H                  1.0858500000     -4.7081460000      3.3991180000
H                  0.7535880000     -2.9595350000      3.4076430000
$end

$rem
BASIS  =  6-311++G(d,p)
GUI  =  2
JOB_TYPE  =  SP
METHOD  =  B3LYP
SCF_CONVERGENCE  = 8
SOLVENT_METHOD = sm12
$end

$smx
solvent dimethylformamide
charges CM5
$end

--------------------------------------------------------------

             Standard Nuclear Orientation (Angstroms)
    I     Atom           X                Y                Z
 ----------------------------------------------------------------
    1      C       5.7363340000    -5.2387200000     1.1146010000
    2      C       6.6835370000    -5.1124060000     0.1025660000
    3      C       6.5612920000    -4.0831570000    -0.8442830000
    4      C       4.6669560000    -4.3486860000     1.1929840000
    5      C       4.5460430000    -3.3210990000     0.2468140000
    6      C       5.4929460000    -3.1939190000    -0.7658820000
    7      C       3.6637750000    -4.5044140000     2.2871460000
    8      C       2.5272620000    -3.5295130000     2.3410320000
    9      C       2.4354750000    -2.5517060000     1.4193660000
   10      C       3.4046760000    -2.3621340000     0.3213130000
   11      O       3.7569490000    -5.3927130000     3.1167180000
   12      O       3.2694770000    -1.4564600000    -0.4854780000
   13      H       5.8188960000    -6.0275960000     1.8506100000
   14      H       5.3848180000    -2.3953370000    -1.4881360000
   15      Br      8.1160290000    -6.3658610000     0.0603810000
   16      Br      7.8164230000    -3.8478010000    -2.2557310000
   17      C       1.5391380000    -3.7144060000     3.4512510000
   18      H       1.6217990000    -1.8336030000     1.4373490000
   19      H       2.0387090000    -3.6577200000     4.4222560000
   20      H       1.0858500000    -4.7081460000     3.3991180000
   21      H       0.7535880000    -2.9595350000     3.4076430000
 ----------------------------------------------------------------

   15   -5721.6628600329      8.13e-09  Convergence criterion met
 Total energy in the final basis set =    -5721.6814815570

                    Orbital Energies (a.u.)
 --------------------------------------------------------------

 Alpha MOs
 -- Occupied --
********-482.8515 -62.5046 -62.5044 -56.3252 -56.3250 -56.3212 -56.3210
-56.3209 -56.3207 -19.1429 -19.1384 -10.2910 -10.2882 -10.2715 -10.2709
-10.2251 -10.2242 -10.2233 -10.2209 -10.2206 -10.2082 -10.1757  -8.7134
 -8.7132  -6.5453  -6.5451  -6.5319  -6.5317  -6.5311  -6.5309  -2.6561
 -2.6560  -2.6524  -2.6521  -2.6520  -2.6516  -2.6412  -2.6411  -2.6410
 -2.6409  -1.0762  -1.0705  -0.9240  -0.8680  -0.8353  -0.8340  -0.7795
 -0.7669  -0.7298  -0.6887  -0.6593  -0.6304  -0.6000  -0.5517  -0.5279
 -0.5185  -0.4792  -0.4748  -0.4709  -0.4689  -0.4623  -0.4348  -0.4336
 -0.4224  -0.4186  -0.4055  -0.4019  -0.3946  -0.3882  -0.3412  -0.3406
 -0.3267  -0.3001  -0.2992  -0.2946  -0.2832  -0.2812  -0.2712

          Ground-State Mulliken Net Atomic Charges

     Atom                 Charge (a.u.)
  ----------------------------------------
      1 C                    -0.122742
      2 C                    -0.015907
      3 C                    -0.132439
      4 C                    -0.097754
      5 C                     0.739133
      6 C                    -0.216890
      7 C                    -0.931198
      8 C                     1.418029
      9 C                     0.058373
     10 C                    -1.498508
     11 O                    -0.264424
     12 O                    -0.315334
     13 H                     0.237347
     14 H                     0.221743
     15 Br                   -0.188098
     16 Br                   -0.203835
     17 C                     0.403873
     18 H                     0.258617
     19 H                     0.193165
     20 H                     0.193475
     21 H                     0.263372
  ----------------------------------------
  Sum of atomic charges =     0.000000

                    Cartesian Multipole Moments
 -----------------------------------------------------------------
    Charge (ESU x 10^10)
                 0.0000
    Dipole Moment (Debye)
         X      -1.5320      Y      -0.0435      Z       1.4673
       Tot       2.1218
    Quadrupole Moments (Debye-Ang)
        XX    -118.0642     XY       5.5080     YY    -118.5311
        XZ      -1.0787     YZ       2.2139     ZZ    -111.1120

 Total job time:  345.45s(wall), 2589.87s(cpu)
        *  Thank you very much for using Q-Chem.  Have a nice day.  *
