 Gaussian 16, Revision A.03,
 Gaussian 16:  ES64L-G16RevA.03 25-Dec-2016

 ----------------------------------------------------------------------
 #P UB3LYP/6-311++G(d,p) nosym opt freq SCRF=(PCM,Solvent=n,n-DiMethylF
 ormamide)
 ----------------------------------------------------------------------

 -------
 Radical
 -------
 Symbolic Z-matrix:
 Charge = -1 Multiplicity = 2

 SCF Done:  E(UB3LYP) =  -764.501406055     A.U. after   18 cycles
 SCF Done:  E(UB3LYP) =  -764.501996682     A.U. after   13 cycles
 SCF Done:  E(UB3LYP) =  -764.502142643     A.U. after   13 cycles
 SCF Done:  E(UB3LYP) =  -764.502164118     A.U. after   11 cycles
 SCF Done:  E(UB3LYP) =  -764.502171380     A.U. after   11 cycles
 SCF Done:  E(UB3LYP) =  -764.502171977     A.U. after   10 cycles
 SCF Done:  E(UB3LYP) =  -764.502172131     A.U. after    9 cycles
 SCF Done:  E(UB3LYP) =  -764.502172160     A.U. after    9 cycles
 Optimization completed.
    -- Stationary point found.
 Normal termination of Gaussian 16 at Sun Feb 11 01:41:58 2024.

 ----------------------------------------------------------------------
 #P Geom=AllCheck Guess=TCheck SCRF=Check GenChk UB3LYP/6-311++G(d,p) F
 req
 ----------------------------------------------------------------------

 Structure from the checkpoint file:  "261-rad.chk"
 -------
 Radical
 -------
 Charge = -1 Multiplicity = 2

                          Input orientation:
 ---------------------------------------------------------------------
 Center     Atomic      Atomic             Coordinates (Angstroms)
 Number     Number       Type             X           Y           Z
 ---------------------------------------------------------------------
      1          6           0        2.877990    2.541518   -0.348432
      2          8           0        2.556401    1.158600   -0.238093
      3          6           0        1.240312    0.795201   -0.163552
      4          6           0        0.231538    1.743442   -0.190502
      5          6           0       -1.112866    1.366441   -0.115681
      6          6           0       -1.474984    0.033579   -0.016265
      7          8           0       -2.787698   -0.340103    0.058929
      8          6           0       -3.789120    0.672141    0.038135
      9          6           0       -0.470400   -0.987465    0.012426
     10          6           0       -0.838963   -2.418673    0.111091
     11          8           0       -2.030599   -2.845570    0.165107
     12          6           0        0.243809   -3.360015    0.144440
     13          6           0        1.556942   -2.990847    0.085997
     14          6           0        1.984597   -1.624832   -0.016475
     15          8           0        3.223993   -1.367367   -0.063869
     16          6           0        0.919253   -0.597199   -0.057395
     17          1           0        3.965143    2.585797   -0.394856
     18          1           0        2.530624    3.108475    0.521627
     19          1           0        2.459628    2.982932   -1.259099
     20          1           0        0.463176    2.795614   -0.269324
     21          1           0       -1.863136    2.143353   -0.137734
     22          1           0       -4.739123    0.144669    0.110865
     23          1           0       -3.690398    1.356374    0.887355
     24          1           0       -3.765583    1.245868   -0.894269
     25          1           0       -0.037263   -4.406261    0.219918
     26          1           0        2.346728   -3.735673    0.115329
 ---------------------------------------------------------------------

 SCF Done:  E(UB3LYP) =  -764.502172160     A.U. after    1 cycles

 Alpha  occ. eigenvalues --  -19.14616 -19.14613 -19.06640 -19.06635 -10.23125
 Alpha  occ. eigenvalues --  -10.23123 -10.21919 -10.21910 -10.21632 -10.21630
 Alpha  occ. eigenvalues --  -10.18100 -10.18062 -10.16915 -10.16862 -10.15694
 Alpha  occ. eigenvalues --  -10.15627  -1.06265  -1.06174  -0.98993  -0.98745
 Alpha  occ. eigenvalues --   -0.85228  -0.80029  -0.75996  -0.74706  -0.70913
 Alpha  occ. eigenvalues --   -0.68187  -0.67084  -0.61613  -0.60539  -0.55948
 Alpha  occ. eigenvalues --   -0.52119  -0.51691  -0.49587  -0.49144  -0.46810
 Alpha  occ. eigenvalues --   -0.46356  -0.45760  -0.44318  -0.43387  -0.41606
 Alpha  occ. eigenvalues --   -0.41067  -0.40693  -0.40117  -0.39345  -0.37315
 Alpha  occ. eigenvalues --   -0.36669  -0.36645  -0.35824  -0.34099  -0.33602
 Alpha  occ. eigenvalues --   -0.32894  -0.29487  -0.27122  -0.25265  -0.22855
 Alpha  occ. eigenvalues --   -0.22518  -0.21304  -0.14591
 Alpha virt. eigenvalues --   -0.01896  -0.01476  -0.00406   0.00632   0.00802
 Alpha virt. eigenvalues --    0.02341   0.02602   0.02962   0.03119   0.04322
 Alpha virt. eigenvalues --    0.04540   0.05194   0.05406   0.05551   0.06584

  Beta  occ. eigenvalues --  -19.14604 -19.14601 -19.05991 -19.05986 -10.23114
  Beta  occ. eigenvalues --  -10.23111 -10.21787 -10.21778 -10.21632 -10.21630
  Beta  occ. eigenvalues --  -10.18062 -10.18023 -10.16848 -10.16795 -10.15558
  Beta  occ. eigenvalues --  -10.15490  -1.06231  -1.06142  -0.97879  -0.97598
  Beta  occ. eigenvalues --   -0.85028  -0.79498  -0.75886  -0.74518  -0.70864
  Beta  occ. eigenvalues --   -0.67971  -0.66291  -0.61274  -0.60336  -0.55836
  Beta  occ. eigenvalues --   -0.51988  -0.51547  -0.49436  -0.48918  -0.46721
  Beta  occ. eigenvalues --   -0.46306  -0.45527  -0.44048  -0.43350  -0.41317
  Beta  occ. eigenvalues --   -0.40651  -0.40068  -0.40032  -0.38819  -0.36289
  Beta  occ. eigenvalues --   -0.35704  -0.35654  -0.35571  -0.33559  -0.32895
  Beta  occ. eigenvalues --   -0.32815  -0.29160  -0.24674  -0.24183  -0.22262
  Beta  occ. eigenvalues --   -0.21944  -0.20529
  Beta virt. eigenvalues --   -0.08158  -0.00643  -0.00416  -0.00397   0.00638
  Beta virt. eigenvalues --    0.00822   0.02354   0.02633   0.02981   0.03145
  Beta virt. eigenvalues --    0.04333   0.04564   0.05209   0.05572   0.05790

 Mulliken charges and spin densities:
               1          2
     1  C   -0.298375  -0.000875
     2  O   -0.162874   0.001124
     3  C   -0.133830   0.050200
     4  C   -0.140039   0.061463
     5  C   -0.140326   0.061500
     6  C   -0.132814   0.050210
     7  O   -0.162401   0.001126
     8  C   -0.298297  -0.000866
     9  C    0.075664   0.019375
    10  C   -0.057063   0.058908
    11  O   -0.515651   0.237137
    12  C   -0.149156   0.084569
    13  C   -0.150138   0.084527
    14  C   -0.054689   0.058971
    15  O   -0.515500   0.237060
    16  C    0.073356   0.019164
    17  H    0.196310  -0.000383
    18  H    0.154259   0.000775
    19  H    0.153844   0.000783
    20  H    0.200662  -0.003528
    21  H    0.200343  -0.003534
    22  H    0.196227  -0.000382
    23  H    0.154073   0.000771
    24  H    0.154160   0.000781
    25  H    0.176039  -0.009431
    26  H    0.176214  -0.009445
 Sum of Mulliken charges =  -1.00000   1.00000

 Dipole moment (field-independent basis, Debye):
    X=             -3.8160    Y=             13.4564    Z=             -0.4206  Tot=             13.9933
 Quadrupole moment (field-independent basis, Debye-Ang):
   XX=           -128.1240   YY=           -110.3755   ZZ=            -98.4801
   XY=             -5.4225   XZ=              1.1702   YZ=             -0.0680

  Exact polarizability: 341.648   5.833 320.940  -6.884 -12.648 130.010
 Approx polarizability: 386.840  13.896 339.627  -8.090 -13.027 146.446

                      1                      2                      3
                      A                      A                      A
 Frequencies --     36.1536                46.8688                74.6473
 Red. masses --      5.7482                 4.7934                 4.0271
 Frc consts  --      0.0044                 0.0062                 0.0132
 IR Inten    --     10.6036                12.1674                 2.2587

                      4                      5                      6
                      A                      A                      A
 Frequencies --    103.5955               113.5334               204.2796
 Red. masses --      4.0285                 4.1377                 3.3102
 Frc consts  --      0.0255                 0.0314                 0.0814
 IR Inten    --      0.5269                 3.1605                 3.7648

                      7                      8                      9
                      A                      A                      A
 Frequencies --    212.9213               237.1990               255.0636
 Red. masses --      5.3266                 5.8804                 1.0912
 Frc consts  --      0.1423                 0.1949                 0.0418
 IR Inten    --     11.8210                 1.4994                 0.0080

                     10                     11                     12
                      A                      A                      A
 Frequencies --    280.0338               307.5937               338.4360
 Red. masses --      1.1323                 5.0358                 6.8249
 Frc consts  --      0.0523                 0.2807                 0.4606
 IR Inten    --      0.9630                 0.0035                 8.1466

                     13                     14                     15
                      A                      A                      A
 Frequencies --    346.7928               354.6460               384.4127
 Red. masses --      6.0798                 4.5528                10.1677
 Frc consts  --      0.4308                 0.3374                 0.8853
 IR Inten    --      7.8462                 1.5825                 8.6819

                     16                     17                     18
                      A                      A                      A
 Frequencies --    390.2971               451.0960               487.4874
 Red. masses --      4.4900                10.5912                 4.8015
 Frc consts  --      0.4030                 1.2698                 0.6723
 IR Inten    --      0.0715                12.6436                 0.0123

                     19                     20                     21
                      A                      A                      A
 Frequencies --    504.6794               525.7913               550.5484
 Red. masses --      6.8277                 5.1495                 2.8504
 Frc consts  --      1.0246                 0.8388                 0.5090
 IR Inten    --      1.8433                 0.3240                 0.5004

                     22                     23                     24
                      A                      A                      A
 Frequencies --    643.0689               675.8622               676.1896
 Red. masses --      5.9619                 4.3283                 2.4538
 Frc consts  --      1.4526                 1.1649                 0.6610
 IR Inten    --      6.5739                 1.4404                27.1535

                     25                     26                     27
                      A                      A                      A
 Frequencies --    687.5522               736.4349               760.5133
 Red. masses --      5.1901                 6.2285                 5.7768
 Frc consts  --      1.4456                 1.9902                 1.9686
 IR Inten    --      0.0111                80.8028                20.0509

                     28                     29                     30
                      A                      A                      A
 Frequencies --    797.1518               800.1990               835.8797
 Red. masses --      9.2821                 1.5922                 2.1174
 Frc consts  --      3.4752                 0.6007                 0.8716
 IR Inten    --      0.0156                52.3772                93.8996

                     31                     32                     33
                      A                      A                      A
 Frequencies --    871.6284               894.6915               923.7309
 Red. masses --      7.5270                 1.3647                 6.5964
 Frc consts  --      3.3693                 0.6436                 3.3162
 IR Inten    --    104.7929                 0.0033                 0.4018

                     34                     35                     36
                      A                      A                      A
 Frequencies --    945.4802              1042.8048              1068.4424
 Red. masses --      1.2794                 5.6329                 9.0636
 Frc consts  --      0.6739                 3.6090                 6.0961
 IR Inten    --      0.0014               240.7014               256.4492

                     37                     38                     39
                      A                      A                      A
 Frequencies --   1112.2750              1133.6212              1162.4513
 Red. masses --      1.9979                 3.2545                 1.2761
 Frc consts  --      1.4563                 2.4642                 1.0160
 IR Inten    --     19.1018               225.9538                 0.0303

                     40                     41                     42
                      A                      A                      A
 Frequencies --   1162.7200              1181.1969              1203.9078
 Red. masses --      1.2770                 1.4435                 1.3751
 Frc consts  --      1.0171                 1.1866                 1.1742
 IR Inten    --      2.8157                 8.7209                 2.1655

                     43                     44                     45
                      A                      A                      A
 Frequencies --   1205.6273              1217.5530              1261.3229
 Red. masses --      1.4142                 3.1826                 2.8501
 Frc consts  --      1.2111                 2.7798                 2.6716
 IR Inten    --     96.7796                 1.9084               444.6004

                     46                     47                     48
                      A                      A                      A
 Frequencies --   1263.2966              1306.1169              1307.4341
 Red. masses --      3.3739                 9.0725                 2.2649
 Frc consts  --      3.1725                 9.1188                 2.2811
 IR Inten    --     60.0286                27.7087                 5.4905

                     49                     50                     51
                      A                      A                      A
 Frequencies --   1378.2316              1415.9348              1432.4703
 Red. masses --      4.6077                 5.0779                 2.3314
 Frc consts  --      5.1568                 5.9982                 2.8186
 IR Inten    --     60.9473               536.7745                37.9894

                     52                     53                     54
                      A                      A                      A
 Frequencies --   1472.9166              1474.8142              1482.5136
 Red. masses --      1.1867                 1.2654                 7.4608
 Frc consts  --      1.5169                 1.6216                 9.6613
 IR Inten    --      2.7990               114.8539                38.4513

                     55                     56                     57
                      A                      A                      A
 Frequencies --   1483.9197              1484.1351              1497.4020
 Red. masses --      1.0461                 1.0465                 1.0779
 Frc consts  --      1.3572                 1.3581                 1.4240
 IR Inten    --     19.0434                 4.7666               225.2472

                     58                     59                     60
                      A                      A                      A
 Frequencies --   1498.5073              1524.6191              1567.3349
 Red. masses --      1.1041                 3.9107                 4.9635
 Frc consts  --      1.4607                 5.3559                 7.1840
 IR Inten    --     33.6901              1393.0527               315.9304

                     61                     62                     63
                      A                      A                      A
 Frequencies --   1604.5897              1635.2212              3003.7972
 Red. masses --      5.3263                 7.1191                 1.0339
 Frc consts  --      8.0798                11.2157                 5.4963
 IR Inten    --     96.5766                 3.2807                67.8225

                     64                     65                     66
                      A                      A                      A
 Frequencies --   3004.6648              3063.1729              3063.3322
 Red. masses --      1.0341                 1.1061                 1.1061
 Frc consts  --      5.5003                 6.1149                 6.1156
 IR Inten    --    149.0784                51.8992                71.7725

                     67                     68                     69
                      A                      A                      A
 Frequencies --   3127.9759              3128.4262              3143.4515
 Red. masses --      1.0995                 1.0994                 1.0854
 Frc consts  --      6.3381                 6.3393                 6.3192
 IR Inten    --     43.3171                28.6317                38.7834

                     70                     71                     72
                      A                      A                      A
 Frequencies --   3163.4537              3209.5386              3223.5146
 Red. masses --      1.0952                 1.0867                 1.0927
 Frc consts  --      6.4576                 6.5957                 6.6896
 IR Inten    --     43.9657                16.5204                 6.7804

 - Thermochemistry -
 -------------------
 Temperature   298.150 Kelvin.  Pressure   1.00000 Atm.
 Atom     1 has atomic number  6 and mass  12.00000

 Molecular mass:   218.05791 amu.
 Principal axes and moments of inertia in atomic units:
                           1         2         3
     Eigenvalues --  2509.391623578.776626064.94650
           X            0.96142  -0.27296   0.03418
           Y            0.27036   0.96051   0.06578
           Z           -0.05079  -0.05400   0.99725
 This molecule is an asymmetric top.
 Rotational symmetry number  1.
 Warning -- assumption of classical behavior for rotation
           may cause significant error
 Rotational temperatures (Kelvin)      0.03452     0.02420     0.01428
 Rotational constants (GHZ):           0.71919     0.50429     0.29757
 Zero-point vibrational energy     509412.8 (Joules/Mol)
                                  121.75258 (Kcal/Mol)
 Warning -- explicit consideration of  21 degrees of freedom as
           vibrations may cause significant error
 Vibrational temperatures:     52.02    67.43   107.40   149.05   163.35
          (Kelvin)            293.91   306.35   341.28   366.98   402.91
                              442.56   486.93   498.96   510.26   553.08
                              561.55   649.03   701.39   726.12   756.50
                              792.12   925.23   972.41   972.89   989.23
                             1059.57  1094.21  1146.92  1151.31  1202.64
                             1254.08  1287.26  1329.04  1360.34  1500.36
                             1537.25  1600.32  1631.03  1672.51  1672.89
                             1699.48  1732.15  1734.63  1751.79  1814.76
                             1817.60  1879.21  1881.11  1982.97  2037.21
                             2061.01  2119.20  2121.93  2133.01  2135.03
                             2135.34  2154.43  2156.02  2193.59  2255.05
                             2308.65  2352.72  4321.79  4323.04  4407.22
                             4407.45  4500.46  4501.11  4522.73  4551.50
                             4617.81  4637.92

 Zero-point correction=                           0.194025 (Hartree/Particle)
 Thermal correction to Energy=                    0.208028
 Thermal correction to Enthalpy=                  0.208972
 Thermal correction to Gibbs Free Energy=         0.151947
 Sum of electronic and zero-point Energies=           -764.308147
 Sum of electronic and thermal Energies=              -764.294144
 Sum of electronic and thermal Enthalpies=            -764.293200
 Sum of electronic and thermal Free Energies=         -764.350226

                     E (Thermal)             CV                S
                      KCal/Mol        Cal/Mol-Kelvin    Cal/Mol-Kelvin
 Total                  130.540             53.318            120.021
 Electronic               0.000              0.000              1.377
 Translational            0.889              2.981             42.042
 Rotational               0.889              2.981             32.366
 Vibrational            128.762             47.356             44.236
 Vibration     1          0.594              1.982              5.459
 Vibration     2          0.595              1.979              4.945
 Vibration     3          0.599              1.966              4.027
 Vibration     4          0.605              1.946              3.386
 Vibration     5          0.607              1.938              3.208
 Vibration     6          0.640              1.834              2.094
 Vibration     7          0.644              1.821              2.018
 Vibration     8          0.656              1.784              1.824
 Vibration     9          0.665              1.754              1.695
 Vibration    10          0.680              1.711              1.533
 Vibration    11          0.697              1.659              1.375
 Vibration    12          0.719              1.599              1.220
 Vibration    13          0.725              1.582              1.181
 Vibration    14          0.730              1.566              1.145
 Vibration    15          0.753              1.503              1.022
 Vibration    16          0.758              1.491              0.999
 Vibration    17          0.810              1.358              0.792
 Vibration    18          0.843              1.278              0.690
 Vibration    19          0.860              1.240              0.647
 Vibration    20          0.881              1.193              0.597
 Vibration    21          0.906              1.138              0.543

                           ! Non-Optimized Parameters !
 Normal termination of Gaussian 16 at Sun Feb 11 02:22:43 2024.
