 Q-Chem 5.4, Q-Chem, Inc., Pleasanton, CA (2021)
 Q-Chem 5.4.0 for Intel X86 EM64T Linux

User input:
--------------------------------------------------------------
$molecule
-1 2
O                  4.3902410000     -1.5195130000     -0.4074750000
C                  3.2545170000     -0.7547890000     -0.3137030000
C                  3.3368150000      0.6372900000     -0.3667290000
C                  2.1880520000      1.4182480000     -0.2722990000
O                  2.3132090000      2.7855180000     -0.3289890000
C                  0.9065140000      0.8296920000     -0.1203670000
C                 -0.3231430000      1.6283880000     -0.0183680000
O                 -0.3444370000      2.8725170000     -0.0560730000
C                 -1.5850120000      0.8715250000      0.1366980000
C                 -2.7927790000      1.5878450000      0.2388070000
C                 -4.0039640000      0.9366250000      0.3853310000
C                 -4.0400470000     -0.4739550000      0.4344800000
C                 -2.8710160000     -1.1993280000      0.3365590000
C                 -1.6225610000     -0.5482330000      0.1861990000
C                 -0.4093230000     -1.3217260000      0.0851080000
O                 -0.4327490000     -2.6118960000      0.1288120000
C                  0.8399540000     -0.6079310000     -0.0674350000
C                  2.0246330000     -1.3781130000     -0.1659170000
O                  2.0194780000     -2.7384420000     -0.1220440000
H                  4.0867620000     -2.4380750000     -0.3469280000
H                  4.3121170000      1.1016140000     -0.4829410000
H                  3.2503570000      2.9814600000     -0.4324970000
H                 -2.7326180000      2.6691940000      0.1976950000
H                 -4.9248000000      1.5067140000      0.4624050000
H                 -4.9901530000     -0.9875920000      0.5495020000
H                 -2.8719150000     -2.2822460000      0.3713890000
H                  1.0218670000     -2.9647910000     -0.0112180000
$end
$rem
MAX_SCF_CYCLES=200
BASIS  =  6-311++G(d,p)
GUI  =  2
JOB_TYPE  =  SP
METHOD  =  B3LYP
SOLVENT_METHOD = COSMO
$end
$solvent
dielectric 37.219
opticaldielectric 1.43
$end

--------------------------------------------------------------

             Standard Nuclear Orientation (Angstroms)
    I     Atom           X                Y                Z
 ----------------------------------------------------------------
    1      O       4.3463714743    -0.9376027103    -0.0004522676
    2      C       3.1139170096    -0.3338470834    -0.0001004178
    3      C       3.0118262552     1.0579309645    -0.0000449401
    4      C       1.7642542674     1.6760191110     0.0001319283
    5      O       1.7081369955     3.0490289919     0.0001783563
    6      C       0.5655128395     0.9178369919     0.0002121379
    7      C      -0.7649583720     1.5425143350     0.0001304538
    8      O      -0.9506597946     2.7734680465     0.0000216513
    9      C      -1.9218329282     0.6201035354     0.0000025106
   10      C      -3.2195825346     1.1660774946    -0.0003311773
   11      C      -4.3399482282     0.3553330299    -0.0003607830
   12      C      -4.1894081446    -1.0485156633    -0.0000901132
   13      C      -2.9290348790    -1.6087363133     0.0001219380
   14      C      -1.7715304162    -0.7930426631     0.0001799123
   15      C      -0.4607477204    -1.3949612390     0.0002716535
   16      O      -0.3134933758    -2.6776590225     0.0002652285
   17      C       0.6892942157    -0.5169696469     0.0002385672
   18      C       1.9712156503    -1.1194816895     0.0000823476
   19      O       2.1459640464    -2.4692629186    -0.0001022766
   20      H       4.1655603630    -1.8898783093    -0.0007929703
   21      H       3.9219530195     1.6512144173    -0.0001662500
   22      H       2.6157287383     3.3709463330     0.0002129736
   23      H      -3.3026070017     2.2466940168    -0.0005993478
   24      H      -5.3325546993     0.7953479520    -0.0006257899
   25      H      -5.0679017109    -1.6872671741    -0.0001203946
   26      H      -2.7867537213    -2.6828319311     0.0002102171
   27      H       1.1821581589    -2.8295713829    -0.0000680801
 ----------------------------------------------------------------

   11    -914.7709953924      5.61e-06  Convergence criterion met
 Total energy in the final basis set =     -914.7709953924
    5    -914.8590264904      4.48e-06  Convergence criterion met
 Total energy in the final basis set =     -914.8590264904

                    Orbital Energies (a.u.)
 --------------------------------------------------------------

 Alpha MOs
 -- Occupied --
-19.1585 -19.1524 -19.1338 -19.0927 -19.0798 -10.2429 -10.2369 -10.2359
-10.2314 -10.2290 -10.1842 -10.1797 -10.1769 -10.1754 -10.1745 -10.1739
-10.1726 -10.1717 -10.1709  -1.0770  -1.0644  -1.0468  -1.0123  -1.0035
 -0.8647  -0.8501  -0.7894  -0.7543  -0.7451  -0.7405  -0.6755  -0.6520
 -0.6335  -0.6049  -0.5824  -0.5720  -0.5387  -0.5248  -0.5080  -0.4954
 -0.4818  -0.4657  -0.4530  -0.4500  -0.4387  -0.4258  -0.4234  -0.4167
 -0.4142  -0.4110  -0.4074  -0.3828  -0.3824  -0.3764  -0.3713  -0.3673
 -0.3561  -0.3502  -0.3398  -0.3072  -0.2677  -0.2626  -0.2597  -0.2454
 -0.2406  -0.2172  -0.1442

 Beta MOs
 -- Occupied --
-19.1582 -19.1522 -19.1331 -19.0876 -19.0755 -10.2429 -10.2360 -10.2352
-10.2281 -10.2279 -10.1845 -10.1793 -10.1767 -10.1741 -10.1740 -10.1737
-10.1717 -10.1711 -10.1711  -1.0759  -1.0640  -1.0444  -1.0050  -0.9951
 -0.8621  -0.8488  -0.7857  -0.7517  -0.7435  -0.7382  -0.6688  -0.6504
 -0.6307  -0.6038  -0.5815  -0.5701  -0.5366  -0.5237  -0.5068  -0.4938
 -0.4794  -0.4647  -0.4514  -0.4435  -0.4375  -0.4252  -0.4197  -0.4116
 -0.4098  -0.4085  -0.3991  -0.3817  -0.3755  -0.3723  -0.3700  -0.3563
 -0.3548  -0.3406  -0.3388  -0.2994  -0.2585  -0.2533  -0.2526  -0.2406
 -0.2366  -0.2069

          Ground-State Mulliken Net Atomic Charges

     Atom                 Charge (a.u.)    Spin (a.u.)
  --------------------------------------------------------
      1 O                    -0.328377       0.008415
      2 C                    -0.386136       0.045696
      3 C                     0.082239       0.061362
      4 C                    -0.182845       0.013905
      5 O                    -0.262148       0.004603
      6 C                     0.435904       0.020250
      7 C                    -0.240037       0.045068
      8 O                    -0.467502       0.156955
      9 C                    -0.216574       0.071200
     10 C                     0.102001      -0.008814
     11 C                    -0.552322       0.083516
     12 C                    -0.505984      -0.005605
     13 C                     0.058730       0.078784
     14 C                     0.171920      -0.024198
     15 C                    -0.246226       0.202525
     16 O                    -0.539258       0.180898
     17 C                     0.837090      -0.034635
     18 C                    -0.294228       0.096346
     19 O                    -0.521603       0.023125
     20 H                     0.327215      -0.000303
     21 H                     0.221049      -0.005629
     22 H                     0.316625      -0.000612
     23 H                     0.174223       0.001122
     24 H                     0.202540      -0.005908
     25 H                     0.204206      -0.000391
     26 H                     0.182426      -0.003334
     27 H                     0.427069      -0.004342
  --------------------------------------------------------
  Sum of atomic charges =    -1.000000

                    Cartesian Multipole Moments
 -----------------------------------------------------------------
    Charge (ESU x 10^10)
                -4.8032
    Dipole Moment (Debye)
         X       1.1640      Y      -0.2153      Z      -0.0021
       Tot       1.1837
    Quadrupole Moments (Debye-Ang)
        XX    -113.2930     XY      13.9082     YY    -141.8418
        XZ       0.0030     YZ       0.0004     ZZ    -115.5411

 Total job time:  103.66s(wall), 770.91s(cpu)
        *  Thank you very much for using Q-Chem.  Have a nice day.  *
