 Gaussian 16, Revision A.03,
 Gaussian 16:  ES64L-G16RevA.03 25-Dec-2016

 ----------------------------------------------------------------------
 #P UB3LYP/6-311++G(d,p) nosym opt freq SCRF=(PCM,Solvent=n,n-DiMethylF
 ormamide)
 ----------------------------------------------------------------------

 -------
 Reduced
 -------
 Symbolic Z-matrix:
 Charge = -2 Multiplicity = 1

 SCF Done:  E(UB3LYP) =  -807.389992356     A.U. after   18 cycles
 SCF Done:  E(UB3LYP) =  -807.391521235     A.U. after   13 cycles
 SCF Done:  E(UB3LYP) =  -807.391764683     A.U. after   13 cycles
 SCF Done:  E(UB3LYP) =  -807.391790727     A.U. after   13 cycles
 SCF Done:  E(UB3LYP) =  -807.391799187     A.U. after   11 cycles
 SCF Done:  E(UB3LYP) =  -807.391799763     A.U. after   11 cycles
 SCF Done:  E(UB3LYP) =  -807.391801276     A.U. after   11 cycles
 SCF Done:  E(UB3LYP) =  -807.391801400     A.U. after   10 cycles
 SCF Done:  E(UB3LYP) =  -807.391801510     A.U. after   11 cycles
 SCF Done:  E(UB3LYP) =  -807.391801528     A.U. after   10 cycles
 Optimization completed.
    -- Stationary point found.
 Normal termination of Gaussian 16 at Sun Feb 11 03:24:49 2024.

 ----------------------------------------------------------------------
 #P Geom=AllCheck Guess=TCheck SCRF=Check GenChk UB3LYP/6-311++G(d,p) F
 req
 ----------------------------------------------------------------------

 Structure from the checkpoint file:  "289-an.chk"
 -------
 Reduced
 -------
 Charge = -2 Multiplicity = 1

                          Input orientation:
 ---------------------------------------------------------------------
 Center     Atomic      Atomic             Coordinates (Angstroms)
 Number     Number       Type             X           Y           Z
 ---------------------------------------------------------------------
      1          6           0       -1.999977    3.067796   -0.244574
      2          6           0       -2.984381    2.529954    0.556248
      3          6           0       -2.741422    1.322621    1.262233
      4          6           0       -0.726051    2.446963   -0.394385
      5          6           0       -0.475397    1.211061    0.325873
      6          6           0       -1.515366    0.696099    1.137998
      7          6           0        0.280851    3.014045   -1.225047
      8          6           0        1.494448    2.305725   -1.284100
      9          6           0        1.782565    1.105872   -0.606319
     10          6           0        0.797600    0.512284    0.232499
     11          8           0        0.172897    4.135137   -1.934345
     12          8           0        1.009730   -0.601119    0.881423
     13          1           0       -2.176214    3.990715   -0.787238
     14          1           0       -3.945132    3.028316    0.649163
     15          1           0       -3.514066    0.897247    1.895408
     16          1           0       -1.315791   -0.224904    1.675566
     17          8           0        2.440035    2.900057   -2.107304
     18          1           0        1.926724    3.686358   -2.413894
     19          6           0        3.135142    0.449916   -0.762005
     20          6           0        4.180300    0.929568    0.267529
     21          6           0        5.537513    0.202147    0.216339
     22          6           0        6.410905    0.600027    1.415249
     23          6           0        6.290477    0.450321   -1.099258
     24          1           0        3.514978    0.628562   -1.772334
     25          1           0        3.008240   -0.631197   -0.641562
     26          1           0        3.755144    0.802548    1.269610
     27          1           0        4.350025    2.006726    0.137837
     28          1           0        5.338296   -0.876279    0.291620
     29          1           0        7.363912    0.061166    1.411393
     30          1           0        5.906950    0.385491    2.362695
     31          1           0        6.635935    1.672630    1.393159
     32          1           0        7.250005   -0.076636   -1.107380
     33          1           0        6.496750    1.519097   -1.229989
     34          1           0        5.720254    0.112625   -1.968098
 ---------------------------------------------------------------------

 SCF Done:  E(UB3LYP) =  -807.391801528     A.U. after    1 cycles

 Alpha  occ. eigenvalues --  -19.10801 -19.02182 -19.01282 -10.17458 -10.16958
 Alpha  occ. eigenvalues --  -10.16128 -10.15814 -10.14806 -10.14723 -10.14720
 Alpha  occ. eigenvalues --  -10.14462 -10.14365 -10.14351 -10.14272 -10.13895
 Alpha  occ. eigenvalues --  -10.13691 -10.13268 -10.12373  -1.01854  -0.92263
 Alpha  occ. eigenvalues --   -0.91426  -0.82149  -0.79989  -0.76806  -0.72988
 Alpha  occ. eigenvalues --   -0.71974  -0.68419  -0.67488  -0.64082  -0.61221
 Alpha  occ. eigenvalues --   -0.57969  -0.55935  -0.54448  -0.53243  -0.49940
 Alpha  occ. eigenvalues --   -0.46932  -0.45541  -0.44307  -0.43273  -0.42587
 Alpha  occ. eigenvalues --   -0.41876  -0.40572  -0.39719  -0.39223  -0.38534
 Alpha  occ. eigenvalues --   -0.37649  -0.36680  -0.35701  -0.35187  -0.34963
 Alpha  occ. eigenvalues --   -0.34677  -0.34342  -0.32965  -0.32200  -0.31470
 Alpha  occ. eigenvalues --   -0.30719  -0.30388  -0.30033  -0.29135  -0.29057
 Alpha  occ. eigenvalues --   -0.22677  -0.21952  -0.20976  -0.19229  -0.18852
 Alpha  occ. eigenvalues --   -0.11088
 Alpha virt. eigenvalues --   -0.00411  -0.00119   0.00487   0.01147   0.01693
 Alpha virt. eigenvalues --    0.01975   0.02052   0.02344   0.03671   0.03910
 Alpha virt. eigenvalues --    0.04088   0.04611   0.04838   0.05469   0.05939

  Beta  occ. eigenvalues --  -19.10801 -19.02182 -19.01282 -10.17458 -10.16958
  Beta  occ. eigenvalues --  -10.16128 -10.15814 -10.14806 -10.14723 -10.14720
  Beta  occ. eigenvalues --  -10.14462 -10.14365 -10.14351 -10.14272 -10.13895
  Beta  occ. eigenvalues --  -10.13691 -10.13268 -10.12373  -1.01854  -0.92263
  Beta  occ. eigenvalues --   -0.91426  -0.82149  -0.79989  -0.76806  -0.72988
  Beta  occ. eigenvalues --   -0.71974  -0.68419  -0.67488  -0.64082  -0.61221
  Beta  occ. eigenvalues --   -0.57969  -0.55935  -0.54448  -0.53243  -0.49940
  Beta  occ. eigenvalues --   -0.46932  -0.45541  -0.44307  -0.43273  -0.42587
  Beta  occ. eigenvalues --   -0.41876  -0.40572  -0.39719  -0.39223  -0.38534
  Beta  occ. eigenvalues --   -0.37649  -0.36680  -0.35701  -0.35187  -0.34963
  Beta  occ. eigenvalues --   -0.34677  -0.34342  -0.32965  -0.32200  -0.31470
  Beta  occ. eigenvalues --   -0.30719  -0.30388  -0.30033  -0.29135  -0.29057
  Beta  occ. eigenvalues --   -0.22677  -0.21952  -0.20976  -0.19229  -0.18852
  Beta  occ. eigenvalues --   -0.11088
  Beta virt. eigenvalues --   -0.00411  -0.00119   0.00487   0.01147   0.01693
  Beta virt. eigenvalues --    0.01975   0.02052   0.02344   0.03671   0.03910
  Beta virt. eigenvalues --    0.04088   0.04611   0.04838   0.05469   0.05939

 Mulliken charges and spin densities:
               1          2
     1  C   -0.040805   0.000000
     2  C   -0.404341  -0.000000
     3  C   -0.463725  -0.000000
     4  C    0.323993   0.000000
     5  C    0.032789   0.000000
     6  C    0.028220  -0.000000
     7  C   -1.006705  -0.000000
     8  C   -0.689467  -0.000000
     9  C    2.124906  -0.000000
    10  C   -0.947964   0.000000
    11  O   -0.753714  -0.000000
    12  O   -0.673980  -0.000000
    13  H    0.145037   0.000000
    14  H    0.154849  -0.000000
    15  H    0.150645  -0.000000
    16  H    0.143304   0.000000
    17  O   -0.326473  -0.000000
    18  H    0.271462   0.000000
    19  C   -0.158701  -0.000000
    20  C   -0.693226  -0.000000
    21  C    0.439906   0.000000
    22  C   -0.633777   0.000000
    23  C   -0.650418  -0.000000
    24  H    0.177332  -0.000000
    25  H    0.176287  -0.000000
    26  H    0.158665   0.000000
    27  H    0.146205   0.000000
    28  H    0.127206   0.000000
    29  H    0.144367  -0.000000
    30  H    0.133194  -0.000000
    31  H    0.138925  -0.000000
    32  H    0.144062   0.000000
    33  H    0.141064   0.000000
    34  H    0.140876  -0.000000
 Sum of Mulliken charges =  -2.00000  -0.00000

 Dipole moment (field-independent basis, Debye):
    X=             -4.7927    Y=            -17.0088    Z=              4.4347  Tot=             18.2191
 Quadrupole moment (field-independent basis, Debye-Ang):
   XX=           -140.2223   YY=           -187.6978   ZZ=           -138.8827
   XY=             -2.2640   XZ=              3.5051   YZ=             30.0551

  Exact polarizability: 404.631 -31.714 302.143 -61.109 -59.844 264.582
 Approx polarizability: 432.735 -30.499 342.656 -75.567 -74.348 294.407

                      1                      2                      3
                      A                      A                      A
 Frequencies --     25.4095                27.3663                42.2518
 Red. masses --      3.2766                 3.4007                 4.9632
 Frc consts  --      0.0012                 0.0015                 0.0052
 IR Inten    --      2.1034                 3.3428                 4.4523

                      4                      5                      6
                      A                      A                      A
 Frequencies --    100.2287               111.3290               131.2474
 Red. masses --      3.3021                 3.4890                 3.9779
 Frc consts  --      0.0195                 0.0255                 0.0404
 IR Inten    --      6.9926                 8.8035                 2.0997

                      7                      8                      9
                      A                      A                      A
 Frequencies --    169.7510               182.8266               198.3274
 Red. masses --      6.2261                 3.7768                 5.6126
 Frc consts  --      0.1057                 0.0744                 0.1301
 IR Inten    --      2.6758                 1.9257                 2.9933

                     10                     11                     12
                      A                      A                      A
 Frequencies --    223.0676               247.9355               251.6517
 Red. masses --      1.0586                 1.3944                 2.4044
 Frc consts  --      0.0310                 0.0505                 0.0897
 IR Inten    --      0.4781                 5.6074                12.3131

                     13                     14                     15
                      A                      A                      A
 Frequencies --    292.2668               310.4654               319.1156
 Red. masses --      2.7068                 5.0646                 4.5711
 Frc consts  --      0.1362                 0.2876                 0.2743
 IR Inten    --      5.4027                14.5835                17.1503

                     16                     17                     18
                      A                      A                      A
 Frequencies --    362.1934               366.8004               392.9873
 Red. masses --      7.6731                 4.3681                 2.5130
 Frc consts  --      0.5931                 0.3463                 0.2287
 IR Inten    --      6.0885                 0.9834                 2.5332

                     19                     20                     21
                      A                      A                      A
 Frequencies --    403.9826               439.0164               442.7832
 Red. masses --      3.1999                 7.4188                 2.7508
 Frc consts  --      0.3077                 0.8425                 0.3177
 IR Inten    --      2.1985                 6.4915                 3.5605

                     22                     23                     24
                      A                      A                      A
 Frequencies --    468.5328               487.2734               529.3320
 Red. masses --      3.4790                 5.2932                 6.7129
 Frc consts  --      0.4500                 0.7405                 1.1082
 IR Inten    --      6.9167                 6.8794                 1.5183

                     25                     26                     27
                      A                      A                      A
 Frequencies --    558.3413               632.8368               667.9870
 Red. masses --      4.7993                 5.9777                 5.6949
 Frc consts  --      0.8815                 1.4105                 1.4972
 IR Inten    --      3.3086                72.1569                 6.8196

                     28                     29                     30
                      A                      A                      A
 Frequencies --    689.1716               692.2020               700.5386
 Red. masses --      3.3242                 3.0422                 3.0447
 Frc consts  --      0.9302                 0.8588                 0.8804
 IR Inten    --      5.2142                83.8590                17.5576

                     31                     32                     33
                      A                      A                      A
 Frequencies --    724.5409               753.1497               754.5227
 Red. masses --      1.4041                 2.1763                 1.5653
 Frc consts  --      0.4343                 0.7273                 0.5250
 IR Inten    --    155.5912                25.5478                 7.2724

                     34                     35                     36
                      A                      A                      A
 Frequencies --    775.0985               825.0157               841.2353
 Red. masses --      3.1907                 2.8680                 1.4840
 Frc consts  --      1.1294                 1.1502                 0.6188
 IR Inten    --     10.6248                 6.8424                 0.4216

                     37                     38                     39
                      A                      A                      A
 Frequencies --    863.4414               923.0675               929.4358
 Red. masses --      2.8822                 1.2558                 3.9020
 Frc consts  --      1.2660                 0.6304                 1.9860
 IR Inten    --     83.7380                 5.9373                66.9193

                     40                     41                     42
                      A                      A                      A
 Frequencies --    939.6012               958.3943               963.4782
 Red. masses --      2.0581                 1.4390                 1.3352
 Frc consts  --      1.0705                 0.7787                 0.7302
 IR Inten    --      7.7923                 0.6135                 3.4348

                     43                     44                     45
                      A                      A                      A
 Frequencies --    973.2485               975.4779              1016.3277
 Red. masses --      1.2523                 2.0950                 2.6124
 Frc consts  --      0.6989                 1.1745                 1.5899
 IR Inten    --      0.8189                 0.1834               193.5544

                     46                     47                     48
                      A                      A                      A
 Frequencies --   1024.0398              1035.3570              1095.2997
 Red. masses --      2.5502                 3.6645                 2.5009
 Frc consts  --      1.5757                 2.3144                 1.7677
 IR Inten    --     31.6030               393.0606                85.4800

                     49                     50                     51
                      A                      A                      A
 Frequencies --   1112.8616              1127.1171              1134.3187
 Red. masses --      1.9883                 1.7539                 2.0250
 Frc consts  --      1.4508                 1.3128                 1.5352
 IR Inten    --    131.4684                13.6253                27.3986

                     52                     53                     54
                      A                      A                      A
 Frequencies --   1159.6761              1180.5618              1183.6548
 Red. masses --      2.1730                 1.7755                 1.7470
 Frc consts  --      1.7218                 1.4580                 1.4421
 IR Inten    --     52.5011               101.2813                 4.3892

                     55                     56                     57
                      A                      A                      A
 Frequencies --   1221.4991              1239.0113              1275.0299
 Red. masses --      1.8312                 2.1283                 1.4753
 Frc consts  --      1.6098                 1.9250                 1.4131
 IR Inten    --     28.7474               273.5022                84.1794

                     58                     59                     60
                      A                      A                      A
 Frequencies --   1287.9219              1316.1862              1317.1670
 Red. masses --      1.8956                 5.3328                 1.3170
 Frc consts  --      1.8525                 5.4430                 1.3462
 IR Inten    --     30.3548               496.8265               263.2200

                     61                     62                     63
                      A                      A                      A
 Frequencies --   1338.3868              1345.2837              1360.1561
 Red. masses --      1.4594                 1.6336                 1.3726
 Frc consts  --      1.5403                 1.7419                 1.4961
 IR Inten    --     80.5565                42.5815                12.1524

                     64                     65                     66
                      A                      A                      A
 Frequencies --   1367.5979              1381.5704              1390.7372
 Red. masses --      1.7189                 4.0465                 1.2810
 Frc consts  --      1.8941                 4.5507                 1.4598
 IR Inten    --    175.3751              1272.4337                34.5944

                     67                     68                     69
                      A                      A                      A
 Frequencies --   1406.8981              1420.9393              1435.3028
 Red. masses --      1.2373                 4.9779                 2.5038
 Frc consts  --      1.4429                 5.9217                 3.0390
 IR Inten    --      8.9453               104.3601               114.4552

                     70                     71                     72
                      A                      A                      A
 Frequencies --   1459.8018              1460.6869              1476.9116
 Red. masses --      1.1809                 2.3799                 1.0844
 Frc consts  --      1.4826                 2.9918                 1.3936
 IR Inten    --      0.3831                66.1189                 1.3370

                     73                     74                     75
                      A                      A                      A
 Frequencies --   1479.9249              1485.6593              1491.4629
 Red. masses --      1.0513                 1.0630                 1.0562
 Frc consts  --      1.3566                 1.3824                 1.3843
 IR Inten    --      1.0373                 8.1755                 6.2910

                     76                     77                     78
                      A                      A                      A
 Frequencies --   1498.5318              1516.5738              1544.2357
 Red. masses --      1.0493                 4.2070                 5.2234
 Frc consts  --      1.3883                 5.7010                 7.3389
 IR Inten    --     21.8660                 5.8094               298.3291

                     79                     80                     81
                      A                      A                      A
 Frequencies --   1594.7847              1612.6378              2975.9551
 Red. masses --      5.2547                 5.8462                 1.0812
 Frc consts  --      7.8741                 8.9577                 5.6417
 IR Inten    --    138.7270                10.6615                23.0232

                     82                     83                     84
                      A                      A                      A
 Frequencies --   2993.2843              3003.6423              3009.9664
 Red. masses --      1.0607                 1.0360                 1.0390
 Frc consts  --      5.5993                 5.5070                 5.5462
 IR Inten    --     33.8369                53.2093                78.7030

                     85                     86                     87
                      A                      A                      A
 Frequencies --   3014.7199              3029.0729              3059.9362
 Red. masses --      1.0596                 1.0986                 1.1017
 Frc consts  --      5.6741                 5.9388                 6.0777
 IR Inten    --    149.8330                20.2631                 9.6866

                     88                     89                     90
                      A                      A                      A
 Frequencies --   3060.8538              3065.5197              3072.0492
 Red. masses --      1.1023                 1.0998                 1.1015
 Frc consts  --      6.0849                 6.0891                 6.1246
 IR Inten    --     55.3620               181.3892                89.8689

                     91                     92                     93
                      A                      A                      A
 Frequencies --   3085.7395              3135.0864              3150.4191
 Red. masses --      1.0987                 1.0843                 1.0881
 Frc consts  --      6.1641                 6.2790                 6.3630
 IR Inten    --     64.2934                16.7518                27.6903

                     94                     95                     96
                      A                      A                      A
 Frequencies --   3166.1183              3171.1253              3375.9225
 Red. masses --      1.0910                 1.0943                 1.0641
 Frc consts  --      6.4436                 6.4837                 7.1455
 IR Inten    --     55.7513                70.0539               266.0172

 - Thermochemistry -
 -------------------
 Temperature   298.150 Kelvin.  Pressure   1.00000 Atm.
 Atom     1 has atomic number  6 and mass  12.00000

 Molecular mass:   244.10994 amu.
 Principal axes and moments of inertia in atomic units:
                           1         2         3
     Eigenvalues --  2231.226407896.029289552.95169
           X            0.97403   0.14694   0.17226
           Y           -0.22497   0.71387   0.66315
           Z           -0.02553  -0.68469   0.72839
 This molecule is an asymmetric top.
 Rotational symmetry number  1.
 Warning -- assumption of classical behavior for rotation
           may cause significant error
 Rotational temperatures (Kelvin)      0.03882     0.01097     0.00907
 Rotational constants (GHZ):           0.80886     0.22856     0.18892
 Zero-point vibrational energy     716745.3 (Joules/Mol)
                                  171.30623 (Kcal/Mol)
 Warning -- explicit consideration of  25 degrees of freedom as
           vibrations may cause significant error
 Vibrational temperatures:     36.56    39.37    60.79   144.21   160.18
          (Kelvin)            188.84   244.23   263.05   285.35   320.94
                              356.72   362.07   420.51   446.69   459.14
                              521.12   527.74   565.42   581.24   631.65
                              637.07   674.11   701.08   761.59   803.33
                              910.51   961.08   991.56   995.92  1007.92
                             1042.45  1083.61  1085.59  1115.19  1187.01
                             1210.35  1242.30  1328.09  1337.25  1351.88
                             1378.92  1386.23  1400.29  1403.50  1462.27
                             1473.36  1489.65  1575.89  1601.16  1621.67
                             1632.03  1668.52  1698.57  1703.02  1757.46
                             1782.66  1834.48  1853.03  1893.70  1895.11
                             1925.64  1935.56  1956.96  1967.67  1987.77
                             2000.96  2024.21  2044.41  2065.08  2100.33
                             2101.60  2124.95  2129.28  2137.53  2145.88
                             2156.05  2182.01  2221.81  2294.54  2320.23
                             4281.74  4306.67  4321.57  4330.67  4337.51
                             4358.16  4402.57  4403.89  4410.60  4419.99
                             4439.69  4510.69  4532.75  4555.34  4562.54
                             4857.20

 Zero-point correction=                           0.272994 (Hartree/Particle)
 Thermal correction to Energy=                    0.289742
 Thermal correction to Enthalpy=                  0.290686
 Thermal correction to Gibbs Free Energy=         0.227644
 Sum of electronic and zero-point Energies=           -807.118808
 Sum of electronic and thermal Energies=              -807.102059
 Sum of electronic and thermal Enthalpies=            -807.101115
 Sum of electronic and thermal Free Energies=         -807.164158

                     E (Thermal)             CV                S
                      KCal/Mol        Cal/Mol-Kelvin    Cal/Mol-Kelvin
 Total                  181.816             64.985            132.685
 Electronic               0.000              0.000              0.000
 Translational            0.889              2.981             42.378
 Rotational               0.889              2.981             33.487
 Vibrational            180.039             59.023             56.820
 Vibration     1          0.593              1.985              6.159
 Vibration     2          0.593              1.984              6.012
 Vibration     3          0.595              1.980              5.151
 Vibration     4          0.604              1.949              3.450
 Vibration     5          0.607              1.940              3.246
 Vibration     6          0.612              1.922              2.928
 Vibration     7          0.625              1.880              2.438
 Vibration     8          0.630              1.863              2.299
 Vibration     9          0.637              1.842              2.149
 Vibration    10          0.649              1.806              1.934
 Vibration    11          0.662              1.766              1.745
 Vibration    12          0.664              1.760              1.719
 Vibration    13          0.688              1.688              1.461
 Vibration    14          0.699              1.654              1.360
 Vibration    15          0.705              1.637              1.315
 Vibration    16          0.736              1.550              1.113
 Vibration    17          0.740              1.541              1.093
 Vibration    18          0.760              1.485              0.989
 Vibration    19          0.769              1.462              0.948
 Vibration    20          0.799              1.385              0.830
 Vibration    21          0.802              1.377              0.818
 Vibration    22          0.826              1.320              0.742
 Vibration    23          0.843              1.278              0.691
 Vibration    24          0.884              1.185              0.589
 Vibration    25          0.914              1.121              0.527

 Optimization completed.
    -- Stationary point found.
 Normal termination of Gaussian 16 at Sun Feb 11 04:34:48 2024.
