 Q-Chem 5.4, Q-Chem, Inc., Pleasanton, CA (2021)
 Q-Chem 5.4.0 for Intel X86 EM64T Linux

User input:
--------------------------------------------------------------
$molecule
0 1
N                 -3.3007170000     -0.9427580000      0.2271520000
C                 -2.1195960000     -0.2855610000      0.2148790000
C                 -1.9410070000      1.0394140000      0.4774360000
C                 -0.6367000000      1.6752430000      0.4446460000
O                 -0.4915310000      2.8698210000      0.6836420000
C                  0.5514200000      0.8181800000      0.1046370000
C                  1.8230430000      1.3866420000      0.0614960000
C                  2.9296360000      0.6007920000     -0.2525770000
C                  2.7737370000     -0.7598170000     -0.5260240000
C                  1.5088460000     -1.3361900000     -0.4854280000
C                  0.3951900000     -0.5510020000     -0.1705950000
C                 -0.9471590000     -1.1716910000     -0.1294510000
O                 -1.1441430000     -2.3544140000     -0.3590860000
H                 -4.1658740000     -0.4781600000      0.4411920000
H                 -3.2970290000     -1.9291660000      0.0142270000
H                 -2.7782240000      1.6830750000      0.7255310000
H                  1.9222870000      2.4434570000      0.2767310000
H                  3.9165550000      1.0486300000     -0.2846400000
H                  3.6375800000     -1.3674010000     -0.7699400000
H                  1.3636860000     -2.3890940000     -0.6938270000
$end

$rem
BASIS  =  6-311++G(d,p)
GUI  =  2
JOB_TYPE  =  SP
METHOD  =  B3LYP
SCF_CONVERGENCE  = 8
SOLVENT_METHOD = sm12
$end

$smx
solvent dimethylformamide
charges CM5
$end

--------------------------------------------------------------

             Standard Nuclear Orientation (Angstroms)
    I     Atom           X                Y                Z
 ----------------------------------------------------------------
    1      N      -3.3007170000    -0.9427580000     0.2271520000
    2      C      -2.1195960000    -0.2855610000     0.2148790000
    3      C      -1.9410070000     1.0394140000     0.4774360000
    4      C      -0.6367000000     1.6752430000     0.4446460000
    5      O      -0.4915310000     2.8698210000     0.6836420000
    6      C       0.5514200000     0.8181800000     0.1046370000
    7      C       1.8230430000     1.3866420000     0.0614960000
    8      C       2.9296360000     0.6007920000    -0.2525770000
    9      C       2.7737370000    -0.7598170000    -0.5260240000
   10      C       1.5088460000    -1.3361900000    -0.4854280000
   11      C       0.3951900000    -0.5510020000    -0.1705950000
   12      C      -0.9471590000    -1.1716910000    -0.1294510000
   13      O      -1.1441430000    -2.3544140000    -0.3590860000
   14      H      -4.1658740000    -0.4781600000     0.4411920000
   15      H      -3.2970290000    -1.9291660000     0.0142270000
   16      H      -2.7782240000     1.6830750000     0.7255310000
   17      H       1.9222870000     2.4434570000     0.2767310000
   18      H       3.9165550000     1.0486300000    -0.2846400000
   19      H       3.6375800000    -1.3674010000    -0.7699400000
   20      H       1.3636860000    -2.3890940000    -0.6938270000
 ----------------------------------------------------------------

   15    -590.6473390688      5.40e-09  Convergence criterion met
 Total energy in the final basis set =     -590.6704689416

                    Orbital Energies (a.u.)
 --------------------------------------------------------------

 Alpha MOs
 -- Occupied --
-19.1412 -19.1090 -14.3448 -10.2889 -10.2648 -10.2503 -10.2069 -10.2049
-10.1980 -10.1972 -10.1948 -10.1935 -10.1794  -1.0763  -1.0421  -0.9449
 -0.8868  -0.8175  -0.7763  -0.7623  -0.6939  -0.6471  -0.6391  -0.5915
 -0.5680  -0.5424  -0.5123  -0.5025  -0.4845  -0.4633  -0.4563  -0.4496
 -0.4473  -0.4334  -0.4194  -0.4116  -0.3845  -0.3801  -0.3666  -0.3559
 -0.2919  -0.2836  -0.2764  -0.2654  -0.2365

          Ground-State Mulliken Net Atomic Charges

     Atom                 Charge (a.u.)
  ----------------------------------------
      1 N                    -0.212671
      2 C                     1.298094
      3 C                     0.574300
      4 C                    -1.785705
      5 O                    -0.397093
      6 C                    -1.044631
      7 C                    -0.196076
      8 C                     0.274544
      9 C                     0.229688
     10 C                     0.235652
     11 C                     0.457535
     12 C                    -1.141597
     13 O                    -0.283648
     14 H                     0.459654
     15 H                     0.328722
     16 H                     0.209637
     17 H                     0.152843
     18 H                     0.312543
     19 H                     0.329235
     20 H                     0.198972
  ----------------------------------------
  Sum of atomic charges =     0.000000

                    Cartesian Multipole Moments
 -----------------------------------------------------------------
    Charge (ESU x 10^10)
                 0.0000
    Dipole Moment (Debye)
         X      -0.9879      Y      -2.9837      Z      -0.5128
       Tot       3.1845
    Quadrupole Moments (Debye-Ang)
        XX     -45.6548     XY       3.0097     YY     -89.8403
        XZ      -3.5475     YZ      -2.9996     ZZ     -77.9575

 Total job time:  241.45s(wall), 1858.28s(cpu)
        *  Thank you very much for using Q-Chem.  Have a nice day.  *
