 Gaussian 16, Revision A.03,
 Gaussian 16:  ES64L-G16RevA.03 25-Dec-2016

 --------------------------------------
 #P UB3LYP/6-311++G(d,p) nosym opt freq
 --------------------------------------

 --------
 Oxidized
 --------
 Symbolic Z-matrix:
 Charge =  0 Multiplicity = 1

 SCF Done:  E(UB3LYP) =  -590.649951380     A.U. after   16 cycles
 Optimization completed.
    -- Stationary point found.
 Normal termination of Gaussian 16 at Mon Jan  8 01:23:50 2024.

 ----------------------------------------------------------------------
 #P Geom=AllCheck Guess=TCheck SCRF=Check GenChk UB3LYP/6-311++G(d,p) F
 req
 ----------------------------------------------------------------------

 Structure from the checkpoint file:  "269.chk"
 --------
 Oxidized
 --------
 Charge =  0 Multiplicity = 1

                          Input orientation:
 ---------------------------------------------------------------------
 Center     Atomic      Atomic             Coordinates (Angstroms)
 Number     Number       Type             X           Y           Z
 ---------------------------------------------------------------------
      1          7           0       -3.300717   -0.942758    0.227152
      2          6           0       -2.119596   -0.285561    0.214879
      3          6           0       -1.941007    1.039414    0.477436
      4          6           0       -0.636700    1.675243    0.444646
      5          8           0       -0.491531    2.869821    0.683642
      6          6           0        0.551420    0.818180    0.104637
      7          6           0        1.823043    1.386642    0.061496
      8          6           0        2.929636    0.600792   -0.252577
      9          6           0        2.773737   -0.759817   -0.526024
     10          6           0        1.508846   -1.336190   -0.485428
     11          6           0        0.395190   -0.551002   -0.170595
     12          6           0       -0.947159   -1.171691   -0.129451
     13          8           0       -1.144143   -2.354414   -0.359086
     14          1           0       -4.165874   -0.478160    0.441192
     15          1           0       -3.297029   -1.929166    0.014227
     16          1           0       -2.778224    1.683075    0.725531
     17          1           0        1.922287    2.443457    0.276731
     18          1           0        3.916555    1.048630   -0.284640
     19          1           0        3.637580   -1.367401   -0.769940
     20          1           0        1.363686   -2.389094   -0.693827
 ---------------------------------------------------------------------

 SCF Done:  E(UB3LYP) =  -590.649951380     A.U. after    1 cycles

 Alpha  occ. eigenvalues --  -19.14267 -19.10947 -14.35769 -10.29082 -10.26480
 Alpha  occ. eigenvalues --  -10.25580 -10.20872 -10.20589 -10.20147 -10.20085
 Alpha  occ. eigenvalues --  -10.19964 -10.19519 -10.18572  -1.07779  -1.04133
 Alpha  occ. eigenvalues --   -0.95708  -0.88944  -0.82206  -0.77859  -0.76732
 Alpha  occ. eigenvalues --   -0.69806  -0.65108  -0.64557  -0.59545  -0.57666
 Alpha  occ. eigenvalues --   -0.54945  -0.51684  -0.51164  -0.48864  -0.46732
 Alpha  occ. eigenvalues --   -0.45857  -0.45200  -0.45020  -0.43464  -0.42313
 Alpha  occ. eigenvalues --   -0.41054  -0.38906  -0.38475  -0.36953  -0.36165
 Alpha  occ. eigenvalues --   -0.29328  -0.28556  -0.27767  -0.26311  -0.24459
 Alpha virt. eigenvalues --   -0.11778  -0.05262  -0.02527  -0.01733  -0.00668
 Alpha virt. eigenvalues --    0.01144   0.01879   0.01970   0.03070   0.04336
 Alpha virt. eigenvalues --    0.04611   0.04742   0.04932   0.05901   0.07130

  Beta  occ. eigenvalues --  -19.14267 -19.10947 -14.35769 -10.29082 -10.26480
  Beta  occ. eigenvalues --  -10.25580 -10.20872 -10.20589 -10.20147 -10.20085
  Beta  occ. eigenvalues --  -10.19964 -10.19519 -10.18572  -1.07779  -1.04133
  Beta  occ. eigenvalues --   -0.95708  -0.88944  -0.82206  -0.77859  -0.76732
  Beta  occ. eigenvalues --   -0.69806  -0.65108  -0.64557  -0.59545  -0.57666
  Beta  occ. eigenvalues --   -0.54945  -0.51684  -0.51164  -0.48864  -0.46732
  Beta  occ. eigenvalues --   -0.45857  -0.45200  -0.45020  -0.43464  -0.42313
  Beta  occ. eigenvalues --   -0.41054  -0.38906  -0.38475  -0.36953  -0.36165
  Beta  occ. eigenvalues --   -0.29328  -0.28556  -0.27767  -0.26311  -0.24459
  Beta virt. eigenvalues --   -0.11778  -0.05262  -0.02527  -0.01733  -0.00668
  Beta virt. eigenvalues --    0.01144   0.01879   0.01970   0.03070   0.04336
  Beta virt. eigenvalues --    0.04611   0.04742   0.04932   0.05901   0.07130

 Mulliken charges and spin densities:
               1          2
     1  N   -0.409361  -0.000000
     2  C    0.272088   0.000000
     3  C    0.600323  -0.000000
     4  C   -0.726178   0.000000
     5  O   -0.264164  -0.000000
     6  C    0.221601   0.000000
     7  C    0.230568  -0.000000
     8  C   -0.273005   0.000000
     9  C   -0.333603  -0.000000
    10  C    0.165804  -0.000000
    11  C    0.331845  -0.000000
    12  C   -1.058081  -0.000000
    13  O   -0.250669   0.000000
    14  H    0.293886   0.000000
    15  H    0.300765  -0.000000
    16  H    0.178204   0.000000
    17  H    0.183258  -0.000000
    18  H    0.179903   0.000000
    19  H    0.178690   0.000000
    20  H    0.178125   0.000000
 Sum of Mulliken charges =  -0.00000  -0.00000

 Dipole moment (field-independent basis, Debye):
    X=             -0.6409    Y=             -2.0530    Z=             -0.3575  Tot=              2.1802
 Quadrupole moment (field-independent basis, Debye-Ang):
   XX=            -50.8568   YY=            -88.2575   ZZ=            -77.7808
   XY=              2.0916   XZ=             -3.0501   YZ=             -2.5710

  Exact polarizability: 173.240  15.883 158.550 -10.639  18.029  70.714
 Approx polarizability: 257.321  43.533 323.352 -10.841  42.064 112.694

                      1                      2                      3
                      A                      A                      A
 Frequencies --     52.3558               116.9311               147.7874
 Red. masses --     11.6384                 3.6253                 2.8161
 Frc consts  --      0.0188                 0.0292                 0.0362
 IR Inten    --      0.5922                16.2586                96.2130

                      4                      5                      6
                      A                      A                      A
 Frequencies --    159.6372               214.8144               259.0141
 Red. masses --      2.5584                 2.2403                 5.0709
 Frc consts  --      0.0384                 0.0609                 0.2004
 IR Inten    --     34.7069                60.1983                 1.7333

                      7                      8                      9
                      A                      A                      A
 Frequencies --    330.9694               385.3943               401.0111
 Red. masses --      3.9766                 8.5365                 3.6660
 Frc consts  --      0.2566                 0.7470                 0.3473
 IR Inten    --      1.3702                14.5547                 1.4218

                     10                     11                     12
                      A                      A                      A
 Frequencies --    405.7504               445.5275               464.9490
 Red. masses --      8.6732                 4.1240                 9.2002
 Frc consts  --      0.8413                 0.4823                 1.1718
 IR Inten    --     10.0631                 3.3484                 5.5095

                     13                     14                     15
                      A                      A                      A
 Frequencies --    491.4117               525.7707               558.1802
 Red. masses --      3.5710                 8.2175                 1.0854
 Frc consts  --      0.5081                 1.3384                 0.1992
 IR Inten    --      1.9031                 6.5694                 4.3151

                     16                     17                     18
                      A                      A                      A
 Frequencies --    659.2557               672.1843               681.3757
 Red. masses --      4.5045                 5.8576                 3.6797
 Frc consts  --      1.1535                 1.5594                 1.0066
 IR Inten    --      4.1543                 0.2976                 6.1040

                     19                     20                     21
                      A                      A                      A
 Frequencies --    716.6845               738.6596               780.8918
 Red. masses --      6.5553                 2.7803                 2.7105
 Frc consts  --      1.9838                 0.8938                 0.9738
 IR Inten    --      0.7375                39.7150                22.8432

                     22                     23                     24
                      A                      A                      A
 Frequencies --    803.9163               807.4326               858.1289
 Red. masses --      4.4498                 2.4358                 1.5446
 Frc consts  --      1.6944                 0.9356                 0.6701
 IR Inten    --      4.6375                21.8443                22.8539

                     25                     26                     27
                      A                      A                      A
 Frequencies --    913.6998               997.5088               998.1125
 Red. masses --      1.3442                 1.3766                 5.6123
 Frc consts  --      0.6612                 0.8070                 3.2942
 IR Inten    --      0.0826                 1.5041                49.2072

                     28                     29                     30
                      A                      A                      A
 Frequencies --   1016.6512              1054.1053              1060.5728
 Red. masses --      1.3246                 2.2689                 1.7490
 Frc consts  --      0.8066                 1.4854                 1.1591
 IR Inten    --      0.2558                 2.1408                 5.9111

                     31                     32                     33
                      A                      A                      A
 Frequencies --   1107.5970              1142.2137              1183.2275
 Red. masses --      2.0869                 1.7606                 1.1343
 Frc consts  --      1.5084                 1.3533                 0.9356
 IR Inten    --      4.4165                13.2655                 7.0834

                     34                     35                     36
                      A                      A                      A
 Frequencies --   1240.9634              1282.1167              1296.0631
 Red. masses --      2.2468                 2.3057                 1.9572
 Frc consts  --      2.0386                 2.2331                 1.9370
 IR Inten    --     25.0427               244.1104                45.4886

                     37                     38                     39
                      A                      A                      A
 Frequencies --   1333.8100              1364.6949              1409.3181
 Red. masses --      4.4943                 6.6047                 3.0029
 Frc consts  --      4.7109                 7.2473                 3.5140
 IR Inten    --     96.6982                50.7241                45.9994

                     40                     41                     42
                      A                      A                      A
 Frequencies --   1483.4962              1505.1538              1598.0335
 Red. masses --      2.4283                 2.6516                 1.5546
 Frc consts  --      3.1486                 3.5393                 2.3391
 IR Inten    --      0.9053                 4.9044                57.6069

                     43                     44                     45
                      A                      A                      A
 Frequencies --   1613.1395              1629.4861              1663.8906
 Red. masses --      4.4633                 5.1660                 6.3682
 Frc consts  --      6.8430                 8.0817                10.3877
 IR Inten    --    112.3342                64.1125               603.0906

                     46                     47                     48
                      A                      A                      A
 Frequencies --   1692.5588              1728.0309              3169.8159
 Red. masses --     10.9534                 8.2370                 1.0869
 Frc consts  --     18.4879                14.4917                 6.4346
 IR Inten    --    169.8337               159.4203                 3.6276

                     49                     50                     51
                      A                      A                      A
 Frequencies --   3171.6507              3184.2477              3198.7102
 Red. masses --      1.0908                 1.0915                 1.0927
 Frc consts  --      6.4651                 6.5206                 6.5873
 IR Inten    --      8.5988                 8.9814                 0.8200

                     52                     53                     54
                      A                      A                      A
 Frequencies --   3201.5306              3585.6467              3723.8637
 Red. masses --      1.0950                 1.0463                 1.1035
 Frc consts  --      6.6128                 7.9254                 9.0163
 IR Inten    --      9.4626               114.6271                71.6589

 - Thermochemistry -
 -------------------
 Temperature   298.150 Kelvin.  Pressure   1.00000 Atm.
 Atom     1 has atomic number  7 and mass  14.00307

 Molecular mass:   173.04768 amu.
 Principal axes and moments of inertia in atomic units:
                           1         2         3
     Eigenvalues --  1403.882232307.092133710.97436
           X            0.97754  -0.16856   0.12652
           Y            0.19241   0.95873  -0.20933
           Z           -0.08601   0.22897   0.96963
 This molecule is an asymmetric top.
 Rotational symmetry number  1.
 Warning -- assumption of classical behavior for rotation
           may cause significant error
 Rotational temperatures (Kelvin)      0.06170     0.03754     0.02334
 Rotational constants (GHZ):           1.28554     0.78226     0.48633
 Zero-point vibrational energy     390149.7 (Joules/Mol)
                                   93.24803 (Kcal/Mol)
 Warning -- explicit consideration of  15 degrees of freedom as
           vibrations may cause significant error
 Vibrational temperatures:     75.33   168.24   212.63   229.68   309.07
          (Kelvin)            372.66   476.19   554.50   576.97   583.78
                              641.01   668.96   707.03   756.47   803.10
                              948.52   967.12   980.35  1031.15  1062.77
                             1123.53  1156.66  1161.72  1234.66  1314.61
                             1435.19  1436.06  1462.73  1516.62  1525.93
                             1593.58  1643.39  1702.40  1785.47  1844.68
                             1864.75  1919.06  1963.49  2027.69  2134.42
                             2165.58  2299.21  2320.95  2344.47  2393.97
                             2435.21  2486.25  4560.66  4563.30  4581.42
                             4602.23  4606.29  5158.95  5357.81

 Zero-point correction=                           0.148600 (Hartree/Particle)
 Thermal correction to Energy=                    0.158961
 Thermal correction to Enthalpy=                  0.159905
 Thermal correction to Gibbs Free Energy=         0.112458
 Sum of electronic and zero-point Energies=           -590.501351
 Sum of electronic and thermal Energies=              -590.490990
 Sum of electronic and thermal Enthalpies=            -590.490046
 Sum of electronic and thermal Free Energies=         -590.537493

                     E (Thermal)             CV                S
                      KCal/Mol        Cal/Mol-Kelvin    Cal/Mol-Kelvin
 Total                   99.749             40.527             99.860
 Electronic               0.000              0.000              0.000
 Translational            0.889              2.981             41.353
 Rotational               0.889              2.981             30.864
 Vibrational             97.972             34.565             27.643
 Vibration     1          0.596              1.977              4.726
 Vibration     2          0.608              1.935              3.150
 Vibration     3          0.617              1.905              2.701
 Vibration     4          0.622              1.892              2.554
 Vibration     5          0.645              1.818              2.002
 Vibration     6          0.668              1.748              1.668
 Vibration     7          0.713              1.614              1.255
 Vibration     8          0.754              1.501              1.018
 Vibration     9          0.767              1.468              0.959
 Vibration    10          0.771              1.458              0.942
 Vibration    11          0.805              1.371              0.809
 Vibration    12          0.822              1.328              0.752
 Vibration    13          0.847              1.269              0.680
 Vibration    14          0.881              1.193              0.597
 Vibration    15          0.914              1.122              0.527

 Optimization completed.
    -- Stationary point found.
 Normal termination of Gaussian 16 at Mon Jan  8 01:43:52 2024.
