 Gaussian 16, Revision A.03,
 Gaussian 16:  ES64L-G16RevA.03 25-Dec-2016

 ----------------------------------------------------------------------
 #P UB3LYP/6-311++G(d,p) nosym opt freq SCRF=(PCM,Solvent=n,n-DiMethylF
 ormamide)
 ----------------------------------------------------------------------

 -------
 Reduced
 -------
 Symbolic Z-matrix:
 Charge = -2 Multiplicity = 1

 SCF Done:  E(UB3LYP) =  -5639.68661912     A.U. after   17 cycles
 SCF Done:  E(UB3LYP) =  -5639.68783392     A.U. after   13 cycles
 SCF Done:  E(UB3LYP) =  -5639.68811012     A.U. after   13 cycles
 SCF Done:  E(UB3LYP) =  -5639.68812769     A.U. after   12 cycles
 SCF Done:  E(UB3LYP) =  -5639.68813364     A.U. after   11 cycles
 SCF Done:  E(UB3LYP) =  -5639.68813536     A.U. after   11 cycles
 SCF Done:  E(UB3LYP) =  -5639.68813588     A.U. after   11 cycles
 Optimization completed.
    -- Stationary point found.
 Normal termination of Gaussian 16 at Sat Feb 10 10:23:13 2024.

 ----------------------------------------------------------------------
 #P Geom=AllCheck Guess=TCheck SCRF=Check GenChk UB3LYP/6-311++G(d,p) F
 req
 ----------------------------------------------------------------------

 Structure from the checkpoint file:  "024-an.chk"
 -------
 Reduced
 -------
 Charge = -2 Multiplicity = 1

                          Input orientation:
 ---------------------------------------------------------------------
 Center     Atomic      Atomic             Coordinates (Angstroms)
 Number     Number       Type             X           Y           Z
 ---------------------------------------------------------------------
      1          6           0       -1.691166    0.830393    1.642632
      2          6           0       -2.828139    1.137670    0.827302
      3          6           0       -2.758023    1.024214   -0.565021
      4          6           0       -1.619114    0.617108   -1.307347
      5          6           0       -0.482052    0.310106   -0.492034
      6          6           0       -0.552172    0.423555    0.900290
      7          8           0       -1.544998    0.524739   -2.609024
      8          8           0       -1.765117    0.923288    2.944282
      9         35           0        1.051623    0.001115    1.932677
     10         35           0       -4.361677    1.447123   -1.597436
     11          7           0        0.665877   -0.155338   -1.183907
     12          7           0       -3.975971    1.603360    1.519165
     13          1           0        0.555420    0.088471   -2.164953
     14          1           0        1.536561    0.205757   -0.811476
     15          1           0       -3.865591    1.359434    2.500190
     16          1           0       -4.846731    1.242494    1.146692
 ---------------------------------------------------------------------

 SCF Done:  E(UB3LYP) =  -5639.68813588     A.U. after    1 cycles

 Alpha  occ. eigenvalues -- -482.80625-482.80625 -62.45906 -62.45906 -56.27903
 Alpha  occ. eigenvalues --  -56.27903 -56.27580 -56.27580 -56.27558 -56.27558
 Alpha  occ. eigenvalues --  -19.02345 -19.02345 -14.28832 -14.28832 -10.18067
 Alpha  occ. eigenvalues --  -10.18066 -10.17903 -10.17901 -10.17008 -10.17007
 Alpha  occ. eigenvalues --   -8.66866  -8.66865  -6.49879  -6.49878  -6.48800
 Alpha  occ. eigenvalues --   -6.48800  -6.48740  -6.48740  -2.60995  -2.60995
 Alpha  occ. eigenvalues --   -2.60694  -2.60694  -2.60650  -2.60649  -2.59792
 Alpha  occ. eigenvalues --   -2.59791  -2.59791  -2.59790  -0.94288  -0.93595
 Alpha  occ. eigenvalues --   -0.87646  -0.87512  -0.79769  -0.77853  -0.74295
 Alpha  occ. eigenvalues --   -0.66395  -0.64825  -0.55587  -0.54516  -0.51099
 Alpha  occ. eigenvalues --   -0.45527  -0.44681  -0.44298  -0.40739  -0.38752
 Alpha  occ. eigenvalues --   -0.37411  -0.36639  -0.36287  -0.33619  -0.32805
 Alpha  occ. eigenvalues --   -0.32055  -0.28613  -0.27554  -0.27502  -0.27315
 Alpha  occ. eigenvalues --   -0.26562  -0.21586  -0.21021  -0.20573  -0.18108
 Alpha  occ. eigenvalues --   -0.11903
 Alpha virt. eigenvalues --   -0.01037   0.00305   0.01475   0.01491   0.02881
 Alpha virt. eigenvalues --    0.03238   0.03688   0.04248   0.04546   0.05472
 Alpha virt. eigenvalues --    0.05704   0.06591   0.07618   0.07779   0.07975

  Beta  occ. eigenvalues -- -482.80625-482.80625 -62.45906 -62.45906 -56.27903
  Beta  occ. eigenvalues --  -56.27903 -56.27580 -56.27580 -56.27558 -56.27558
  Beta  occ. eigenvalues --  -19.02345 -19.02345 -14.28832 -14.28832 -10.18067
  Beta  occ. eigenvalues --  -10.18066 -10.17903 -10.17901 -10.17008 -10.17007
  Beta  occ. eigenvalues --   -8.66866  -8.66865  -6.49879  -6.49878  -6.48800
  Beta  occ. eigenvalues --   -6.48800  -6.48740  -6.48740  -2.60995  -2.60995
  Beta  occ. eigenvalues --   -2.60694  -2.60694  -2.60650  -2.60649  -2.59792
  Beta  occ. eigenvalues --   -2.59791  -2.59791  -2.59790  -0.94288  -0.93595
  Beta  occ. eigenvalues --   -0.87646  -0.87512  -0.79769  -0.77853  -0.74295
  Beta  occ. eigenvalues --   -0.66395  -0.64825  -0.55587  -0.54516  -0.51099
  Beta  occ. eigenvalues --   -0.45527  -0.44681  -0.44298  -0.40739  -0.38752
  Beta  occ. eigenvalues --   -0.37411  -0.36639  -0.36287  -0.33619  -0.32805
  Beta  occ. eigenvalues --   -0.32055  -0.28613  -0.27554  -0.27502  -0.27315
  Beta  occ. eigenvalues --   -0.26562  -0.21586  -0.21021  -0.20573  -0.18108
  Beta  occ. eigenvalues --   -0.11903
  Beta virt. eigenvalues --   -0.01037   0.00305   0.01475   0.01491   0.02881
  Beta virt. eigenvalues --    0.03238   0.03688   0.04248   0.04546   0.05472
  Beta virt. eigenvalues --    0.05704   0.06591   0.07618   0.07779   0.07975

 Mulliken charges and spin densities:
               1          2
     1  C   -0.748611   0.000000
     2  C   -0.791218  -0.000000
     3  C    1.307926   0.000000
     4  C   -0.748486  -0.000000
     5  C   -0.791669  -0.000000
     6  C    1.307952   0.000000
     7  O   -0.683418  -0.000000
     8  O   -0.683419   0.000000
     9  Br  -0.214986   0.000000
    10  Br  -0.214973   0.000000
    11  N   -0.373902   0.000000
    12  N   -0.373916   0.000000
    13  H    0.266703  -0.000000
    14  H    0.237656   0.000000
    15  H    0.266729   0.000000
    16  H    0.237635  -0.000000
 Sum of Mulliken charges =  -2.00000   0.00000

 Dipole moment (field-independent basis, Debye):
    X=             15.8988    Y=             -6.9550    Z=             -1.6105  Tot=             17.4281
 Quadrupole moment (field-independent basis, Debye-Ang):
   XX=           -140.0182   YY=           -117.3988   ZZ=           -163.1475
   XY=             22.8342   XZ=             -8.1467   YZ=             -5.7224

  Exact polarizability: 275.590 -44.771 148.662  19.630   3.630 273.865
 Approx polarizability: 290.471 -45.550 159.907   9.984   8.075 309.113

                      1                      2                      3
                      A                      A                      A
 Frequencies --     68.0245               117.3720               129.6629
 Red. masses --     14.1398                 6.5099                 7.3560
 Frc consts  --      0.0385                 0.0528                 0.0729
 IR Inten    --      5.0112                33.5111                 0.0000

                      4                      5                      6
                      A                      A                      A
 Frequencies --    157.5270               187.3101               192.0522
 Red. masses --     16.2235                 7.6766                15.1358
 Frc consts  --      0.2372                 0.1587                 0.3289
 IR Inten    --     12.8953                 8.6661                 0.0001

                      7                      8                      9
                      A                      A                      A
 Frequencies --    196.3714               258.0601               280.6352
 Red. masses --     13.9764                 2.6551                 1.2648
 Frc consts  --      0.3175                 0.1042                 0.0587
 IR Inten    --      0.0000                49.5242                 0.0002

                     10                     11                     12
                      A                      A                      A
 Frequencies --    286.7912               310.5773               327.9840
 Red. masses --      1.5907                 6.7027                10.5260
 Frc consts  --      0.0771                 0.3809                 0.6671
 IR Inten    --    160.8145                 0.0001                 0.0000

                     13                     14                     15
                      A                      A                      A
 Frequencies --    344.3537               354.6975               449.3296
 Red. masses --      4.0925                 3.0309                 7.4866
 Frc consts  --      0.2859                 0.2247                 0.8906
 IR Inten    --      3.6927                 0.0000                34.9400

                     16                     17                     18
                      A                      A                      A
 Frequencies --    454.0081               527.3347               535.1540
 Red. masses --      8.5784                 9.8507                 7.4519
 Frc consts  --      1.0418                 1.6139                 1.2574
 IR Inten    --      0.0000                 0.0000                30.2643

                     19                     20                     21
                      A                      A                      A
 Frequencies --    689.6286               705.7407               719.2769
 Red. masses --      5.6407                 5.9957                 5.6240
 Frc consts  --      1.5806                 1.7595                 1.7143
 IR Inten    --    216.6488                 0.0004                 0.0022

                     22                     23                     24
                      A                      A                      A
 Frequencies --    723.3669               810.5052               812.7577
 Red. masses --      8.8833                 2.2761                 1.6025
 Frc consts  --      2.7387                 0.8810                 0.6237
 IR Inten    --    483.2299                 0.0328               848.1221

                     25                     26                     27
                      A                      A                      A
 Frequencies --    836.4768               972.2491              1076.5325
 Red. masses --      2.9415                 4.3601                 2.5473
 Frc consts  --      1.2126                 2.4283                 1.7393
 IR Inten    --      0.0002                93.5132               400.9170

                     28                     29                     30
                      A                      A                      A
 Frequencies --   1141.5971              1159.3283              1185.4443
 Red. masses --      3.0177                10.6232                 2.0161
 Frc consts  --      2.3172                 8.4124                 1.6692
 IR Inten    --      0.0000               619.3599                 0.0000

                     31                     32                     33
                      A                      A                      A
 Frequencies --   1301.5758              1394.9464              1407.2853
 Red. masses --      2.5664                 9.2314                 6.0604
 Frc consts  --      2.5616                10.5836                 7.0716
 IR Inten    --     87.2013                 0.0000              1503.3289

                     34                     35                     36
                      A                      A                      A
 Frequencies --   1468.0349              1470.2987              1571.1795
 Red. masses --      8.3104                 5.7740                 1.2740
 Frc consts  --     10.5523                 7.3543                 1.8530
 IR Inten    --    291.9188                 0.0000                 0.0001

                     37                     38                     39
                      A                      A                      A
 Frequencies --   1576.1068              1604.3221              3471.8588
 Red. masses --      1.1435                 5.0822                 1.0495
 Frc consts  --      1.6736                 7.7070                 7.4534
 IR Inten    --    150.0702                 0.0000                 0.0004

                     40                     41                     42
                      A                      A                      A
 Frequencies --   3472.1765              3577.2948              3577.4904
 Red. masses --      1.0494                 1.0942                 1.0943
 Frc consts  --      7.4542                 8.2504                 8.2515
 IR Inten    --     44.3446                70.8041                 0.0008

 - Thermochemistry -
 -------------------
 Temperature   298.150 Kelvin.  Pressure   1.00000 Atm.
 Atom     1 has atomic number  6 and mass  12.00000

 Molecular mass:   293.86395 amu.
 Principal axes and moments of inertia in atomic units:
                           1         2         3
     Eigenvalues --  1681.523386861.249808537.49546
           X            0.81823  -0.49303   0.29567
           Y           -0.21931   0.20772   0.95329
           Z            0.53142   0.84485  -0.06183
 This molecule is an asymmetric top.
 Rotational symmetry number  1.
 Warning -- assumption of classical behavior for rotation
           may cause significant error
 Rotational temperatures (Kelvin)      0.05151     0.01262     0.01015
 Rotational constants (GHZ):           1.07328     0.26303     0.21139
 Zero-point vibrational energy     250633.9 (Joules/Mol)
                                   59.90294 (Kcal/Mol)
 Warning -- explicit consideration of  18 degrees of freedom as
           vibrations may cause significant error
 Vibrational temperatures:     97.87   168.87   186.56   226.65   269.50
          (Kelvin)            276.32   282.53   371.29   403.77   412.63
                              446.85   471.90   495.45   510.33   646.49
                              653.22   758.72   769.97   992.22  1015.40
                             1034.88  1040.76  1166.14  1169.38  1203.50
                             1398.85  1548.89  1642.50  1668.01  1705.59
                             1872.68  2007.02  2024.77  2112.17  2115.43
                             2260.58  2267.67  2308.26  4995.23  4995.69
                             5146.93  5147.21

 Zero-point correction=                           0.095461 (Hartree/Particle)
 Thermal correction to Energy=                    0.107456
 Thermal correction to Enthalpy=                  0.108400
 Thermal correction to Gibbs Free Energy=         0.056135
 Sum of electronic and zero-point Energies=          -5639.592674
 Sum of electronic and thermal Energies=             -5639.580680
 Sum of electronic and thermal Enthalpies=           -5639.579735
 Sum of electronic and thermal Free Energies=        -5639.632001

                     E (Thermal)             CV                S
                      KCal/Mol        Cal/Mol-Kelvin    Cal/Mol-Kelvin
 Total                   67.430             43.092            110.002
 Electronic               0.000              0.000              0.000
 Translational            0.889              2.981             42.931
 Rotational               0.889              2.981             32.954
 Vibrational             65.652             37.131             34.117
 Vibration     1          0.598              1.969              4.210
 Vibration     2          0.608              1.935              3.143
 Vibration     3          0.612              1.924              2.951
 Vibration     4          0.621              1.894              2.579
 Vibration     5          0.632              1.857              2.254
 Vibration     6          0.634              1.851              2.208
 Vibration     7          0.636              1.845              2.167
 Vibration     8          0.667              1.749              1.675
 Vibration     9          0.680              1.709              1.530
 Vibration    10          0.684              1.698              1.493
 Vibration    11          0.699              1.654              1.359
 Vibration    12          0.711              1.620              1.270
 Vibration    13          0.723              1.587              1.192
 Vibration    14          0.731              1.566              1.145
 Vibration    15          0.808              1.362              0.798
 Vibration    16          0.812              1.352              0.784
 Vibration    17          0.882              1.189              0.593
 Vibration    18          0.890              1.172              0.576

                           ! Non-Optimized Parameters !
 Normal termination of Gaussian 16 at Sat Feb 10 10:44:36 2024.
