 Gaussian 16, Revision A.03,
 Gaussian 16:  ES64L-G16RevA.03 25-Dec-2016

 ----------------------------------------------------------------
 #P UB3LYP/6-311++G(d,p) SCRF=(PCM,Solvent=n,n-DiMethylFormamide)
 ----------------------------------------------------------------

 -------
 Reduced
 -------
 Symbolic Z-matrix:
 Charge = -2 Multiplicity = 1

                         Standard orientation:
 ---------------------------------------------------------------------
 Center     Atomic      Atomic             Coordinates (Angstroms)
 Number     Number       Type             X           Y           Z
 ---------------------------------------------------------------------
      1          6           0       -3.825412   -2.314935   -0.007071
      2          6           0       -5.130329   -1.884751   -0.006230
      3          6           0       -5.433998   -0.497655   -0.000222
      4          6           0       -2.735281   -1.384724   -0.002131
      5          6           0       -3.045673    0.016111    0.004311
      6          6           0       -4.398068    0.416301    0.005184
      7          6           0       -1.403785   -1.818827   -0.002607
      8          6           0       -2.008016    1.042959    0.011119
      9          6           0       -0.337316   -0.886695    0.000561
     10          6           0       -0.622304    0.554836    0.003908
     11          6           0        1.042019   -1.312185    0.000609
     12          6           0        2.070584   -0.399838    0.000522
     13          6           0        1.811744    0.984070   -0.000948
     14          6           0        0.506833    1.417463    0.000737
     15          8           0       -1.201246   -3.189252   -0.006875
     16          8           0       -2.318606    2.261780    0.022649
     17          1           0       -3.588966   -3.371948   -0.011573
     18          1           0       -5.937643   -2.614400   -0.010220
     19          1           0       -6.467951   -0.163117    0.000207
     20          1           0       -4.584708    1.484886    0.010400
     21         35           0        0.368383    3.367841   -0.007231
     22          7           0        1.356755   -2.737907    0.000664
     23         16           0        3.808299   -0.983575    0.002058
     24          8           0        3.932283   -1.803571    1.246287
     25          8           0        3.931950   -1.810883   -1.237653
     26          8           0        4.648931    0.237696   -0.001843
     27          1           0        2.642850    1.673442   -0.003789
     28          1           0       -0.214968   -3.312855   -0.006142
     29          1           0        1.961799   -2.914796    0.804181
     30          1           0        1.973657   -2.912052   -0.794535
 ---------------------------------------------------------------------

 SCF Done:  E(UB3LYP) =  -3942.06102424     A.U. after   17 cycles

 The electronic state is 1-A.
 Alpha  occ. eigenvalues -- -482.81527 -89.04598 -62.46803 -56.28837 -56.28471
 Alpha  occ. eigenvalues --  -56.28425 -19.10931 -19.09349 -19.08951 -19.08949
 Alpha  occ. eigenvalues --  -19.04725 -14.31171 -10.22636 -10.21431 -10.21371
 Alpha  occ. eigenvalues --  -10.20245 -10.19223 -10.18508 -10.17740 -10.17084
 Alpha  occ. eigenvalues --  -10.16734 -10.16690 -10.16172 -10.16148 -10.16083
 Alpha  occ. eigenvalues --  -10.15696  -8.67764  -8.10478  -6.50887  -6.49676
 Alpha  occ. eigenvalues --   -6.49542  -6.06757  -6.06739  -6.06649  -2.61981
 Alpha  occ. eigenvalues --   -2.61664  -2.61562  -2.60598  -2.60595  -1.10816
 Alpha  occ. eigenvalues --   -1.02165  -0.97934  -0.97572  -0.96833  -0.91308
 Alpha  occ. eigenvalues --   -0.85714  -0.84485  -0.79462  -0.78004  -0.74488
 Alpha  occ. eigenvalues --   -0.73763  -0.71540  -0.67376  -0.64873  -0.62458
 Alpha  occ. eigenvalues --   -0.59290  -0.56869  -0.56036  -0.53801  -0.51533
 Alpha  occ. eigenvalues --   -0.49930  -0.49157  -0.48193  -0.48066  -0.46567
 Alpha  occ. eigenvalues --   -0.45304  -0.44722  -0.43293  -0.42928  -0.41832
 Alpha  occ. eigenvalues --   -0.41353  -0.40933  -0.40177  -0.38778  -0.37442
 Alpha  occ. eigenvalues --   -0.37213  -0.36037  -0.35787  -0.34448  -0.33482
 Alpha  occ. eigenvalues --   -0.33457  -0.33278  -0.32582  -0.31089  -0.29945
 Alpha  occ. eigenvalues --   -0.29504  -0.29341  -0.28178  -0.26800  -0.26437
 Alpha  occ. eigenvalues --   -0.25676  -0.24562  -0.24129  -0.23948  -0.21263
 Alpha  occ. eigenvalues --   -0.14376
 Alpha virt. eigenvalues --   -0.05207  -0.02152  -0.01266  -0.00274  -0.00175
 Alpha virt. eigenvalues --    0.00640   0.01318   0.02314   0.02516   0.03889
 Alpha virt. eigenvalues --    0.03975   0.04472   0.04486   0.04798   0.05352

  Beta  occ. eigenvalues -- -482.81527 -89.04598 -62.46803 -56.28837 -56.28471
  Beta  occ. eigenvalues --  -56.28425 -19.10931 -19.09349 -19.08951 -19.08949
  Beta  occ. eigenvalues --  -19.04725 -14.31171 -10.22636 -10.21431 -10.21371
  Beta  occ. eigenvalues --  -10.20245 -10.19223 -10.18508 -10.17740 -10.17084
  Beta  occ. eigenvalues --  -10.16734 -10.16690 -10.16172 -10.16148 -10.16083
  Beta  occ. eigenvalues --  -10.15696  -8.67764  -8.10478  -6.50887  -6.49676
  Beta  occ. eigenvalues --   -6.49542  -6.06757  -6.06739  -6.06649  -2.61981
  Beta  occ. eigenvalues --   -2.61664  -2.61562  -2.60598  -2.60595  -1.10816
  Beta  occ. eigenvalues --   -1.02165  -0.97934  -0.97572  -0.96833  -0.91308
  Beta  occ. eigenvalues --   -0.85714  -0.84485  -0.79462  -0.78004  -0.74488
  Beta  occ. eigenvalues --   -0.73763  -0.71540  -0.67376  -0.64873  -0.62458
  Beta  occ. eigenvalues --   -0.59290  -0.56869  -0.56036  -0.53801  -0.51533
  Beta  occ. eigenvalues --   -0.49930  -0.49157  -0.48193  -0.48066  -0.46567
  Beta  occ. eigenvalues --   -0.45304  -0.44722  -0.43293  -0.42928  -0.41832
  Beta  occ. eigenvalues --   -0.41353  -0.40933  -0.40177  -0.38778  -0.37442
  Beta  occ. eigenvalues --   -0.37213  -0.36037  -0.35787  -0.34448  -0.33482
  Beta  occ. eigenvalues --   -0.33457  -0.33278  -0.32582  -0.31089  -0.29945
  Beta  occ. eigenvalues --   -0.29504  -0.29341  -0.28178  -0.26800  -0.26437
  Beta  occ. eigenvalues --   -0.25676  -0.24562  -0.24129  -0.23948  -0.21263
  Beta  occ. eigenvalues --   -0.14376
  Beta virt. eigenvalues --   -0.05207  -0.02152  -0.01266  -0.00274  -0.00175
  Beta virt. eigenvalues --    0.00640   0.01318   0.02314   0.02516   0.03889
  Beta virt. eigenvalues --    0.03975   0.04472   0.04486   0.04798   0.05352

 Mulliken charges and spin densities:
               1          2
     1  C   -0.190553  -0.000000
     2  C   -0.459004  -0.000000
     3  C   -0.458531   0.000000
     4  C    0.244818   0.000000
     5  C    0.265042   0.000000
     6  C   -0.000439   0.000000
     7  C   -0.341150  -0.000000
     8  C   -0.952493  -0.000000
     9  C    0.185476   0.000000
    10  C    0.837011  -0.000000
    11  C   -0.266704   0.000000
    12  C   -0.812310   0.000000
    13  C   -0.075915   0.000000
    14  C    0.214992  -0.000000
    15  O   -0.493913  -0.000000
    16  O   -0.435508  -0.000000
    17  H    0.152629   0.000000
    18  H    0.175647  -0.000000
    19  H    0.171784   0.000000
    20  H    0.163582   0.000000
    21  Br  -0.192345   0.000000
    22  N   -0.583677   0.000000
    23  S    0.515104  -0.000000
    24  O   -0.402581  -0.000000
    25  O   -0.402916  -0.000000
    26  O   -0.281233  -0.000000
    27  H    0.269603  -0.000000
    28  H    0.501685   0.000000
    29  H    0.325996   0.000000
    30  H    0.325901   0.000000
 Sum of Mulliken charges =  -2.00000   0.00000

 Dipole moment (field-independent basis, Debye):
    X=             -9.4393    Y=              0.2531    Z=             -0.0417  Tot=              9.4428
 Quadrupole moment (field-independent basis, Debye-Ang):
   XX=           -267.5688   YY=           -194.6390   ZZ=           -163.6592
   XY=             21.0732   XZ=              0.0976   YZ=             -0.1706

 Normal termination of Gaussian 16 at Wed Jan 17 10:11:05 2024.
