 Gaussian 16, Revision A.03,

 -------------------------
 #P HF/6-311++G(d,p) nosym
 -------------------------

 -------
 Reduced
 -------
 Symbolic Z-matrix:
 Charge = -2 Multiplicity = 1

 SCF Done:  E(RHF) =  -3933.56898681     A.U. after   26 cycles
 Normal termination of Gaussian 16 at Thu Jan  4 21:41:22 2024.
 Gaussian 16:  ES64L-G16RevA.03 25-Dec-2016

 ------------------------------------------------------------------
 #P UB3LYP/6-311++G(d,p) nosym guess=read geom=check nosym opt freq
 ------------------------------------------------------------------

 --------------------------------------------
 Then read in here HF orbitals and run UB3LYP
 --------------------------------------------
 Structure from the checkpoint file:  "163-an-new.chk"
 Charge = -2 Multiplicity = 1

 SCF Done:  E(UB3LYP) =  -3941.77420419     A.U. after   20 cycles
 SCF Done:  E(UB3LYP) =  -3941.79702555     A.U. after   17 cycles
 SCF Done:  E(UB3LYP) =  -3941.79926444     A.U. after   15 cycles
 SCF Done:  E(UB3LYP) =  -3941.81094628     A.U. after   15 cycles
 SCF Done:  E(UB3LYP) =  -3941.81374462     A.U. after   15 cycles
 SCF Done:  E(UB3LYP) =  -3941.81816057     A.U. after   15 cycles
 SCF Done:  E(UB3LYP) =  -3941.82040889     A.U. after   15 cycles
 SCF Done:  E(UB3LYP) =  -3941.81899002     A.U. after   16 cycles
 SCF Done:  E(UB3LYP) =  -3941.82591688     A.U. after   15 cycles
 SCF Done:  E(UB3LYP) =  -3941.83216062     A.U. after   11 cycles
 SCF Done:  E(UB3LYP) =  -3941.83216098     A.U. after    9 cycles
 SCF Done:  E(UB3LYP) =  -3941.83216128     A.U. after    9 cycles
 SCF Done:  E(UB3LYP) =  -3941.83216146     A.U. after    9 cycles
 SCF Done:  E(UB3LYP) =  -3941.83216162     A.U. after    9 cycles
 SCF Done:  E(UB3LYP) =  -3941.83216174     A.U. after    9 cycles
 SCF Done:  E(UB3LYP) =  -3941.83216187     A.U. after   10 cycles
 SCF Done:  E(UB3LYP) =  -3941.83216198     A.U. after   10 cycles
 SCF Done:  E(UB3LYP) =  -3941.83216205     A.U. after    9 cycles
 Optimization completed.
    -- Stationary point found.
 Normal termination of Gaussian 16 at Thu Jan  4 23:48:48 2024.

 ----------------------------------------------------------------------
 #P Geom=AllCheck Guess=TCheck SCRF=Check GenChk UB3LYP/6-311++G(d,p) F
 req
 ----------------------------------------------------------------------

 Structure from the checkpoint file:  "163-an-new.chk"
 --------------------------------------------
 Then read in here HF orbitals and run UB3LYP
 --------------------------------------------
 Charge = -2 Multiplicity = 1

                         Standard orientation:
 ---------------------------------------------------------------------
 Center     Atomic      Atomic             Coordinates (Angstroms)
 Number     Number       Type             X           Y           Z
 ---------------------------------------------------------------------
      1          6           0       -3.825412   -2.314935   -0.007071
      2          6           0       -5.130329   -1.884751   -0.006230
      3          6           0       -5.433998   -0.497655   -0.000222
      4          6           0       -2.735281   -1.384724   -0.002131
      5          6           0       -3.045673    0.016111    0.004311
      6          6           0       -4.398068    0.416301    0.005184
      7          6           0       -1.403785   -1.818827   -0.002607
      8          6           0       -2.008016    1.042959    0.011119
      9          6           0       -0.337316   -0.886695    0.000561
     10          6           0       -0.622304    0.554836    0.003908
     11          6           0        1.042019   -1.312185    0.000609
     12          6           0        2.070584   -0.399838    0.000522
     13          6           0        1.811744    0.984070   -0.000948
     14          6           0        0.506833    1.417463    0.000737
     15          8           0       -1.201246   -3.189252   -0.006875
     16          8           0       -2.318606    2.261780    0.022649
     17          1           0       -3.588966   -3.371948   -0.011573
     18          1           0       -5.937643   -2.614400   -0.010220
     19          1           0       -6.467951   -0.163117    0.000207
     20          1           0       -4.584708    1.484886    0.010400
     21         35           0        0.368383    3.367841   -0.007231
     22          7           0        1.356755   -2.737907    0.000664
     23         16           0        3.808299   -0.983575    0.002058
     24          8           0        3.932283   -1.803571    1.246287
     25          8           0        3.931950   -1.810883   -1.237653
     26          8           0        4.648931    0.237696   -0.001843
     27          1           0        2.642850    1.673442   -0.003789
     28          1           0       -0.214968   -3.312855   -0.006142
     29          1           0        1.961799   -2.914796    0.804181
     30          1           0        1.973657   -2.912052   -0.794535
 ---------------------------------------------------------------------

 SCF Done:  E(UB3LYP) =  -3941.83216205     A.U. after    2 cycles

 The electronic state is 1-A.
 Alpha  occ. eigenvalues -- -482.60940 -88.82008 -62.26215 -56.08243 -56.07886
 Alpha  occ. eigenvalues --  -56.07840 -18.90182 -18.86468 -18.86275 -18.86272
 Alpha  occ. eigenvalues --  -18.83597 -14.10690 -10.01791 -10.00547 -10.00233
 Alpha  occ. eigenvalues --   -9.99367  -9.97925  -9.97772  -9.97735  -9.96937
 Alpha  occ. eigenvalues --   -9.96871  -9.96707  -9.96551  -9.96351  -9.96038
 Alpha  occ. eigenvalues --   -9.95275  -8.47174  -7.87866  -6.30284  -6.29096
 Alpha  occ. eigenvalues --   -6.28957  -5.84133  -5.84119  -5.84064  -2.41382
 Alpha  occ. eigenvalues --   -2.41071  -2.40965  -2.40018  -2.40016  -0.88028
 Alpha  occ. eigenvalues --   -0.81403  -0.76677  -0.74711  -0.74061  -0.70534
 Alpha  occ. eigenvalues --   -0.65174  -0.64193  -0.59008  -0.57118  -0.54576
 Alpha  occ. eigenvalues --   -0.53460  -0.50794  -0.46639  -0.44114  -0.42106
 Alpha  occ. eigenvalues --   -0.38500  -0.36228  -0.35417  -0.33352  -0.30773
 Alpha  occ. eigenvalues --   -0.29299  -0.28648  -0.27709  -0.26600  -0.26064
 Alpha  occ. eigenvalues --   -0.23348  -0.22704  -0.22552  -0.22014  -0.21811
 Alpha  occ. eigenvalues --   -0.20970  -0.20085  -0.19687  -0.17830  -0.16769
 Alpha  occ. eigenvalues --   -0.16366  -0.15322  -0.15302  -0.14452  -0.12716
 Alpha  occ. eigenvalues --   -0.12629  -0.10792  -0.10449  -0.09902  -0.07979
 Alpha  occ. eigenvalues --   -0.07494  -0.07318  -0.06716  -0.05682  -0.05521
 Alpha  occ. eigenvalues --   -0.04554  -0.03475  -0.03058  -0.02554  -0.00113
 Alpha  occ. eigenvalues --    0.06457
 Alpha virt. eigenvalues --    0.13881   0.15378   0.15758   0.17219   0.17599
 Alpha virt. eigenvalues --    0.18209   0.18850   0.19672   0.19754   0.20070
 Alpha virt. eigenvalues --    0.21920   0.22222   0.22434   0.22796   0.22926

  Beta  occ. eigenvalues -- -482.60940 -88.82008 -62.26215 -56.08243 -56.07886
  Beta  occ. eigenvalues --  -56.07840 -18.90182 -18.86468 -18.86275 -18.86272
  Beta  occ. eigenvalues --  -18.83597 -14.10690 -10.01791 -10.00547 -10.00233
  Beta  occ. eigenvalues --   -9.99367  -9.97925  -9.97772  -9.97735  -9.96937
  Beta  occ. eigenvalues --   -9.96871  -9.96707  -9.96551  -9.96351  -9.96038
  Beta  occ. eigenvalues --   -9.95275  -8.47174  -7.87866  -6.30284  -6.29096
  Beta  occ. eigenvalues --   -6.28957  -5.84133  -5.84119  -5.84064  -2.41382
  Beta  occ. eigenvalues --   -2.41071  -2.40965  -2.40018  -2.40016  -0.88028
  Beta  occ. eigenvalues --   -0.81403  -0.76677  -0.74711  -0.74061  -0.70534
  Beta  occ. eigenvalues --   -0.65174  -0.64193  -0.59008  -0.57118  -0.54576
  Beta  occ. eigenvalues --   -0.53460  -0.50794  -0.46639  -0.44114  -0.42106
  Beta  occ. eigenvalues --   -0.38500  -0.36228  -0.35417  -0.33352  -0.30773
  Beta  occ. eigenvalues --   -0.29299  -0.28648  -0.27709  -0.26600  -0.26064
  Beta  occ. eigenvalues --   -0.23348  -0.22704  -0.22552  -0.22014  -0.21811
  Beta  occ. eigenvalues --   -0.20970  -0.20085  -0.19687  -0.17830  -0.16769
  Beta  occ. eigenvalues --   -0.16366  -0.15322  -0.15302  -0.14452  -0.12716
  Beta  occ. eigenvalues --   -0.12629  -0.10792  -0.10449  -0.09902  -0.07979
  Beta  occ. eigenvalues --   -0.07494  -0.07318  -0.06716  -0.05682  -0.05521
  Beta  occ. eigenvalues --   -0.04554  -0.03475  -0.03058  -0.02554  -0.00113
  Beta  occ. eigenvalues --    0.06457
  Beta virt. eigenvalues --    0.13881   0.15378   0.15758   0.17219   0.17599
  Beta virt. eigenvalues --    0.18209   0.18850   0.19672   0.19754   0.20070
  Beta virt. eigenvalues --    0.21920   0.22222   0.22434   0.22796   0.22926

 Mulliken charges and spin densities:
               1          2
     1  C   -0.202131   0.000000
     2  C   -0.437673  -0.000000
     3  C   -0.409309   0.000000
     4  C    0.348066   0.000000
     5  C    0.393145  -0.000000
     6  C    0.004804  -0.000000
     7  C   -0.394921  -0.000000
     8  C   -1.177042  -0.000000
     9  C    0.203139  -0.000000
    10  C    0.853923  -0.000000
    11  C   -0.285160  -0.000000
    12  C   -0.788719   0.000000
    13  C   -0.113188  -0.000000
    14  C    0.318843   0.000000
    15  O   -0.457924   0.000000
    16  O   -0.323892   0.000000
    17  H    0.121076  -0.000000
    18  H    0.096539   0.000000
    19  H    0.093626  -0.000000
    20  H    0.152886  -0.000000
    21  Br  -0.279281  -0.000000
    22  N   -0.591165  -0.000000
    23  S    0.455176  -0.000000
    24  O   -0.359848  -0.000000
    25  O   -0.360195  -0.000000
    26  O   -0.226916   0.000000
    27  H    0.271911   0.000000
    28  H    0.487936   0.000000
    29  H    0.302987   0.000000
    30  H    0.303306   0.000000
 Sum of Mulliken charges =  -2.00000   0.00000

 Dipole moment (field-independent basis, Debye):
    X=             -5.6926    Y=              1.6481    Z=             -0.0274  Tot=              5.9265
 Quadrupole moment (field-independent basis, Debye-Ang):
   XX=           -284.1819   YY=           -200.4312   ZZ=           -163.9522
   XY=             13.4054   XZ=              0.0622   YZ=             -0.1407

  Exact polarizability: 432.151  22.486 300.911   0.039   0.235 142.263
 Approx polarizability: 667.342  31.210 539.557  -0.027   0.850 235.628

                      1                      2                      3
                      A                      A                      A
 Frequencies --     11.6494                33.8370                37.6499
 Red. masses --     11.5229                 9.6651                 8.2225
 Frc consts  --      0.0009                 0.0065                 0.0069
 IR Inten    --      2.0525                 1.5041                 0.4959

                      4                      5                      6
                      A                      A                      A
 Frequencies --     97.0346               117.8039               119.3151
 Red. masses --      8.6083                 5.7167                12.6905
 Frc consts  --      0.0478                 0.0467                 0.1064
 IR Inten    --      6.9460                 0.3866                 2.3698

                      7                      8                      9
                      A                      A                      A
 Frequencies --    136.1677               137.8752               165.0143
 Red. masses --     14.3726                 4.6961                 6.8817
 Frc consts  --      0.1570                 0.0526                 0.1104
 IR Inten    --      5.9315                 1.0373                 0.9042

                     10                     11                     12
                      A                      A                      A
 Frequencies --    211.2331               233.9159               234.9920
 Red. masses --     12.1351                 6.1389                 8.1140
 Frc consts  --      0.3190                 0.1979                 0.2640
 IR Inten    --      5.1502                 1.3977                 1.2089

                     13                     14                     15
                      A                      A                      A
 Frequencies --    258.6194               260.7899               290.4243
 Red. masses --      9.2713                 1.7552                 2.3555
 Frc consts  --      0.3654                 0.0703                 0.1171
 IR Inten    --      6.4568                11.2859                 7.8796

                     16                     17                     18
                      A                      A                      A
 Frequencies --    310.0930               364.7445               365.4663
 Red. masses --      7.9963                 7.9624                 8.1266
 Frc consts  --      0.4530                 0.6241                 0.6395
 IR Inten    --      9.1855                 3.4583                 2.3722

                     19                     20                     21
                      A                      A                      A
 Frequencies --    390.4185               395.4373               432.5893
 Red. masses --      6.8404                 8.2519                 6.8676
 Frc consts  --      0.6143                 0.7603                 0.7572
 IR Inten    --      1.8113                 2.5336                 9.2623

                     22                     23                     24
                      A                      A                      A
 Frequencies --    435.6591               446.8180               488.9737
 Red. masses --      7.4019                 3.7711                 9.9709
 Frc consts  --      0.8277                 0.4436                 1.4046
 IR Inten    --      5.3532                 0.5923                 2.1510

                     25                     26                     27
                      A                      A                      A
 Frequencies --    490.3820               507.9034               525.6237
 Red. masses --      8.8776                11.3504                 7.9462
 Frc consts  --      1.2578                 1.7251                 1.2935
 IR Inten    --      6.5969                21.6004                 9.0562

                     28                     29                     30
                      A                      A                      A
 Frequencies --    538.6123               578.2311               602.8759
 Red. masses --      4.7488                 6.6882                13.8832
 Frc consts  --      0.8117                 1.3175                 2.9730
 IR Inten    --     23.7041                 0.7638               229.8103

                     31                     32                     33
                      A                      A                      A
 Frequencies --    616.1118               619.4245               668.4132
 Red. masses --      6.3984                 5.6213                 5.8906
 Frc consts  --      1.4310                 1.2708                 1.5506
 IR Inten    --      2.3292                 0.1134                10.2394

                     34                     35                     36
                      A                      A                      A
 Frequencies --    696.1734               704.2875               707.3513
 Red. masses --      2.6460                10.6642                 6.5064
 Frc consts  --      0.7556                 3.1166                 1.9180
 IR Inten    --     38.6193               116.7765                 2.5709

                     37                     38                     39
                      A                      A                      A
 Frequencies --    715.3454               743.2750               798.2992
 Red. masses --      5.0627                 1.9944                 2.4838
 Frc consts  --      1.5264                 0.6492                 0.9326
 IR Inten    --      3.6907                25.7747                 2.2004

                     40                     41                     42
                      A                      A                      A
 Frequencies --    802.9612               831.5218               845.6706
 Red. masses --      7.4729                 2.4334                 1.2857
 Frc consts  --      2.8388                 0.9913                 0.5418
 IR Inten    --     17.9619                 3.9904                10.2936

                     43                     44                     45
                      A                      A                      A
 Frequencies --    883.5733               939.3790               951.2690
 Red. masses --      8.5666                 7.9068                 1.2180
 Frc consts  --      3.9405                 4.1109                 0.6494
 IR Inten    --     17.9964                77.9635                22.6995

                     46                     47                     48
                      A                      A                      A
 Frequencies --    954.0322               971.6053               974.7524
 Red. masses --      1.1077                 1.3230                 8.4811
 Frc consts  --      0.5940                 0.7359                 4.7478
 IR Inten    --     51.2601                 1.4883               225.8899

                     49                     50                     51
                      A                      A                      A
 Frequencies --    996.6245              1028.0198              1075.0457
 Red. masses --      6.5150                 2.0708                 4.0323
 Frc consts  --      3.8127                 1.2894                 2.7457
 IR Inten    --     74.4969                43.6036                10.3653

                     52                     53                     54
                      A                      A                      A
 Frequencies --   1094.7102              1117.7102              1123.8818
 Red. masses --      1.8797                16.7002                 2.1676
 Frc consts  --      1.3272                12.2922                 1.6132
 IR Inten    --    280.4781               294.2902                64.8610

                     55                     56                     57
                      A                      A                      A
 Frequencies --   1152.3629              1168.8208              1189.0858
 Red. masses --      1.4539                 5.8257                 1.9434
 Frc consts  --      1.1375                 4.6891                 1.6189
 IR Inten    --     60.1188                35.8602               156.8057

                     58                     59                     60
                      A                      A                      A
 Frequencies --   1198.1732              1223.2581              1240.6873
 Red. masses --      4.0898                 1.9807                 5.3051
 Frc consts  --      3.4593                 1.7462                 4.8114
 IR Inten    --     90.9115                 4.3031                62.3203

                     61                     62                     63
                      A                      A                      A
 Frequencies --   1258.4177              1261.6982              1341.2682
 Red. masses --      2.4188                 1.1914                 4.8877
 Frc consts  --      2.2569                 1.1174                 5.1807
 IR Inten    --     42.8213                 0.1982               168.5787

                     64                     65                     66
                      A                      A                      A
 Frequencies --   1358.8728              1368.9241              1408.7404
 Red. masses --      4.2315                 4.2827                 5.0437
 Frc consts  --      4.6037                 4.7286                 5.8974
 IR Inten    --     53.2076               135.8530               234.4325

                     67                     68                     69
                      A                      A                      A
 Frequencies --   1420.4042              1466.6362              1488.6342
 Red. masses --      2.8730                 2.2466                 2.8101
 Frc consts  --      3.4151                 2.8473                 3.6690
 IR Inten    --     96.8917               125.9962               176.9133

                     70                     71                     72
                      A                      A                      A
 Frequencies --   1511.6220              1539.4751              1561.2140
 Red. masses --      4.1998                 9.4485                 6.3588
 Frc consts  --      5.6541                13.1935                 9.1317
 IR Inten    --     66.8462               334.6295               165.8749

                     73                     74                     75
                      A                      A                      A
 Frequencies --   1581.3116              1609.9030              1636.1031
 Red. masses --      5.6254                 2.4055                 5.0358
 Frc consts  --      8.2878                 3.6732                 7.9422
 IR Inten    --     85.9324                 2.9988               143.2974

                     76                     77                     78
                      A                      A                      A
 Frequencies --   1673.6518              3109.6530              3135.3012
 Red. masses --      1.1679                 1.0844                 1.0903
 Frc consts  --      1.9274                 6.1780                 6.3147
 IR Inten    --     35.0182                44.2572               107.5939

                     79                     80                     81
                      A                      A                      A
 Frequencies --   3162.4214              3172.1697              3186.6091
 Red. masses --      1.0699                 1.0912                 1.0911
 Frc consts  --      6.3041                 6.4696                 6.5279
 IR Inten    --    692.1266                14.6312                34.2523

                     82                     83                     84
                      A                      A                      A
 Frequencies --   3223.6828              3432.8380              3464.9189
 Red. masses --      1.0903                 1.0505                 1.0887
 Frc consts  --      6.6758                 7.2936                 7.7008
 IR Inten    --     20.1486                47.7553                25.3479

 - Thermochemistry -
 -------------------
 Temperature   298.150 Kelvin.  Pressure   1.00000 Atm.
 Atom     1 has atomic number  6 and mass  12.00000

 Molecular mass:   380.93066 amu.
 Principal axes and moments of inertia in atomic units:
                           1         2         3
     Eigenvalues --  6205.30864********************
           X            0.99999   0.00451   0.00003
           Y           -0.00451   0.99999   0.00017
           Z           -0.00002  -0.00017   1.00000
 This molecule is an asymmetric top.
 Rotational symmetry number  1.
 Warning -- assumption of classical behavior for rotation
           may cause significant error
 Rotational temperatures (Kelvin)      0.01396     0.00785     0.00513
 Rotational constants (GHZ):           0.29084     0.16354     0.10692
 Zero-point vibrational energy     518141.2 (Joules/Mol)
                                  123.83872 (Kcal/Mol)
 Warning -- explicit consideration of  32 degrees of freedom as
           vibrations may cause significant error
 Vibrational temperatures:     16.76    48.68    54.17   139.61   169.49
          (Kelvin)            171.67   195.91   198.37   237.42   303.92
                              336.55   338.10   372.10   375.22   417.86
                              446.15   524.79   525.82   561.73   568.95
                              622.40   626.82   642.87   703.52   705.55
                              730.76   756.26   774.94   831.95   867.40
                              886.45   891.21   961.70  1001.64  1013.31
                             1017.72  1029.22  1069.41  1148.57  1155.28
                             1196.37  1216.73  1271.26  1351.56  1368.66
                             1372.64  1397.92  1402.45  1433.92  1479.09
                             1546.75  1575.04  1608.14  1617.02  1657.99
                             1681.67  1710.83  1723.90  1760.00  1785.07
                             1810.58  1815.30  1929.79  1955.11  1969.58
                             2026.86  2043.64  2110.16  2141.81  2174.89
                             2214.96  2246.24  2275.15  2316.29  2353.99
                             2408.01  4474.10  4511.00  4550.02  4564.04
                             4584.82  4638.16  4939.09  4985.25

 Zero-point correction=                           0.197350 (Hartree/Particle)
 Thermal correction to Energy=                    0.215732
 Thermal correction to Enthalpy=                  0.216677
 Thermal correction to Gibbs Free Energy=         0.148527
 Sum of electronic and zero-point Energies=          -3941.634812
 Sum of electronic and thermal Energies=             -3941.616430
 Sum of electronic and thermal Enthalpies=           -3941.615485
 Sum of electronic and thermal Free Energies=        -3941.683635

                     E (Thermal)             CV                S
                      KCal/Mol        Cal/Mol-Kelvin    Cal/Mol-Kelvin
 Total                  135.374             70.731            143.432
 Electronic               0.000              0.000              0.000
 Translational            0.889              2.981             43.705
 Rotational               0.889              2.981             35.401
 Vibrational            133.597             64.769             64.327
 Vibration     1          0.593              1.987              7.708
 Vibration     2          0.594              1.983              5.591
 Vibration     3          0.594              1.982              5.379
 Vibration     4          0.603              1.951              3.513
 Vibration     5          0.608              1.935              3.136
 Vibration     6          0.609              1.933              3.111
 Vibration     7          0.614              1.917              2.857
 Vibration     8          0.614              1.915              2.833
 Vibration     9          0.623              1.885              2.492
 Vibration    10          0.643              1.824              2.033
 Vibration    11          0.654              1.789              1.849
 Vibration    12          0.655              1.787              1.840
 Vibration    13          0.667              1.748              1.671
 Vibration    14          0.669              1.744              1.656
 Vibration    15          0.686              1.692              1.471
 Vibration    16          0.699              1.654              1.362
 Vibration    17          0.738              1.545              1.102
 Vibration    18          0.739              1.543              1.099
 Vibration    19          0.758              1.491              0.999
 Vibration    20          0.762              1.480              0.980
 Vibration    21          0.793              1.399              0.850
 Vibration    22          0.796              1.392              0.840
 Vibration    23          0.806              1.368              0.805
 Vibration    24          0.845              1.274              0.686
 Vibration    25          0.846              1.271              0.683
 Vibration    26          0.863              1.232              0.639
 Vibration    27          0.881              1.193              0.597
 Vibration    28          0.894              1.165              0.568
 Vibration    29          0.935              1.078              0.489
 Vibration    30          0.961              1.026              0.445
 Vibration    31          0.976              0.998              0.423
 Vibration    32          0.979              0.991              0.417

                           ! Non-Optimized Parameters !
 Normal termination of Gaussian 16 at Fri Jan  5 00:39:14 2024.
