 Q-Chem 5.4, Q-Chem, Inc., Pleasanton, CA (2021)
 Q-Chem 5.4.0 for Intel X86 EM64T Linux

User input:
--------------------------------------------------------------
$molecule
0 1
C                 -1.6410730000      2.7982170000      0.0731320000
C                 -2.9008730000      2.2142340000      0.0886570000
C                 -3.0219700000      0.8284630000      0.0691220000
C                 -0.5084040000      1.9866020000      0.0381800000
C                 -0.6247830000      0.5824780000      0.0183140000
C                 -1.9064130000     -0.0181840000      0.0337800000
C                  0.8277690000      2.6554030000      0.0224320000
C                  2.0581660000      1.8136230000     -0.0142810000
C                  1.9537240000      0.4643600000     -0.0309500000
C                  0.6248170000     -0.2275350000     -0.0184580000
O                  0.9095560000      3.8750180000      0.0395720000
O                  0.6050700000     -1.4511530000     -0.0391890000
C                  3.3721400000      2.5512270000     -0.0299380000
C                  3.1364330000     -0.4605680000     -0.0669320000
C                 -2.1451750000     -1.5076400000      0.0146710000
H                 -1.5109100000      3.8726110000      0.0874440000
H                 -3.7896810000      2.8345790000      0.1159310000
H                 -4.0101140000      0.3811900000      0.0815190000
H                  3.1960570000      3.6251050000     -0.0179210000
H                  3.9530990000      2.3045250000     -0.9230440000
H                  3.9818540000      2.2905660000      0.8398900000
H                  4.0805180000      0.0798330000     -0.0516940000
H                  3.1013550000     -1.0878290000     -0.9622900000
H                  3.1062350000     -1.1494020000      0.7815670000
H                 -1.6771990000     -2.0018620000      0.8681740000
H                 -1.7124830000     -1.9736420000     -0.8725850000
H                 -3.2179960000     -1.7104200000      0.0331750000
$end

$rem
BASIS  =  6-311++G(d,p)
GUI  =  2
JOB_TYPE  =  SP
METHOD  =  B3LYP
SCF_CONVERGENCE  = 8
SOLVENT_METHOD = sm12
$end

$smx
solvent dimethylformamide
charges CM5
$end

--------------------------------------------------------------

             Standard Nuclear Orientation (Angstroms)
    I     Atom           X                Y                Z
 ----------------------------------------------------------------
    1      C      -1.6410730000     2.7982170000     0.0731320000
    2      C      -2.9008730000     2.2142340000     0.0886570000
    3      C      -3.0219700000     0.8284630000     0.0691220000
    4      C      -0.5084040000     1.9866020000     0.0381800000
    5      C      -0.6247830000     0.5824780000     0.0183140000
    6      C      -1.9064130000    -0.0181840000     0.0337800000
    7      C       0.8277690000     2.6554030000     0.0224320000
    8      C       2.0581660000     1.8136230000    -0.0142810000
    9      C       1.9537240000     0.4643600000    -0.0309500000
   10      C       0.6248170000    -0.2275350000    -0.0184580000
   11      O       0.9095560000     3.8750180000     0.0395720000
   12      O       0.6050700000    -1.4511530000    -0.0391890000
   13      C       3.3721400000     2.5512270000    -0.0299380000
   14      C       3.1364330000    -0.4605680000    -0.0669320000
   15      C      -2.1451750000    -1.5076400000     0.0146710000
   16      H      -1.5109100000     3.8726110000     0.0874440000
   17      H      -3.7896810000     2.8345790000     0.1159310000
   18      H      -4.0101140000     0.3811900000     0.0815190000
   19      H       3.1960570000     3.6251050000    -0.0179210000
   20      H       3.9530990000     2.3045250000    -0.9230440000
   21      H       3.9818540000     2.2905660000     0.8398900000
   22      H       4.0805180000     0.0798330000    -0.0516940000
   23      H       3.1013550000    -1.0878290000    -0.9622900000
   24      H       3.1062350000    -1.1494020000     0.7815670000
   25      H      -1.6771990000    -2.0018620000     0.8681740000
   26      H      -1.7124830000    -1.9736420000    -0.8725850000
   27      H      -3.2179960000    -1.7104200000     0.0331750000
 ----------------------------------------------------------------

   15    -653.2407064759      3.42e-09  Convergence criterion met
 Total energy in the final basis set =     -653.2565901969

                    Orbital Energies (a.u.)
 --------------------------------------------------------------

 Alpha MOs
 -- Occupied --
-19.1270 -19.1251 -10.2760 -10.2756 -10.2092 -10.2091 -10.2080 -10.2053
-10.2040 -10.1938 -10.1914 -10.1910 -10.1694 -10.1684 -10.1666  -1.0612
 -1.0591  -0.8871  -0.8486  -0.7936  -0.7844  -0.7462  -0.7081  -0.6938
 -0.6680  -0.6183  -0.6106  -0.5667  -0.5436  -0.5158  -0.4954  -0.4700
 -0.4624  -0.4590  -0.4528  -0.4304  -0.4271  -0.4223  -0.4150  -0.4094
 -0.4061  -0.3932  -0.3906  -0.3897  -0.3803  -0.3657  -0.3650  -0.3628
 -0.2870  -0.2817  -0.2695  -0.2659  -0.2654

          Ground-State Mulliken Net Atomic Charges

     Atom                 Charge (a.u.)
  ----------------------------------------
      1 C                    -0.127183
      2 C                     0.376856
      3 C                     0.142714
      4 C                    -0.214838
      5 C                     0.556599
      6 C                     0.163728
      7 C                    -2.285655
      8 C                     0.196228
      9 C                     1.143830
     10 C                    -2.161160
     11 O                    -0.269178
     12 O                    -0.217359
     13 C                    -0.023600
     14 C                     0.295371
     15 C                    -0.122527
     16 H                     0.175233
     17 H                     0.335601
     18 H                     0.249857
     19 H                     0.190746
     20 H                     0.224934
     21 H                     0.223645
     22 H                     0.275220
     23 H                     0.185506
     24 H                     0.182025
     25 H                     0.145159
     26 H                     0.145352
     27 H                     0.212898
  ----------------------------------------
  Sum of atomic charges =     0.000000

                    Cartesian Multipole Moments
 -----------------------------------------------------------------
    Charge (ESU x 10^10)
                 0.0000
    Dipole Moment (Debye)
         X      -0.7820      Y      -0.7455      Z       0.0052
       Tot       1.0804
    Quadrupole Moments (Debye-Ang)
        XX     -68.7676     XY      -2.5034     YY    -102.4513
        XZ      -0.4374     YZ      -0.1575     ZZ     -89.2086

 Total job time:  494.05s(wall), 3874.14s(cpu)
        *  Thank you very much for using Q-Chem.  Have a nice day.  *
