 Q-Chem 5.4, Q-Chem, Inc., Pleasanton, CA (2021)
 Q-Chem 5.4.0 for Intel X86 EM64T Linux

User input:
--------------------------------------------------------------
$molecule
-2 1
C                 -4.5563050000      0.8893680000      0.3393740000
C                 -3.1860490000      0.2789010000      0.1861660000
C                 -3.0540000000     -1.1185690000     -0.0826970000
C                 -1.8249330000     -1.7118100000     -0.2479670000
O                 -1.7407120000     -3.0528840000     -0.5012750000
C                 -0.6197610000     -0.9286540000     -0.1500600000
C                  0.6560770000     -1.5374600000     -0.3148510000
O                  0.7593340000     -2.8482680000     -0.5658320000
C                  1.8201580000     -0.7238400000     -0.2074020000
C                  3.1327040000     -1.2973330000     -0.3693010000
O                  3.2601280000     -2.6350460000     -0.6284580000
C                  4.2537270000     -0.5067980000     -0.2645250000
C                  4.1402900000      0.8875690000      0.0046120000
C                  2.9081310000      1.4777680000      0.1664440000
O                  2.8210710000      2.8190710000      0.4234120000
C                  1.7045790000      0.6899290000      0.0656710000
C                  0.4261690000      1.2956400000      0.2337450000
O                  0.3229050000      2.6065000000      0.4934030000
C                 -0.7373730000      0.4831930000      0.1226230000
C                 -2.0517400000      1.0586140000      0.2798740000
O                 -2.1672960000      2.4034250000      0.5188740000
H                 -5.0298360000      1.1033610000     -0.6328290000
H                 -4.5011940000      1.8345070000      0.8842430000
H                 -5.2320670000      0.2118210000      0.8787600000
H                 -3.9430940000     -1.7403940000     -0.1554700000
H                 -0.7453970000     -3.2281200000     -0.5749230000
H                  2.3063330000     -2.9738790000     -0.6532640000
H                  5.2297540000     -0.9666660000     -0.3913400000
H                  5.0288020000      1.5074030000      0.0860880000
H                  1.8258550000      2.9914510000      0.4994930000
H                 -1.2062600000      2.7311990000      0.5574140000
$end
$rem
MAX_SCF_CYCLES=200
BASIS  =  6-311++G(d,p)
GUI  =  2
JOB_TYPE  =  SP
METHOD  =  B3LYP
SOLVENT_METHOD = PCM
$end
$pcm
theory = CPCM
$end
$solvent
dielectric 37.219
opticaldielectric 1.43
$end

--------------------------------------------------------------

             Standard Nuclear Orientation (Angstroms)
    I     Atom           X                Y                Z
 ----------------------------------------------------------------
    1      C      -4.5563050000     0.8893680000     0.3393740000
    2      C      -3.1860490000     0.2789010000     0.1861660000
    3      C      -3.0540000000    -1.1185690000    -0.0826970000
    4      C      -1.8249330000    -1.7118100000    -0.2479670000
    5      O      -1.7407120000    -3.0528840000    -0.5012750000
    6      C      -0.6197610000    -0.9286540000    -0.1500600000
    7      C       0.6560770000    -1.5374600000    -0.3148510000
    8      O       0.7593340000    -2.8482680000    -0.5658320000
    9      C       1.8201580000    -0.7238400000    -0.2074020000
   10      C       3.1327040000    -1.2973330000    -0.3693010000
   11      O       3.2601280000    -2.6350460000    -0.6284580000
   12      C       4.2537270000    -0.5067980000    -0.2645250000
   13      C       4.1402900000     0.8875690000     0.0046120000
   14      C       2.9081310000     1.4777680000     0.1664440000
   15      O       2.8210710000     2.8190710000     0.4234120000
   16      C       1.7045790000     0.6899290000     0.0656710000
   17      C       0.4261690000     1.2956400000     0.2337450000
   18      O       0.3229050000     2.6065000000     0.4934030000
   19      C      -0.7373730000     0.4831930000     0.1226230000
   20      C      -2.0517400000     1.0586140000     0.2798740000
   21      O      -2.1672960000     2.4034250000     0.5188740000
   22      H      -5.0298360000     1.1033610000    -0.6328290000
   23      H      -4.5011940000     1.8345070000     0.8842430000
   24      H      -5.2320670000     0.2118210000     0.8787600000
   25      H      -3.9430940000    -1.7403940000    -0.1554700000
   26      H      -0.7453970000    -3.2281200000    -0.5749230000
   27      H       2.3063330000    -2.9738790000    -0.6532640000
   28      H       5.2297540000    -0.9666660000    -0.3913400000
   29      H       5.0288020000     1.5074030000     0.0860880000
   30      H       1.8258550000     2.9914510000     0.4994930000
   31      H      -1.2062600000     2.7311990000     0.5574140000
 ----------------------------------------------------------------

    9   -1029.5816353579      1.41e-06  Convergence criterion met
 Total energy in the final basis set =    -1029.5816353579

                    Orbital Energies (a.u.)
 --------------------------------------------------------------

 Alpha MOs
 -- Occupied --
-19.1104 -19.1102 -19.1099 -19.1066 -19.0655 -19.0645 -10.2084 -10.2082
-10.2081 -10.2033 -10.2023 -10.2011 -10.1589 -10.1584 -10.1583 -10.1574
-10.1538 -10.1506 -10.1462 -10.1457 -10.1430  -1.0315  -1.0293  -1.0236
 -1.0209  -0.9632  -0.9609  -0.8389  -0.8188  -0.7757  -0.7370  -0.7235
 -0.7092  -0.6820  -0.6512  -0.6243  -0.6015  -0.5762  -0.5639  -0.5258
 -0.5049  -0.4976  -0.4925  -0.4889  -0.4882  -0.4476  -0.4261  -0.4228
 -0.4216  -0.4060  -0.4037  -0.4002  -0.3939  -0.3896  -0.3861  -0.3836
 -0.3798  -0.3795  -0.3655  -0.3567  -0.3435  -0.3426  -0.3421  -0.3329
 -0.3289  -0.3212  -0.2884  -0.2803  -0.2479  -0.2443  -0.2327  -0.2248
 -0.2061  -0.1861  -0.1254

          Ground-State Mulliken Net Atomic Charges

     Atom                 Charge (a.u.)
  ----------------------------------------
      1 C                    -0.257906
      2 C                     0.591205
      3 C                    -0.407290
      4 C                    -0.350250
      5 O                    -0.485976
      6 C                     0.564765
      7 C                    -0.427801
      8 O                    -0.724794
      9 C                     0.439201
     10 C                    -0.346177
     11 O                    -0.488391
     12 C                    -0.195765
     13 C                    -0.234139
     14 C                    -0.342628
     15 O                    -0.493399
     16 C                     0.473455
     17 C                    -0.327291
     18 O                    -0.746061
     19 C                     0.174135
     20 C                    -0.654001
     21 O                    -0.515431
     22 H                     0.169022
     23 H                     0.170034
     24 H                     0.149590
     25 H                     0.169063
     26 H                     0.421957
     27 H                     0.421218
     28 H                     0.183776
     29 H                     0.184157
     30 H                     0.424841
     31 H                     0.460881
  ----------------------------------------
  Sum of atomic charges =    -2.000000

                    Cartesian Multipole Moments
 -----------------------------------------------------------------
    Charge (ESU x 10^10)
                -9.6064
    Dipole Moment (Debye)
         X      -5.7932      Y       1.1847      Z       0.4280
       Tot       5.9286
    Quadrupole Moments (Debye-Ang)
        XX    -180.6328     XY       1.1625     YY    -192.8277
        XZ       2.1078     YZ     -11.4657     ZZ    -134.4446

 Total job time:  74.45s(wall), 482.19s(cpu)
        *  Thank you very much for using Q-Chem.  Have a nice day.  *
