 Gaussian 16, Revision A.03,
 Gaussian 16:  ES64L-G16RevA.03 25-Dec-2016

 ----------------------------------------------------------------------
 #P UB3LYP/6-311++G(d,p) nosym opt freq SCRF=(PCM,Solvent=n,n-DiMethylF
 ormamide)
 ----------------------------------------------------------------------

 -------
 Radical
 -------
 Symbolic Z-matrix:
 Charge = -1 Multiplicity = 2

 SCF Done:  E(UB3LYP) =  -1300.97551052     A.U. after   20 cycles
 SCF Done:  E(UB3LYP) =  -1300.97566528     A.U. after   15 cycles
 SCF Done:  E(UB3LYP) =  -1300.97569429     A.U. after   14 cycles
 Optimization completed.
    -- Stationary point found.
 Normal termination of Gaussian 16 at Sat Feb 10 10:07:06 2024.

 ----------------------------------------------------------------------
 #P Geom=AllCheck Guess=TCheck SCRF=Check GenChk UB3LYP/6-311++G(d,p) F
 req
 ----------------------------------------------------------------------

 Structure from the checkpoint file:  "010-rad.chk"
 -------
 Radical
 -------
 Charge = -1 Multiplicity = 2

                          Input orientation:
 ---------------------------------------------------------------------
 Center     Atomic      Atomic             Coordinates (Angstroms)
 Number     Number       Type             X           Y           Z
 ---------------------------------------------------------------------
      1         17           0       -3.081070    0.674785    0.106697
      2          6           0       -1.359385    0.288898    0.046405
      3          6           0       -0.964616   -1.016457    0.033441
      4          6           0        0.429201   -1.406046   -0.013183
      5          8           0        0.785070   -2.613456   -0.023758
      6          6           0        1.359379   -0.288912   -0.046393
      7          6           0        0.964612    1.016459   -0.033431
      8          6           0       -0.429215    1.406034    0.013239
      9          8           0       -0.785068    2.613453    0.023738
     10         17           0        3.081081   -0.674745   -0.106734
     11          1           0       -1.692244   -1.818655    0.058292
     12          1           0        1.692255    1.818640   -0.058314
 ---------------------------------------------------------------------

 SCF Done:  E(UB3LYP) =  -1300.97569429     A.U. after    2 cycles

 Alpha  occ. eigenvalues -- -101.55387-101.55387 -19.09259 -19.09259 -10.24246
 Alpha  occ. eigenvalues --  -10.24244 -10.23403 -10.23402 -10.18299 -10.18298
 Alpha  occ. eigenvalues --   -9.46836  -9.46836  -7.23267  -7.23267  -7.22356
 Alpha  occ. eigenvalues --   -7.22356  -7.22286  -7.22286  -1.01823  -1.01528
 Alpha  occ. eigenvalues --   -0.88356  -0.86977  -0.80929  -0.73957  -0.69183
 Alpha  occ. eigenvalues --   -0.61735  -0.57362  -0.50589  -0.48481  -0.45994
 Alpha  occ. eigenvalues --   -0.43627  -0.43617  -0.42173  -0.40283  -0.39685
 Alpha  occ. eigenvalues --   -0.38892  -0.35959  -0.34428  -0.31897  -0.31654
 Alpha  occ. eigenvalues --   -0.28695  -0.26038  -0.25753  -0.25714  -0.17824
 Alpha virt. eigenvalues --   -0.02683   0.00128   0.00919   0.01018   0.01526
 Alpha virt. eigenvalues --    0.01683   0.03801   0.05184   0.05407   0.05538
 Alpha virt. eigenvalues --    0.06832   0.07026   0.08393   0.08586   0.08698

  Beta  occ. eigenvalues -- -101.55384-101.55384 -19.08545 -19.08545 -10.24123
  Beta  occ. eigenvalues --  -10.24122 -10.23271 -10.23269 -10.18203 -10.18202
  Beta  occ. eigenvalues --   -9.46833  -9.46832  -7.23272  -7.23272  -7.22338
  Beta  occ. eigenvalues --   -7.22338  -7.22284  -7.22284  -1.00615  -1.00276
  Beta  occ. eigenvalues --   -0.87994  -0.86839  -0.80572  -0.73633  -0.68209
  Beta  occ. eigenvalues --   -0.61314  -0.56934  -0.50367  -0.48079  -0.45685
  Beta  occ. eigenvalues --   -0.43547  -0.41995  -0.41476  -0.39805  -0.38703
  Beta  occ. eigenvalues --   -0.37589  -0.34740  -0.33311  -0.31841  -0.31621
  Beta  occ. eigenvalues --   -0.25845  -0.25367  -0.25091  -0.25013
  Beta virt. eigenvalues --   -0.10584  -0.01246   0.00181   0.01024   0.01097
  Beta virt. eigenvalues --    0.01706   0.03890   0.03945   0.05233   0.05589
  Beta virt. eigenvalues --    0.05618   0.06900   0.07151   0.08551   0.08620

 Mulliken charges and spin densities:
               1          2
     1  Cl   0.214035   0.005230
     2  C    1.057767   0.090265
     3  C   -0.486864   0.069566
     4  C   -1.056867   0.087313
     5  O   -0.436163   0.254088
     6  C    1.057717   0.090261
     7  C   -0.486896   0.069564
     8  C   -1.056955   0.087312
     9  O   -0.436157   0.254089
    10  Cl   0.214039   0.005229
    11  H    0.208172  -0.006458
    12  H    0.208172  -0.006458
 Sum of Mulliken charges =  -1.00000   1.00000

 Dipole moment (field-independent basis, Debye):
    X=             -0.0001    Y=             -0.0000    Z=              0.0001  Tot=              0.0001
 Quadrupole moment (field-independent basis, Debye-Ang):
   XX=            -87.3787   YY=           -107.3284   ZZ=            -73.8908
   XY=             15.5622   XZ=              0.4535   YZ=             -0.4893

  Exact polarizability: 202.496 -44.667 223.678  -4.269   1.403  77.526
 Approx polarizability: 207.949 -52.668 264.831  -4.121   1.642  87.473

                      1                      2                      3
                      A                      A                      A
 Frequencies --     70.4306               155.1934               208.4542
 Red. masses --     20.8299                10.6356                18.3368
 Frc consts  --      0.0609                 0.1509                 0.4695
 IR Inten    --      6.0290                14.3415                 1.1695

                      4                      5                      6
                      A                      A                      A
 Frequencies --    211.6314               243.2658               308.8344
 Red. masses --      6.3187                16.7742                24.8376
 Frc consts  --      0.1667                 0.5849                 1.3958
 IR Inten    --      0.0000                 0.0000                 0.0000

                      7                      8                      9
                      A                      A                      A
 Frequencies --    348.8319               383.8003               424.3894
 Red. masses --     17.6714                10.7669                 3.2218
 Frc consts  --      1.2669                 0.9344                 0.3419
 IR Inten    --      5.7215                 0.0000                 2.7576

                     10                     11                     12
                      A                      A                      A
 Frequencies --    481.5382               560.6853               609.9438
 Red. masses --     12.3263                10.9745                 5.7591
 Frc consts  --      1.6840                 2.0327                 1.2624
 IR Inten    --      0.0000                95.1392                 0.0000

                     13                     14                     15
                      A                      A                      A
 Frequencies --    679.4419               686.5591               732.0875
 Red. masses --      7.8707                 6.7980                 2.6623
 Frc consts  --      2.1408                 1.8879                 0.8407
 IR Inten    --      0.0000                 0.7164                 0.0000

                     16                     17                     18
                      A                      A                      A
 Frequencies --    830.4056               850.9904               879.1841
 Red. masses --      5.4893                 1.7818                 1.5024
 Frc consts  --      2.2302                 0.7603                 0.6842
 IR Inten    --    209.0564                 0.0000                76.0843

                     19                     20                     21
                      A                      A                      A
 Frequencies --    937.9934              1011.8810              1166.3604
 Red. masses --     11.3574                 2.9866                10.6224
 Frc consts  --      5.8874                 1.8017                 8.5141
 IR Inten    --      0.0000               449.6820                 9.7628

                     22                     23                     24
                      A                      A                      A
 Frequencies --   1220.9474              1296.5397              1387.6635
 Red. masses --      1.3403                 1.8652                 5.5385
 Frc consts  --      1.1772                 1.8474                 6.2836
 IR Inten    --      0.0000                73.3092                 0.0000

                     25                     26                     27
                      A                      A                      A
 Frequencies --   1486.5079              1511.7086              1518.4391
 Red. masses --      7.7791                12.4668                 7.3688
 Frc consts  --     10.1278                16.7857                10.0102
 IR Inten    --     45.9046                 0.0000              1408.7871

                     28                     29                     30
                      A                      A                      A
 Frequencies --   1624.1236              3188.7742              3190.5177
 Red. masses --      8.3335                 1.0911                 1.0919
 Frc consts  --     12.9513                 6.5366                 6.5484
 IR Inten    --      0.0000                 6.4060                 0.0004

 - Thermochemistry -
 -------------------
 Temperature   298.150 Kelvin.  Pressure   1.00000 Atm.
 Atom     1 has atomic number 17 and mass  34.96885

 Molecular mass:   175.94318 amu.
 Principal axes and moments of inertia in atomic units:
                           1         2         3
     Eigenvalues --   889.139123012.848003901.98657
           X            0.92771   0.37167   0.03476
           Y           -0.37193   0.92826   0.00114
           Z           -0.03184  -0.01398   0.99940
 This molecule is an asymmetric top.
 Rotational symmetry number  1.
 Warning -- assumption of classical behavior for rotation
           may cause significant error
 Rotational temperatures (Kelvin)      0.09741     0.02875     0.02220
 Rotational constants (GHZ):           2.02976     0.59902     0.46252
 Zero-point vibrational energy     168716.1 (Joules/Mol)
                                   40.32411 (Kcal/Mol)
 Warning -- explicit consideration of  12 degrees of freedom as
           vibrations may cause significant error
 Vibrational temperatures:    101.33   223.29   299.92   304.49   350.01
          (Kelvin)            444.34   501.89   552.20   610.60   692.83
                              806.70   877.57   977.57   987.81  1053.31
                             1194.77  1224.39  1264.95  1349.56  1455.87
                             1678.13  1756.67  1865.43  1996.54  2138.75
                             2175.01  2184.70  2336.75  4587.93  4590.44

 Zero-point correction=                           0.064261 (Hartree/Particle)
 Thermal correction to Energy=                    0.072752
 Thermal correction to Enthalpy=                  0.073696
 Thermal correction to Gibbs Free Energy=         0.029018
 Sum of electronic and zero-point Energies=          -1300.911434
 Sum of electronic and thermal Energies=             -1300.902942
 Sum of electronic and thermal Enthalpies=           -1300.901998
 Sum of electronic and thermal Free Energies=        -1300.946677

                     E (Thermal)             CV                S
                      KCal/Mol        Cal/Mol-Kelvin    Cal/Mol-Kelvin
 Total                   45.653             30.784             94.034
 Electronic               0.000              0.000              1.377
 Translational            0.889              2.981             41.402
 Rotational               0.889              2.981             30.725
 Vibrational             43.875             24.822             20.529
 Vibration     1          0.598              1.968              4.141
 Vibration     2          0.620              1.897              2.608
 Vibration     3          0.642              1.828              2.057
 Vibration     4          0.643              1.823              2.030
 Vibration     5          0.659              1.774              1.779
 Vibration     6          0.698              1.657              1.369
 Vibration     7          0.726              1.578              1.171
 Vibration     8          0.753              1.505              1.024
 Vibration     9          0.786              1.417              0.877
 Vibration    10          0.838              1.291              0.706
 Vibration    11          0.916              1.116              0.522
 Vibration    12          0.969              1.011              0.433

 Optimization completed.
    -- Stationary point found.
 Normal termination of Gaussian 16 at Sat Feb 10 10:15:03 2024.
