 Q-Chem 5.4, Q-Chem, Inc., Pleasanton, CA (2021)
 Q-Chem 5.4.0 for Intel X86 EM64T Linux

User input:
--------------------------------------------------------------
$molecule
-1 2
C                  1.3858470000      1.1975660000     -2.9767240000
C                  0.1020590000      1.5734970000     -3.5325700000
C                 -1.0175550000      0.8248040000     -3.3279770000
C                 -1.0111360000     -0.3959850000     -2.5472520000
C                  0.2722850000     -0.8104810000     -1.9876070000
O                  2.4011860000      1.9341110000     -3.0947520000
O                 -2.0677690000     -1.0676910000     -2.3703990000
H                  0.0751520000      2.4972040000     -4.1035770000
C                  1.4172640000     -0.0563290000     -2.2245590000
C                  2.7426140000     -0.4617910000     -1.6837760000
C                  3.9219880000     -0.4808910000     -2.6300720000
C                  5.2008580000     -0.0336220000     -2.2389890000
C                  3.7454240000     -1.0590060000     -3.8899050000
C                  6.2581460000     -0.1870210000     -3.1388810000
C                  6.0805330000     -0.7839610000     -4.3875770000
C                  4.8163790000     -1.2244130000     -4.7655910000
O                  2.9036490000     -0.8465120000     -0.5303400000
C                  5.4369530000      0.6497330000     -0.9138860000
H                  2.7510050000     -1.3781340000     -4.1813700000
H                  7.2423340000      0.1763300000     -2.8567980000
H                  6.9248700000     -0.8926510000     -5.0610640000
H                  4.6590670000     -1.6813100000     -5.7370240000
C                  0.2637880000     -2.0891980000     -1.1910840000
H                 -1.9782900000      1.1211880000     -3.7401160000
H                  0.0222130000     -1.8874160000     -0.1409980000
H                  1.2298630000     -2.5942820000     -1.2014160000
H                 -0.5174610000     -2.7470790000     -1.5761260000
H                  4.7288060000      1.4711880000     -0.7758090000
H                  6.4511420000      1.0561080000     -0.8699250000
H                  5.2929150000     -0.0390560000     -0.0795450000
$end
$rem
MAX_SCF_CYCLES=200
BASIS  =  6-311++G(d,p)
GUI  =  2
JOB_TYPE  =  SP
METHOD  =  B3LYP
SOLVENT_METHOD = PCM
$end
$pcm
theory = CPCM
$end
$solvent
dielectric 37.219
opticaldielectric 1.43
$end

--------------------------------------------------------------

             Standard Nuclear Orientation (Angstroms)
    I     Atom           X                Y                Z
 ----------------------------------------------------------------
    1      C       1.3858470000     1.1975660000    -2.9767240000
    2      C       0.1020590000     1.5734970000    -3.5325700000
    3      C      -1.0175550000     0.8248040000    -3.3279770000
    4      C      -1.0111360000    -0.3959850000    -2.5472520000
    5      C       0.2722850000    -0.8104810000    -1.9876070000
    6      O       2.4011860000     1.9341110000    -3.0947520000
    7      O      -2.0677690000    -1.0676910000    -2.3703990000
    8      H       0.0751520000     2.4972040000    -4.1035770000
    9      C       1.4172640000    -0.0563290000    -2.2245590000
   10      C       2.7426140000    -0.4617910000    -1.6837760000
   11      C       3.9219880000    -0.4808910000    -2.6300720000
   12      C       5.2008580000    -0.0336220000    -2.2389890000
   13      C       3.7454240000    -1.0590060000    -3.8899050000
   14      C       6.2581460000    -0.1870210000    -3.1388810000
   15      C       6.0805330000    -0.7839610000    -4.3875770000
   16      C       4.8163790000    -1.2244130000    -4.7655910000
   17      O       2.9036490000    -0.8465120000    -0.5303400000
   18      C       5.4369530000     0.6497330000    -0.9138860000
   19      H       2.7510050000    -1.3781340000    -4.1813700000
   20      H       7.2423340000     0.1763300000    -2.8567980000
   21      H       6.9248700000    -0.8926510000    -5.0610640000
   22      H       4.6590670000    -1.6813100000    -5.7370240000
   23      C       0.2637880000    -2.0891980000    -1.1910840000
   24      H      -1.9782900000     1.1211880000    -3.7401160000
   25      H       0.0222130000    -1.8874160000    -0.1409980000
   26      H       1.2298630000    -2.5942820000    -1.2014160000
   27      H      -0.5174610000    -2.7470790000    -1.5761260000
   28      H       4.7288060000     1.4711880000    -0.7758090000
   29      H       6.4511420000     1.0561080000    -0.8699250000
   30      H       5.2929150000    -0.0390560000    -0.0795450000
 ----------------------------------------------------------------

    9    -804.8524588094      3.77e-06  Convergence criterion met
 Total energy in the final basis set =     -804.8524588094

                    Orbital Energies (a.u.)
 --------------------------------------------------------------

 Alpha MOs
 -- Occupied --
-19.1157 -19.0839 -19.0834 -10.2646 -10.2304 -10.2240 -10.1883 -10.1871
-10.1823 -10.1773 -10.1766 -10.1737 -10.1736 -10.1723 -10.1693 -10.1676
-10.1584 -10.1548  -1.0471  -1.0082  -1.0048  -0.8645  -0.8332  -0.7762
 -0.7745  -0.7606  -0.7169  -0.6864  -0.6680  -0.6391  -0.6101  -0.5879
 -0.5643  -0.5435  -0.5020  -0.4908  -0.4760  -0.4691  -0.4590  -0.4461
 -0.4370  -0.4238  -0.4195  -0.4173  -0.4102  -0.4077  -0.4019  -0.3935
 -0.3873  -0.3813  -0.3754  -0.3663  -0.3610  -0.3550  -0.3542  -0.3422
 -0.2864  -0.2715  -0.2618  -0.2555  -0.2520  -0.2455  -0.2357  -0.1688

 Beta MOs
 -- Occupied --
-19.1153 -19.0773 -19.0767 -10.2645 -10.2293 -10.2225 -10.1883 -10.1851
-10.1823 -10.1773 -10.1766 -10.1737 -10.1729 -10.1723 -10.1686 -10.1663
-10.1584 -10.1549  -1.0464  -0.9975  -0.9921  -0.8644  -0.8272  -0.7751
 -0.7733  -0.7593  -0.7132  -0.6861  -0.6606  -0.6376  -0.6088  -0.5869
 -0.5604  -0.5422  -0.5005  -0.4886  -0.4749  -0.4674  -0.4572  -0.4444
 -0.4344  -0.4173  -0.4172  -0.4145  -0.4099  -0.4042  -0.3985  -0.3863
 -0.3805  -0.3792  -0.3647  -0.3609  -0.3552  -0.3539  -0.3467  -0.3418
 -0.2706  -0.2597  -0.2543  -0.2504  -0.2484  -0.2409  -0.2311

          Ground-State Mulliken Net Atomic Charges

     Atom                 Charge (a.u.)    Spin (a.u.)
  --------------------------------------------------------
      1 C                    -0.751262       0.095560
      2 C                    -0.300501       0.073628
      3 C                     0.067788       0.058663
      4 C                    -0.638690       0.087775
      5 C                     0.520681       0.140464
      6 O                    -0.419391       0.221713
      7 O                    -0.496507       0.260084
      8 H                     0.210823      -0.008047
      9 C                     0.976271       0.049391
     10 C                    -0.950302       0.012287
     11 C                     1.110498       0.000790
     12 C                     0.300857       0.000124
     13 C                    -0.426026      -0.003120
     14 C                    -0.277178      -0.004751
     15 C                    -0.306318       0.000808
     16 C                    -0.452622      -0.001036
     17 O                    -0.284655       0.011363
     18 C                    -0.447546      -0.002037
     19 H                     0.209346       0.000002
     20 H                     0.185808      -0.000020
     21 H                     0.201018       0.000054
     22 H                     0.211229      -0.000054
     23 C                    -0.544015      -0.000984
     24 H                     0.208883      -0.005157
     25 H                     0.208270       0.009823
     26 H                     0.174371       0.001888
     27 H                     0.158728       0.000825
     28 H                     0.190817      -0.000186
     29 H                     0.164948       0.000235
     30 H                     0.194678      -0.000087
  --------------------------------------------------------
  Sum of atomic charges =    -1.000000

                    Cartesian Multipole Moments
 -----------------------------------------------------------------
    Charge (ESU x 10^10)
                -4.8032
    Dipole Moment (Debye)
         X      -2.4072      Y      -0.6380      Z       9.6613
       Tot       9.9771
    Quadrupole Moments (Debye-Ang)
        XX    -131.5554     XY     -13.0701     YY    -120.9864
        XZ       1.0570     YZ       9.3165     ZZ    -130.4070

 Total job time:  78.96s(wall), 556.61s(cpu)
        *  Thank you very much for using Q-Chem.  Have a nice day.  *
