 Gaussian 16, Revision A.03,
 Gaussian 16:  ES64L-G16RevA.03 25-Dec-2016

 ----------------------------------------------------------------
 #P UB3LYP/6-311++G(d,p) SCRF=(PCM,Solvent=n,n-DiMethylFormamide)
 ----------------------------------------------------------------

 ------------------
 Quinone PCM in DMF
 ------------------
 Symbolic Z-matrix:
 Charge =  0 Multiplicity = 1

                         Standard orientation:
 ---------------------------------------------------------------------
 Center     Atomic      Atomic             Coordinates (Angstroms)
 Number     Number       Type             X           Y           Z
 ---------------------------------------------------------------------
      1          8           0        2.275839    2.893942   -0.000186
      2          6           0        1.724077    1.803438   -0.000985
      3          6           0        0.250778    1.707352   -0.001233
      4          6           0       -0.441790    0.550202   -0.001335
      5          6           0       -1.954691    0.545137   -0.000671
      6          6           0       -2.557934   -0.093936    1.273958
      7          6           0       -4.089651    0.012118    1.268680
      8          6           0       -4.696707   -0.606603    0.002062
      9          6           0       -4.091863    0.011593   -1.265876
     10          6           0       -2.560093   -0.094342   -1.274085
     11          6           0        0.312908   -0.748607   -0.001331
     12          8           0       -0.272373   -1.819819   -0.003295
     13          6           0        1.807627   -0.697984   -0.000646
     14          6           0        2.531117   -1.893852   -0.000081
     15          6           0        3.921821   -1.866417    0.001164
     16          6           0        4.601044   -0.645358    0.001775
     17          6           0        3.888521    0.549272    0.001068
     18          6           0        2.492383    0.527555   -0.000172
     19          1           0       -0.261908    2.664584   -0.001099
     20          1           0       -2.256376    1.600954   -0.000591
     21          1           0       -2.260737   -1.144454    1.324748
     22          1           0       -2.149670    0.402167    2.160919
     23          1           0       -4.494102   -0.476152    2.161185
     24          1           0       -4.383164    1.068330    1.332341
     25          1           0       -4.507387   -1.687473    0.002148
     26          1           0       -5.784125   -0.479096    0.002949
     27          1           0       -4.385523    1.067782   -1.329401
     28          1           0       -4.497991   -0.476988   -2.157454
     29          1           0       -2.153611    0.401636   -2.161924
     30          1           0       -2.262899   -1.144843   -1.325244
     31          1           0        1.987252   -2.830331   -0.000451
     32          1           0        4.479608   -2.796000    0.001723
     33          1           0        5.684997   -0.628529    0.002787
     34          1           0        4.392629    1.508014    0.001459
 ---------------------------------------------------------------------

 SCF Done:  E(UB3LYP) =  -770.008380739     A.U. after   15 cycles

 The electronic state is 1-A.
 Alpha  occ. eigenvalues --  -19.13707 -19.13495 -10.28666 -10.28274 -10.21836
 Alpha  occ. eigenvalues --  -10.20899 -10.20789 -10.20379 -10.19950 -10.19916
 Alpha  occ. eigenvalues --  -10.19881 -10.19856 -10.18797 -10.16614 -10.16612
 Alpha  occ. eigenvalues --  -10.16346 -10.16345 -10.16164  -1.07087  -1.06663
 Alpha  occ. eigenvalues --   -0.89175  -0.85687  -0.82503  -0.78348  -0.77949
 Alpha  occ. eigenvalues --   -0.74314  -0.74302  -0.69466  -0.65433  -0.64286
 Alpha  occ. eigenvalues --   -0.61173  -0.60623  -0.58513  -0.56259  -0.53665
 Alpha  occ. eigenvalues --   -0.53114  -0.50206  -0.48655  -0.47291  -0.46465
 Alpha  occ. eigenvalues --   -0.45452  -0.45301  -0.45274  -0.44102  -0.44041
 Alpha  occ. eigenvalues --   -0.43476  -0.42287  -0.42139  -0.39110  -0.39067
 Alpha  occ. eigenvalues --   -0.38165  -0.38094  -0.37675  -0.37078  -0.34797
 Alpha  occ. eigenvalues --   -0.34597  -0.32437  -0.31354  -0.31191  -0.29280
 Alpha  occ. eigenvalues --   -0.28527  -0.28011  -0.27784  -0.27397
 Alpha virt. eigenvalues --   -0.12674  -0.05820  -0.03346  -0.00721  -0.00081
 Alpha virt. eigenvalues --    0.00469   0.01175   0.01404   0.01701   0.02167
 Alpha virt. eigenvalues --    0.03033   0.03304   0.03528   0.03826   0.04012

  Beta  occ. eigenvalues --  -19.13707 -19.13495 -10.28666 -10.28274 -10.21836
  Beta  occ. eigenvalues --  -10.20899 -10.20789 -10.20379 -10.19950 -10.19916
  Beta  occ. eigenvalues --  -10.19881 -10.19856 -10.18797 -10.16614 -10.16612
  Beta  occ. eigenvalues --  -10.16346 -10.16345 -10.16164  -1.07087  -1.06663
  Beta  occ. eigenvalues --   -0.89175  -0.85687  -0.82503  -0.78348  -0.77949
  Beta  occ. eigenvalues --   -0.74314  -0.74302  -0.69466  -0.65433  -0.64286
  Beta  occ. eigenvalues --   -0.61173  -0.60623  -0.58513  -0.56259  -0.53665
  Beta  occ. eigenvalues --   -0.53114  -0.50206  -0.48655  -0.47291  -0.46465
  Beta  occ. eigenvalues --   -0.45452  -0.45301  -0.45274  -0.44102  -0.44041
  Beta  occ. eigenvalues --   -0.43476  -0.42287  -0.42139  -0.39110  -0.39067
  Beta  occ. eigenvalues --   -0.38165  -0.38094  -0.37675  -0.37078  -0.34797
  Beta  occ. eigenvalues --   -0.34597  -0.32437  -0.31354  -0.31191  -0.29280
  Beta  occ. eigenvalues --   -0.28527  -0.28011  -0.27784  -0.27397
  Beta virt. eigenvalues --   -0.12674  -0.05820  -0.03346  -0.00721  -0.00081
  Beta virt. eigenvalues --    0.00469   0.01175   0.01404   0.01701   0.02167
  Beta virt. eigenvalues --    0.03033   0.03304   0.03528   0.03826   0.04012

 Mulliken charges and spin densities:
               1          2
     1  O   -0.293785  -0.000000
     2  C   -0.569203  -0.000000
     3  C   -0.209040  -0.000000
     4  C    0.563190   0.000000
     5  C    0.672798  -0.000000
     6  C   -0.558467   0.000000
     7  C   -0.367857  -0.000000
     8  C   -0.415028  -0.000000
     9  C   -0.367341  -0.000000
    10  C   -0.558381   0.000000
    11  C   -0.690859  -0.000000
    12  O   -0.232298   0.000000
    13  C   -0.200022   0.000000
    14  C    0.186017   0.000000
    15  C   -0.444140   0.000000
    16  C   -0.326090   0.000000
    17  C    0.131262  -0.000000
    18  C    0.821747  -0.000000
    19  H    0.238655   0.000000
    20  H    0.197768   0.000000
    21  H    0.182097   0.000000
    22  H    0.176083   0.000000
    23  H    0.177322   0.000000
    24  H    0.133612   0.000000
    25  H    0.118043   0.000000
    26  H    0.178911  -0.000000
    27  H    0.133604   0.000000
    28  H    0.177316   0.000000
    29  H    0.176004  -0.000000
    30  H    0.182114   0.000000
    31  H    0.187298  -0.000000
    32  H    0.208419   0.000000
    33  H    0.210402   0.000000
    34  H    0.179847   0.000000
 Sum of Mulliken charges =  -0.00000  -0.00000

 Dipole moment (field-independent basis, Debye):
    X=              0.1904    Y=             -1.6022    Z=              0.0059  Tot=              1.6135
 Quadrupole moment (field-independent basis, Debye-Ang):
   XX=            -90.6059   YY=           -117.5509   ZZ=           -108.2491
   XY=            -15.9048   XZ=              0.0065   YZ=             -0.0144

 Normal termination of Gaussian 16 at Sun Jan 21 07:54:48 2024.
