 Gaussian 16, Revision A.03,
 Gaussian 16:  ES64L-G16RevA.03 25-Dec-2016

 --------------------------------------
 #P UB3LYP/6-311++G(d,p) nosym opt freq
 --------------------------------------

 -------
 Radical
 -------
 Symbolic Z-matrix:
 Charge = -1 Multiplicity = 2

 SCF Done:  E(UB3LYP) =  -727.293063820     A.U. after   24 cycles
 Optimization completed.
    -- Stationary point found.
 Normal termination of Gaussian 16 at Tue Jan  9 20:33:08 2024.

 ----------------------------------------------------------------------
 #P Geom=AllCheck Guess=TCheck SCRF=Check GenChk UB3LYP/6-311++G(d,p) F
 req
 ----------------------------------------------------------------------

 Structure from the checkpoint file:  "322-rad.chk"
 -------
 Radical
 -------
 Charge = -1 Multiplicity = 2

                          Input orientation:
 ---------------------------------------------------------------------
 Center     Atomic      Atomic             Coordinates (Angstroms)
 Number     Number       Type             X           Y           Z
 ---------------------------------------------------------------------
      1          6           0       -1.641692    2.880870   -0.711000
      2          6           0       -2.840779    2.268998   -0.396648
      3          6           0       -2.854689    0.922028    0.019985
      4          6           0       -0.413006    2.192013   -0.627519
      5          6           0       -0.433165    0.826130   -0.204372
      6          6           0       -1.666631    0.218141    0.112392
      7          6           0        0.829181    2.898128   -0.975403
      8          6           0        2.102055    2.121514   -0.869535
      9          6           0        2.000948    0.738483   -0.432727
     10          6           0        0.818465    0.125398   -0.119590
     11          8           0        0.815921    4.093682   -1.342400
     12          8           0        3.214478    2.624073   -1.141159
     13          8           0        0.712918   -1.194153    0.298484
     14          6           0        1.895518   -1.949205    0.406702
     15          6           0        1.594252   -3.342636    0.868885
     16          6           0        0.390917   -3.835404    1.148748
     17          1           0       -1.602525    3.915083   -1.033887
     18          1           0       -3.771568    2.823924   -0.470114
     19          1           0       -3.793482    0.436162    0.268171
     20          1           0       -1.669926   -0.816856    0.431819
     21          1           0        2.948605    0.217325   -0.371521
     22          1           0        2.594359   -1.474201    1.112955
     23          1           0        2.417392   -1.991429   -0.562150
     24          1           0        2.475864   -3.973994    0.970351
     25          1           0       -0.498328   -3.224724    1.054515
     26          1           0        0.268807   -4.861378    1.478528
 ---------------------------------------------------------------------

 SCF Done:  E(UB3LYP) =  -727.293063820     A.U. after    1 cycles

 Alpha  occ. eigenvalues --  -19.04770 -18.93357 -18.92968 -10.14060 -10.11059
 Alpha  occ. eigenvalues --  -10.10210 -10.08643 -10.07900 -10.07653 -10.05684
 Alpha  occ. eigenvalues --  -10.05572 -10.05494 -10.05318 -10.04562 -10.04422
 Alpha  occ. eigenvalues --  -10.03243  -0.96308  -0.86823  -0.84138  -0.74170
 Alpha  occ. eigenvalues --   -0.71343  -0.67585  -0.63401  -0.60848  -0.60660
 Alpha  occ. eigenvalues --   -0.54811  -0.50147  -0.48132  -0.47299  -0.44667
 Alpha  occ. eigenvalues --   -0.41771  -0.38832  -0.38357  -0.38221  -0.37045
 Alpha  occ. eigenvalues --   -0.34297  -0.32451  -0.31604  -0.30454  -0.29401
 Alpha  occ. eigenvalues --   -0.28831  -0.27888  -0.26715  -0.25495  -0.25052
 Alpha  occ. eigenvalues --   -0.24904  -0.23642  -0.22293  -0.21636  -0.19922
 Alpha  occ. eigenvalues --   -0.18663  -0.15682  -0.13355  -0.11202  -0.09947
 Alpha  occ. eigenvalues --   -0.07870  -0.01354
 Alpha virt. eigenvalues --    0.06261   0.07553   0.07887   0.08506   0.08992
 Alpha virt. eigenvalues --    0.09878   0.10729   0.10822   0.11940   0.12060
 Alpha virt. eigenvalues --    0.13376   0.13468   0.14702   0.15340   0.16138

  Beta  occ. eigenvalues --  -19.04693 -18.92656 -18.92378 -10.14064 -10.10860
  Beta  occ. eigenvalues --  -10.10209 -10.08644 -10.07812 -10.07533 -10.05586
  Beta  occ. eigenvalues --  -10.05535 -10.05466 -10.05273 -10.04555 -10.04322
  Beta  occ. eigenvalues --  -10.03261  -0.96137  -0.85736  -0.82961  -0.73922
  Beta  occ. eigenvalues --   -0.71293  -0.67279  -0.63155  -0.60779  -0.60469
  Beta  occ. eigenvalues --   -0.54146  -0.49962  -0.48018  -0.46962  -0.44497
  Beta  occ. eigenvalues --   -0.41654  -0.38690  -0.38198  -0.38111  -0.36841
  Beta  occ. eigenvalues --   -0.34211  -0.32303  -0.31460  -0.30415  -0.29152
  Beta  occ. eigenvalues --   -0.27869  -0.27781  -0.26181  -0.25218  -0.24645
  Beta  occ. eigenvalues --   -0.23744  -0.22649  -0.22091  -0.21457  -0.18667
  Beta  occ. eigenvalues --   -0.17398  -0.14605  -0.12310  -0.10554  -0.08713
  Beta  occ. eigenvalues --   -0.07277
  Beta virt. eigenvalues --    0.05148   0.06260   0.07607   0.07880   0.08502
  Beta virt. eigenvalues --    0.09572   0.09870   0.10791   0.10821   0.12058
  Beta virt. eigenvalues --    0.13377   0.13470   0.13472   0.14703   0.15411

 Mulliken charges and spin densities:
               1          2
     1  C    0.042772   0.030887
     2  C   -0.421493   0.029558
     3  C   -0.302351   0.069557
     4  C    0.516445   0.073820
     5  C    0.361142   0.056338
     6  C   -0.203281  -0.006819
     7  C   -0.592811   0.071381
     8  C   -0.226283   0.108242
     9  C    0.249115  -0.025922
    10  C   -0.110006   0.097463
    11  O   -0.368734   0.266152
    12  O   -0.388641   0.216037
    13  O   -0.122726   0.017599
    14  C    0.114100   0.002621
    15  C   -0.319578   0.000494
    16  C   -0.580197  -0.000076
    17  H    0.161342  -0.003117
    18  H    0.115880  -0.003037
    19  H    0.136101  -0.005143
    20  H    0.051293   0.001639
    21  H    0.179943  -0.000573
    22  H    0.141705   0.001638
    23  H    0.141865   0.001651
    24  H    0.172212  -0.000212
    25  H    0.127879  -0.000214
    26  H    0.124307   0.000037
 Sum of Mulliken charges =  -1.00000   1.00000

 Dipole moment (field-independent basis, Debye):
    X=             -5.1970    Y=            -13.0911    Z=              4.5559  Tot=             14.8035
 Quadrupole moment (field-independent basis, Debye-Ang):
   XX=           -120.3054   YY=           -146.4697   ZZ=           -106.9690
   XY=            -24.5159   XZ=              9.5642   YZ=             16.5591

  Exact polarizability: 250.842   2.742 212.874 -16.946 -35.874 110.323
 Approx polarizability: 423.747  29.988 316.369 -37.891 -54.138 171.650

                      1                      2                      3
                      A                      A                      A
 Frequencies --     36.1848                49.2426                74.1404
 Red. masses --      4.6776                 2.8420                10.0901
 Frc consts  --      0.0036                 0.0041                 0.0327
 IR Inten    --      0.7153                 1.7630                 0.0363

                      4                      5                      6
                      A                      A                      A
 Frequencies --     96.2165               128.7843               182.3534
 Red. masses --      4.2810                 4.2206                 4.4124
 Frc consts  --      0.0234                 0.0412                 0.0864
 IR Inten    --      1.5447                 1.4278                 0.6351

                      7                      8                      9
                      A                      A                      A
 Frequencies --    200.6130               212.3595               218.2389
 Red. masses --      2.0705                 4.4516                 4.7326
 Frc consts  --      0.0491                 0.1183                 0.1328
 IR Inten    --      3.7753                 3.1146                 1.3150

                     10                     11                     12
                      A                      A                      A
 Frequencies --    260.4145               354.0301               361.8665
 Red. masses --      5.4246                 7.0032                12.8918
 Frc consts  --      0.2167                 0.5172                 0.9946
 IR Inten    --      1.3461                 0.8586                 0.0689

                     13                     14                     15
                      A                      A                      A
 Frequencies --    406.4081               413.6963               432.1702
 Red. masses --      5.1345                 7.8607                 4.0007
 Frc consts  --      0.4997                 0.7926                 0.4403
 IR Inten    --      0.0676                 8.2770                 2.3461

                     16                     17                     18
                      A                      A                      A
 Frequencies --    466.3222               507.4642               522.9309
 Red. masses --      7.8043                 4.8519                 3.7935
 Frc consts  --      0.9999                 0.7362                 0.6112
 IR Inten    --      0.9999                 1.5662                 5.4874

                     19                     20                     21
                      A                      A                      A
 Frequencies --    572.5019               611.0580               613.8876
 Red. masses --      1.2485                 5.8445                 3.9639
 Frc consts  --      0.2411                 1.2858                 0.8801
 IR Inten    --     14.1447                 5.2293                 4.1512

                     22                     23                     24
                      A                      A                      A
 Frequencies --    670.9588               691.9546               714.5008
 Red. masses --      4.5598                 6.3695                 2.7667
 Frc consts  --      1.2095                 1.7968                 0.8322
 IR Inten    --      0.2113                10.7440                24.5918

                     25                     26                     27
                      A                      A                      A
 Frequencies --    724.2892               753.9581               768.5582
 Red. masses --      6.5770                 1.9511                 3.5204
 Frc consts  --      2.0328                 0.6535                 1.2252
 IR Inten    --     10.3575                36.4645                 2.2159

                     28                     29                     30
                      A                      A                      A
 Frequencies --    827.7280               846.6308               851.5364
 Red. masses --      1.5540                 4.3040                 1.4152
 Frc consts  --      0.6273                 1.8176                 0.6046
 IR Inten    --     25.2234                10.2060                 0.0143

                     31                     32                     33
                      A                      A                      A
 Frequencies --    932.4858               934.0448               945.3943
 Red. masses --      1.3309                 2.8830                 1.3085
 Frc consts  --      0.6818                 1.4819                 0.6891
 IR Inten    --     43.0688                 0.2228                 4.9342

                     34                     35                     36
                      A                      A                      A
 Frequencies --    980.0517               981.3812               998.8197
 Red. masses --      1.2884                 4.8867                 2.7258
 Frc consts  --      0.7291                 2.7729                 1.6022
 IR Inten    --      1.4179                 3.0928                11.3012

                     37                     38                     39
                      A                      A                      A
 Frequencies --   1016.5935              1040.9721              1042.0264
 Red. masses --      1.1203                 1.5914                 2.0584
 Frc consts  --      0.6822                 1.0161                 1.3169
 IR Inten    --      5.4603                15.2747                27.9117

                     40                     41                     42
                      A                      A                      A
 Frequencies --   1084.1560              1131.0191              1156.4125
 Red. masses --      2.5881                 1.7151                 1.5218
 Frc consts  --      1.7923                 1.2926                 1.1991
 IR Inten    --    142.7308                 2.0071                20.5488

                     43                     44                     45
                      A                      A                      A
 Frequencies --   1172.6467              1209.4526              1219.7063
 Red. masses --      2.3354                 5.7771                 1.9044
 Frc consts  --      1.8921                 4.9790                 1.6693
 IR Inten    --    178.1761                80.2133                83.8211

                     46                     47                     48
                      A                      A                      A
 Frequencies --   1235.6745              1256.9428              1278.6985
 Red. masses --      2.2465                 1.0711                 2.0743
 Frc consts  --      2.0210                 0.9970                 1.9983
 IR Inten    --     16.8389                 0.0267                 4.0367

                     49                     50                     51
                      A                      A                      A
 Frequencies --   1319.9679              1352.3966              1388.4217
 Red. masses --      1.2861                 6.6958                 1.8992
 Frc consts  --      1.3203                 7.2154                 2.1571
 IR Inten    --      4.2541                34.6205               164.1637

                     52                     53                     54
                      A                      A                      A
 Frequencies --   1420.7695              1440.0172              1450.0426
 Red. masses --      1.7256                 1.2948                 2.4773
 Frc consts  --      2.0523                 1.5819                 3.0690
 IR Inten    --     15.0364                 2.9076                62.2159

                     55                     56                     57
                      A                      A                      A
 Frequencies --   1490.8480              1499.2774              1512.5098
 Red. masses --      2.3481                 1.4769                 3.6938
 Frc consts  --      3.0750                 1.9560                 4.9788
 IR Inten    --    207.3042                24.6680                91.5829

                     58                     59                     60
                      A                      A                      A
 Frequencies --   1545.9010              1582.6238              1599.8260
 Red. masses --      7.1523                 7.5148                 7.8221
 Frc consts  --     10.0707                11.0898                11.7956
 IR Inten    --    265.4290               110.3931               347.5990

                     61                     62                     63
                      A                      A                      A
 Frequencies --   1621.6015              1705.0446              2956.0944
 Red. masses --      6.0364                 4.8337                 1.0549
 Frc consts  --      9.3523                 8.2794                 5.4311
 IR Inten    --     18.6771                16.3464                43.3876

                     64                     65                     66
                      A                      A                      A
 Frequencies --   2972.1410              3117.1635              3133.9140
 Red. masses --      1.1028                 1.0798                 1.0845
 Frc consts  --      5.7399                 6.1818                 6.2754
 IR Inten    --     34.5351                25.1477                16.4775

                     67                     68                     69
                      A                      A                      A
 Frequencies --   3139.9409              3153.3273              3180.8763
 Red. masses --      1.0688                 1.0909                 1.0897
 Frc consts  --      6.2087                 6.3913                 6.4959
 IR Inten    --     27.9742                46.6373                37.9133

                     70                     71                     72
                      A                      A                      A
 Frequencies --   3180.9797              3186.8683              3227.4817
 Red. masses --      1.0903                 1.0921                 1.1146
 Frc consts  --      6.5001                 6.5350                 6.8407
 IR Inten    --      0.6799                26.3162                12.7973

 - Thermochemistry -
 -------------------
 Temperature   298.150 Kelvin.  Pressure   1.00000 Atm.
 Atom     1 has atomic number  6 and mass  12.00000

 Molecular mass:   214.06299 amu.
 Principal axes and moments of inertia in atomic units:
                           1         2         3
     Eigenvalues --  2381.747224469.070066839.64257
           X           -0.18598   0.97748   0.09974
           Y            0.94423   0.14973   0.29326
           Z           -0.27173  -0.14872   0.95081
 This molecule is an asymmetric top.
 Rotational symmetry number  1.
 Warning -- assumption of classical behavior for rotation
           may cause significant error
 Rotational temperatures (Kelvin)      0.03637     0.01938     0.01266
 Rotational constants (GHZ):           0.75774     0.40383     0.26386
 Zero-point vibrational energy     510599.2 (Joules/Mol)
                                  122.03613 (Kcal/Mol)
 Warning -- explicit consideration of  21 degrees of freedom as
           vibrations may cause significant error
 Vibrational temperatures:     52.06    70.85   106.67   138.43   185.29
          (Kelvin)            262.37   288.64   305.54   314.00   374.68
                              509.37   520.65   584.73   595.22   621.80
                              670.93   730.13   752.38   823.70   879.18
                              883.25   965.36   995.57  1028.01  1042.09
                             1084.78  1105.78  1190.92  1218.11  1225.17
                             1341.64  1343.88  1360.21  1410.08  1411.99
                             1437.08  1462.65  1497.73  1499.24  1559.86
                             1627.28  1663.82  1687.18  1740.13  1754.89
                             1777.86  1808.46  1839.76  1899.14  1945.80
                             1997.63  2044.17  2071.86  2086.29  2145.00
                             2157.13  2176.16  2224.21  2277.04  2301.79
                             2333.12  2453.18  4253.16  4276.25  4484.90
                             4509.00  4517.67  4536.93  4576.57  4576.72
                             4585.19  4643.63

 Zero-point correction=                           0.194477 (Hartree/Particle)
 Thermal correction to Energy=                    0.208079
 Thermal correction to Enthalpy=                  0.209024
 Thermal correction to Gibbs Free Energy=         0.152494
 Sum of electronic and zero-point Energies=           -727.098587
 Sum of electronic and thermal Energies=              -727.084984
 Sum of electronic and thermal Enthalpies=            -727.084040
 Sum of electronic and thermal Free Energies=         -727.140570

                     E (Thermal)             CV                S
                      KCal/Mol        Cal/Mol-Kelvin    Cal/Mol-Kelvin
 Total                  130.572             52.225            118.977
 Electronic               0.000              0.000              1.377
 Translational            0.889              2.981             41.987
 Rotational               0.889              2.981             32.654
 Vibrational            128.794             46.263             42.959
 Vibration     1          0.594              1.982              5.458
 Vibration     2          0.595              1.978              4.848
 Vibration     3          0.599              1.966              4.040
 Vibration     4          0.603              1.952              3.530
 Vibration     5          0.611              1.924              2.964
 Vibration     6          0.630              1.864              2.304
 Vibration     7          0.638              1.839              2.127
 Vibration     8          0.643              1.822              2.023
 Vibration     9          0.646              1.813              1.974
 Vibration    10          0.668              1.745              1.659
 Vibration    11          0.730              1.567              1.148
 Vibration    12          0.736              1.551              1.114
 Vibration    13          0.771              1.456              0.939
 Vibration    14          0.777              1.440              0.914
 Vibration    15          0.793              1.400              0.852
 Vibration    16          0.824              1.325              0.748
 Vibration    17          0.863              1.233              0.640
 Vibration    18          0.878              1.199              0.603
 Vibration    19          0.929              1.091              0.499
 Vibration    20          0.970              1.008              0.431
 Vibration    21          0.973              1.002              0.426

 Optimization completed.
    -- Stationary point found.
 Normal termination of Gaussian 16 at Tue Jan  9 21:11:31 2024.
