 Q-Chem 5.4, Q-Chem, Inc., Pleasanton, CA (2021)
 Q-Chem 5.4.0 for Intel X86 EM64T Linux

User input:
--------------------------------------------------------------
$molecule
-1 2
C                 -1.6416920000      2.8808700000     -0.7110000000
C                 -2.8407790000      2.2689980000     -0.3966480000
C                 -2.8546890000      0.9220280000      0.0199850000
C                 -0.4130060000      2.1920130000     -0.6275190000
C                 -0.4331650000      0.8261300000     -0.2043720000
C                 -1.6666310000      0.2181410000      0.1123920000
C                  0.8291810000      2.8981280000     -0.9754030000
C                  2.1020550000      2.1215140000     -0.8695350000
C                  2.0009480000      0.7384830000     -0.4327270000
C                  0.8184650000      0.1253980000     -0.1195900000
O                  0.8159210000      4.0936820000     -1.3424000000
O                  3.2144780000      2.6240730000     -1.1411590000
O                  0.7129180000     -1.1941530000      0.2984840000
C                  1.8955180000     -1.9492050000      0.4067020000
C                  1.5942520000     -3.3426360000      0.8688850000
C                  0.3909170000     -3.8354040000      1.1487480000
H                 -1.6025250000      3.9150830000     -1.0338870000
H                 -3.7715680000      2.8239240000     -0.4701140000
H                 -3.7934820000      0.4361620000      0.2681710000
H                 -1.6699260000     -0.8168560000      0.4318190000
H                  2.9486050000      0.2173250000     -0.3715210000
H                  2.5943590000     -1.4742010000      1.1129550000
H                  2.4173920000     -1.9914290000     -0.5621500000
H                  2.4758640000     -3.9739940000      0.9703510000
H                 -0.4983280000     -3.2247240000      1.0545150000
H                  0.2688070000     -4.8613780000      1.4785280000
$end

$rem
BASIS  =  6-311++G(d,p)
GUI  =  2
JOB_TYPE  =  SP
METHOD  =  B3LYP
SCF_CONVERGENCE  = 8
SOLVENT_METHOD = sm12
$end

$smx
solvent dimethylformamide
charges CM5
$end

--------------------------------------------------------------

             Standard Nuclear Orientation (Angstroms)
    I     Atom           X                Y                Z
 ----------------------------------------------------------------
    1      C      -1.6416920000     2.8808700000    -0.7110000000
    2      C      -2.8407790000     2.2689980000    -0.3966480000
    3      C      -2.8546890000     0.9220280000     0.0199850000
    4      C      -0.4130060000     2.1920130000    -0.6275190000
    5      C      -0.4331650000     0.8261300000    -0.2043720000
    6      C      -1.6666310000     0.2181410000     0.1123920000
    7      C       0.8291810000     2.8981280000    -0.9754030000
    8      C       2.1020550000     2.1215140000    -0.8695350000
    9      C       2.0009480000     0.7384830000    -0.4327270000
   10      C       0.8184650000     0.1253980000    -0.1195900000
   11      O       0.8159210000     4.0936820000    -1.3424000000
   12      O       3.2144780000     2.6240730000    -1.1411590000
   13      O       0.7129180000    -1.1941530000     0.2984840000
   14      C       1.8955180000    -1.9492050000     0.4067020000
   15      C       1.5942520000    -3.3426360000     0.8688850000
   16      C       0.3909170000    -3.8354040000     1.1487480000
   17      H      -1.6025250000     3.9150830000    -1.0338870000
   18      H      -3.7715680000     2.8239240000    -0.4701140000
   19      H      -3.7934820000     0.4361620000     0.2681710000
   20      H      -1.6699260000    -0.8168560000     0.4318190000
   21      H       2.9486050000     0.2173250000    -0.3715210000
   22      H       2.5943590000    -1.4742010000     1.1129550000
   23      H       2.4173920000    -1.9914290000    -0.5621500000
   24      H       2.4758640000    -3.9739940000     0.9703510000
   25      H      -0.4983280000    -3.2247240000     1.0545150000
   26      H       0.2688070000    -4.8613780000     1.4785280000
 ----------------------------------------------------------------

   18    -727.2874177151      3.42e-09  Convergence criterion met
 Total energy in the final basis set =     -727.3800804174

                    Orbital Energies (a.u.)
 --------------------------------------------------------------

 Alpha MOs
 -- Occupied --
-19.1615 -19.0726 -19.0679 -10.2400 -10.2346 -10.2162 -10.2136 -10.1884
-10.1850 -10.1835 -10.1821 -10.1814 -10.1789 -10.1773 -10.1686 -10.1624
 -1.0760  -1.0069  -0.9808  -0.8700  -0.8181  -0.7902  -0.7614  -0.7364
 -0.7095  -0.6711  -0.6269  -0.6024  -0.5909  -0.5513  -0.5343  -0.5140
 -0.5020  -0.4833  -0.4743  -0.4534  -0.4489  -0.4355  -0.4246  -0.4225
 -0.4200  -0.4029  -0.3884  -0.3780  -0.3730  -0.3620  -0.3615  -0.3478
 -0.3425  -0.3348  -0.2839  -0.2687  -0.2652  -0.2521  -0.2300  -0.2182
 -0.1504

 Beta MOs
 -- Occupied --
-19.1606 -19.0655 -19.0623 -10.2381 -10.2346 -10.2152 -10.2120 -10.1873
-10.1850 -10.1837 -10.1815 -10.1810 -10.1782 -10.1770 -10.1686 -10.1628
 -1.0740  -0.9959  -0.9692  -0.8676  -0.8160  -0.7885  -0.7592  -0.7347
 -0.7078  -0.6645  -0.6255  -0.5988  -0.5892  -0.5501  -0.5329  -0.5127
 -0.4994  -0.4807  -0.4733  -0.4518  -0.4477  -0.4351  -0.4231  -0.4204
 -0.4068  -0.3974  -0.3848  -0.3722  -0.3619  -0.3606  -0.3547  -0.3463
 -0.3416  -0.3108  -0.2759  -0.2662  -0.2552  -0.2457  -0.2199  -0.2124

          Ground-State Mulliken Net Atomic Charges

     Atom                 Charge (a.u.)    Spin (a.u.)
  --------------------------------------------------------
      1 C                    -0.796291       0.055616
      2 C                     0.757496       0.010207
      3 C                     1.056531       0.076582
      4 C                    -0.978420       0.044210
      5 C                    -0.765969       0.057097
      6 C                     0.063209      -0.007384
      7 C                    -1.571954       0.097492
      8 C                    -2.412253       0.119196
      9 C                     0.375547      -0.047004
     10 C                     0.820348       0.096670
     11 O                    -0.382580       0.269757
     12 O                    -0.418876       0.205637
     13 O                     0.009403       0.023844
     14 C                     0.434925       0.002647
     15 C                     0.836669      -0.000145
     16 C                    -0.254883       0.000106
     17 H                     0.102508      -0.004529
     18 H                     0.327159      -0.001580
     19 H                     0.375424      -0.005143
     20 H                     0.201735       0.001584
     21 H                     0.232158       0.001252
     22 H                     0.172101       0.002091
     23 H                     0.172532       0.002133
     24 H                     0.318266      -0.000170
     25 H                     0.076340      -0.000205
     26 H                     0.248874       0.000040
  --------------------------------------------------------
  Sum of atomic charges =    -1.000000

                    Cartesian Multipole Moments
 -----------------------------------------------------------------
    Charge (ESU x 10^10)
                -4.8032
    Dipole Moment (Debye)
         X      -6.2437      Y     -15.2431      Z       5.3303
       Tot      17.3132
    Quadrupole Moments (Debye-Ang)
        XX    -117.3526     XY     -29.1550     YY    -147.6471
        XZ      10.6644     YZ      17.3567     ZZ    -107.4925

 Total job time:  596.41s(wall), 4348.09s(cpu)
        *  Thank you very much for using Q-Chem.  Have a nice day.  *
