 Gaussian 16, Revision A.03,
 Gaussian 16:  ES64L-G16RevA.03 25-Dec-2016

 --------------------------------------
 #P UB3LYP/6-311++G(d,p) nosym opt freq
 --------------------------------------

 -------
 Reduced
 -------
 Symbolic Z-matrix:
 Charge = -2 Multiplicity = 1

 SCF Done:  E(UB3LYP) =  -566.109743063     A.U. after   23 cycles
 SCF Done:  E(UB3LYP) =  -566.141490462     A.U. after   17 cycles
 SCF Done:  E(UB3LYP) =  -566.145169111     A.U. after   15 cycles
 SCF Done:  E(UB3LYP) =  -566.145407324     A.U. after   14 cycles
 SCF Done:  E(UB3LYP) =  -566.145454130     A.U. after   14 cycles
 SCF Done:  E(UB3LYP) =  -566.145475787     A.U. after   13 cycles
 SCF Done:  E(UB3LYP) =  -566.145479780     A.U. after   12 cycles
 SCF Done:  E(UB3LYP) =  -566.145480301     A.U. after   12 cycles
 Optimization completed.
    -- Stationary point found.
 Normal termination of Gaussian 16 at Sun Dec 17 21:03:35 2023.

 ----------------------------------------------------------------------
 #P Geom=AllCheck Guess=TCheck SCRF=Check GenChk UB3LYP/6-311++G(d,p) F
 req
 ----------------------------------------------------------------------

 Structure from the checkpoint file:  "001-an.chk"
 -------
 Reduced
 -------
 Charge = -2 Multiplicity = 1

                          Input orientation:
 ---------------------------------------------------------------------
 Center     Atomic      Atomic             Coordinates (Angstroms)
 Number     Number       Type             X           Y           Z
 ---------------------------------------------------------------------
      1          8           0       -1.136544    1.776379   -1.903944
      2          6           0       -0.807771    0.904212   -1.030379
      3          6           0       -1.795462   -0.004649   -0.471195
      4          6           0       -1.517929   -0.961607    0.465932
      5          6           0       -0.198012   -1.198045    1.028293
      6          8           0       -0.009159   -2.110348    1.902317
      7          6           0        0.808798   -0.319801    0.502460
      8          6           0        0.511725    0.704537   -0.500650
      9          6           0        1.539750    1.543992   -0.985870
     10          7           0        2.385588    2.239691   -1.389462
     11          6           0        2.125461   -0.475272    0.991594
     12          7           0        3.211367   -0.607004    1.398715
     13          1           0       -2.809702    0.118689   -0.850731
     14          1           0       -2.308108   -1.610775    0.842919
 ---------------------------------------------------------------------

 SCF Done:  E(UB3LYP) =  -566.145480301     A.U. after    1 cycles

 Alpha  occ. eigenvalues --  -18.78074 -18.78074 -14.03028 -14.03027  -9.95006
 Alpha  occ. eigenvalues --   -9.95005  -9.93621  -9.93619  -9.91354  -9.91321
 Alpha  occ. eigenvalues --   -9.90963  -9.90897  -0.70273  -0.69902  -0.63147
 Alpha  occ. eigenvalues --   -0.62592  -0.55538  -0.49775  -0.43875  -0.37314
 Alpha  occ. eigenvalues --   -0.33531  -0.24050  -0.22731  -0.20954  -0.17785
 Alpha  occ. eigenvalues --   -0.13987  -0.12599  -0.11352  -0.10940  -0.09840
 Alpha  occ. eigenvalues --   -0.09677  -0.09518  -0.08224  -0.06286  -0.05799
 Alpha  occ. eigenvalues --   -0.05544   0.00552   0.02271   0.04337   0.04340
 Alpha  occ. eigenvalues --    0.11178
 Alpha virt. eigenvalues --    0.18379   0.20366   0.21411   0.23509   0.24448
 Alpha virt. eigenvalues --    0.26417   0.26701   0.27368   0.28209   0.28532
 Alpha virt. eigenvalues --    0.28687   0.29141   0.30088   0.30529   0.30858

  Beta  occ. eigenvalues --  -18.78074 -18.78074 -14.03028 -14.03027  -9.95006
  Beta  occ. eigenvalues --   -9.95005  -9.93621  -9.93619  -9.91354  -9.91321
  Beta  occ. eigenvalues --   -9.90963  -9.90897  -0.70273  -0.69902  -0.63147
  Beta  occ. eigenvalues --   -0.62592  -0.55538  -0.49775  -0.43875  -0.37314
  Beta  occ. eigenvalues --   -0.33531  -0.24050  -0.22731  -0.20954  -0.17785
  Beta  occ. eigenvalues --   -0.13987  -0.12599  -0.11352  -0.10940  -0.09840
  Beta  occ. eigenvalues --   -0.09677  -0.09518  -0.08224  -0.06286  -0.05799
  Beta  occ. eigenvalues --   -0.05544   0.00552   0.02271   0.04337   0.04340
  Beta  occ. eigenvalues --    0.11178
  Beta virt. eigenvalues --    0.18379   0.20366   0.21411   0.23509   0.24448
  Beta virt. eigenvalues --    0.26417   0.26701   0.27368   0.28209   0.28532
  Beta virt. eigenvalues --    0.28687   0.29141   0.30088   0.30529   0.30858

 Mulliken charges and spin densities:
               1          2
     1  O   -0.520400   0.000000
     2  C   -1.141598   0.000000
     3  C    0.294673  -0.000000
     4  C    0.294632   0.000000
     5  C   -1.141851  -0.000000
     6  O   -0.520408   0.000000
     7  C    1.674096   0.000000
     8  C    1.674393  -0.000000
     9  C   -1.042829   0.000000
    10  N   -0.359370  -0.000000
    11  C   -1.042648  -0.000000
    12  N   -0.359376   0.000000
    13  H    0.095343   0.000000
    14  H    0.095343   0.000000
 Sum of Mulliken charges =  -2.00000  -0.00000

 Dipole moment (field-independent basis, Debye):
    X=             -7.7032    Y=             -2.2476    Z=             -0.0132  Tot=              8.0244
 Quadrupole moment (field-independent basis, Debye-Ang):
   XX=           -118.6718   YY=           -111.6054   ZZ=           -106.7625
   XY=             -2.3183   XZ=             -9.4979   YZ=             32.4904

  Exact polarizability: 196.856  22.239 127.368  13.047 -44.246 115.205
 Approx polarizability: 350.374  48.321 199.271  21.467 -72.543 175.866

                      1                      2                      3
                      A                      A                      A
 Frequencies --     63.7625               111.3171               137.3999
 Red. masses --     13.3688                 6.7750                13.6376
 Frc consts  --      0.0320                 0.0495                 0.1517
 IR Inten    --      0.0000                 7.2484                 0.0000

                      4                      5                      6
                      A                      A                      A
 Frequencies --    176.1074               178.8645               311.7036
 Red. masses --      9.6938                13.2654                 7.4105
 Frc consts  --      0.1771                 0.2500                 0.4242
 IR Inten    --     13.2041                 2.3839                 0.0000

                      7                      8                      9
                      A                      A                      A
 Frequencies --    339.3847               379.3785               385.7747
 Red. masses --     14.6056                11.2820                 6.8672
 Frc consts  --      0.9912                 0.9567                 0.6021
 IR Inten    --      1.9168                 0.8429                 0.0000

                     10                     11                     12
                      A                      A                      A
 Frequencies --    454.4185               479.3455               520.0275
 Red. masses --     11.8858                11.0137                 4.1047
 Frc consts  --      1.4461                 1.4910                 0.6540
 IR Inten    --     16.8320                 3.9271                11.7732

                     13                     14                     15
                      A                      A                      A
 Frequencies --    539.4642               591.1893               614.6834
 Red. masses --     12.1100                 8.4625                 9.3738
 Frc consts  --      2.0764                 1.7426                 2.0867
 IR Inten    --      2.9442                 0.0000                 0.2416

                     16                     17                     18
                      A                      A                      A
 Frequencies --    651.0891               657.6123               758.4955
 Red. masses --      3.2374                 4.6715                 7.8692
 Frc consts  --      0.8086                 1.1903                 2.6674
 IR Inten    --      0.2356                 0.3627                 0.0032

                     19                     20                     21
                      A                      A                      A
 Frequencies --    759.0888               834.7357               937.5348
 Red. masses --      8.4267                 2.2274                 1.2770
 Frc consts  --      2.8608                 0.9144                 0.6613
 IR Inten    --     19.9312                30.9881                 0.0000

                     22                     23                     24
                      A                      A                      A
 Frequencies --    973.5938              1002.1371              1147.4922
 Red. masses --      7.6254                 5.0651                 1.2905
 Frc consts  --      4.2586                 2.9971                 1.0012
 IR Inten    --     37.3515                22.2320                77.7160

                     25                     26                     27
                      A                      A                      A
 Frequencies --   1154.9852              1215.7875              1336.8760
 Red. masses --      3.6706                10.0512                 8.5119
 Frc consts  --      2.8850                 8.7536                 8.9631
 IR Inten    --     59.3904               151.8599               149.0378

                     28                     29                     30
                      A                      A                      A
 Frequencies --   1341.5483              1431.4596              1458.0191
 Red. masses --      2.2528                 8.1280                10.8804
 Frc consts  --      2.3888                 9.8127                13.6276
 IR Inten    --     47.5431               104.5377                11.2165

                     31                     32                     33
                      A                      A                      A
 Frequencies --   1498.8166              1617.9387              2221.7784
 Red. masses --      5.7120                 7.1054                12.6725
 Frc consts  --      7.5603                10.9588                36.8565
 IR Inten    --    851.5801               147.8322               140.0987

                     34                     35                     36
                      A                      A                      A
 Frequencies --   2227.7287              3085.2664              3114.2410
 Red. masses --     12.6764                 1.0834                 1.0936
 Frc consts  --     37.0657                 6.0759                 6.2490
 IR Inten    --    827.0176                42.6521               122.4755

 - Thermochemistry -
 -------------------
 Temperature   298.150 Kelvin.  Pressure   1.00000 Atm.
 Atom     1 has atomic number  8 and mass  15.99491

 Molecular mass:   158.01163 amu.
 Principal axes and moments of inertia in atomic units:
                           1         2         3
     Eigenvalues --  1476.323751764.517693240.84139
           X           -0.20287   0.96001  -0.19292
           Y            0.69960   0.27995   0.65741
           Z           -0.68513   0.00160   0.72842
 This molecule is an asymmetric top.
 Rotational symmetry number  1.
 Warning -- assumption of classical behavior for rotation
           may cause significant error
 Rotational temperatures (Kelvin)      0.05867     0.04909     0.02673
 Rotational constants (GHZ):           1.22246     1.02280     0.55687
 Zero-point vibrational energy     207606.2 (Joules/Mol)
                                   49.61907 (Kcal/Mol)
 Warning -- explicit consideration of  15 degrees of freedom as
           vibrations may cause significant error
 Vibrational temperatures:     91.74   160.16   197.69   253.38   257.35
          (Kelvin)            448.47   488.30   545.84   555.04   653.81
                              689.67   748.20   776.17   850.59   884.39
                              936.77   946.16  1091.31  1092.16  1201.00
                             1348.90  1400.78  1441.85  1650.99  1661.77
                             1749.25  1923.47  1930.19  2059.55  2097.76
                             2156.46  2327.85  3196.64  3205.20  4439.01
                             4480.70

 Zero-point correction=                           0.079073 (Hartree/Particle)
 Thermal correction to Energy=                    0.088676
 Thermal correction to Enthalpy=                  0.089621
 Thermal correction to Gibbs Free Energy=         0.043597
 Sum of electronic and zero-point Energies=           -566.066407
 Sum of electronic and thermal Energies=              -566.056804
 Sum of electronic and thermal Enthalpies=            -566.055860
 Sum of electronic and thermal Free Energies=         -566.101884

                     E (Thermal)             CV                S
                      KCal/Mol        Cal/Mol-Kelvin    Cal/Mol-Kelvin
 Total                   55.645             35.216             96.866
 Electronic               0.000              0.000              0.000
 Translational            0.889              2.981             41.082
 Rotational               0.889              2.981             30.513
 Vibrational             53.868             29.255             25.271
 Vibration     1          0.597              1.972              4.337
 Vibration     2          0.607              1.940              3.246
 Vibration     3          0.614              1.916              2.840
 Vibration     4          0.628              1.872              2.369
 Vibration     5          0.629              1.868              2.340
 Vibration     6          0.700              1.651              1.353
 Vibration     7          0.719              1.597              1.215
 Vibration     8          0.749              1.514              1.042
 Vibration     9          0.754              1.501              1.016
 Vibration    10          0.813              1.351              0.783
 Vibration    11          0.836              1.296              0.712
 Vibration    12          0.875              1.206              0.610
 Vibration    13          0.895              1.163              0.566
 Vibration    14          0.949              1.051              0.465
 Vibration    15          0.974              1.001              0.425

 Optimization completed.
    -- Stationary point found.
 Normal termination of Gaussian 16 at Sun Dec 17 21:11:20 2023.
