 Gaussian 16, Revision A.03,
 Gaussian 16:  ES64L-G16RevA.03 25-Dec-2016

 ----------------------------------------------------------------
 #P UB3LYP/6-311++G(d,p) SCRF=(PCM,Solvent=n,n-DiMethylFormamide)
 ----------------------------------------------------------------

 ------------------
 Quinone PCM in DMF
 ------------------
 Symbolic Z-matrix:
 Charge =  0 Multiplicity = 1

                         Standard orientation:
 ---------------------------------------------------------------------
 Center     Atomic      Atomic             Coordinates (Angstroms)
 Number     Number       Type             X           Y           Z
 ---------------------------------------------------------------------
      1          6           0        2.604950    1.032185    0.163722
      2          6           0        3.629296    0.091390    0.204473
      3          6           0        3.331606   -1.268939    0.104492
      4          6           0        1.281138    0.608662    0.023346
      5          6           0        0.978518   -0.759171   -0.077929
      6          6           0        2.011721   -1.693637   -0.036695
      7          6           0        0.184535    1.592633   -0.021003
      8          6           0       -1.211317    1.087047   -0.167184
      9          6           0       -1.526878   -0.226728   -0.277695
     10          6           0       -0.441084   -1.228271   -0.232294
     11          8           0        0.346520    2.805304    0.055784
     12          8           0       -0.684969   -2.423459   -0.322123
     13          1           0        2.810909    2.092892    0.238950
     14          1           0        4.657702    0.415619    0.313776
     15          1           0        4.131132   -2.000404    0.136588
     16          1           0        1.763445   -2.744698   -0.116224
     17          6           0       -2.945373   -0.708198   -0.413705
     18          8           0       -2.141290    2.055409   -0.187774
     19          6           0       -3.585709   -1.057785    0.943794
     20          1           0       -2.947376   -1.596912   -1.048442
     21          1           0       -3.537106    0.065073   -0.908380
     22          1           0       -1.655493    2.898413   -0.108704
     23          1           0       -3.027185   -1.851128    1.445204
     24          1           0       -4.611504   -1.406792    0.799089
     25          1           0       -3.615021   -0.185236    1.601110
 ---------------------------------------------------------------------

 SCF Done:  E(UB3LYP) =  -689.181491902     A.U. after   16 cycles

 The electronic state is 1-A.
 Alpha  occ. eigenvalues --  -19.18094 -19.15168 -19.13097 -10.29555 -10.28249
 Alpha  occ. eigenvalues --  -10.26945 -10.21305 -10.21175 -10.20556 -10.20368
 Alpha  occ. eigenvalues --  -10.20194 -10.20023 -10.19982 -10.18069 -10.16500
 Alpha  occ. eigenvalues --   -1.11105  -1.06952  -1.06460  -0.89500  -0.84542
 Alpha  occ. eigenvalues --   -0.79545  -0.78250  -0.75158  -0.69914  -0.66396
 Alpha  occ. eigenvalues --   -0.64938  -0.61159  -0.60495  -0.57619  -0.54484
 Alpha  occ. eigenvalues --   -0.52108  -0.49943  -0.48231  -0.47464  -0.46946
 Alpha  occ. eigenvalues --   -0.45771  -0.45531  -0.44313  -0.42987  -0.42604
 Alpha  occ. eigenvalues --   -0.41430  -0.40930  -0.38903  -0.38181  -0.37891
 Alpha  occ. eigenvalues --   -0.37411  -0.36224  -0.35118  -0.30549  -0.29226
 Alpha  occ. eigenvalues --   -0.28247  -0.28100  -0.26002
 Alpha virt. eigenvalues --   -0.12764  -0.05838  -0.02836  -0.01024   0.00150
 Alpha virt. eigenvalues --    0.00744   0.01696   0.02049   0.02316   0.02384
 Alpha virt. eigenvalues --    0.03804   0.04408   0.04860   0.05075   0.05223

  Beta  occ. eigenvalues --  -19.18094 -19.15168 -19.13097 -10.29555 -10.28249
  Beta  occ. eigenvalues --  -10.26945 -10.21305 -10.21175 -10.20556 -10.20368
  Beta  occ. eigenvalues --  -10.20194 -10.20023 -10.19982 -10.18069 -10.16500
  Beta  occ. eigenvalues --   -1.11105  -1.06952  -1.06460  -0.89500  -0.84542
  Beta  occ. eigenvalues --   -0.79545  -0.78250  -0.75158  -0.69914  -0.66396
  Beta  occ. eigenvalues --   -0.64938  -0.61159  -0.60495  -0.57619  -0.54484
  Beta  occ. eigenvalues --   -0.52108  -0.49943  -0.48231  -0.47464  -0.46946
  Beta  occ. eigenvalues --   -0.45771  -0.45531  -0.44313  -0.42987  -0.42604
  Beta  occ. eigenvalues --   -0.41430  -0.40930  -0.38903  -0.38181  -0.37891
  Beta  occ. eigenvalues --   -0.37411  -0.36224  -0.35118  -0.30549  -0.29226
  Beta  occ. eigenvalues --   -0.28247  -0.28100  -0.26002
  Beta virt. eigenvalues --   -0.12764  -0.05838  -0.02836  -0.01024   0.00150
  Beta virt. eigenvalues --    0.00744   0.01696   0.02049   0.02316   0.02384
  Beta virt. eigenvalues --    0.03804   0.04408   0.04860   0.05075   0.05223

 Mulliken charges and spin densities:
               1          2
     1  C   -0.013873  -0.000000
     2  C   -0.292353   0.000000
     3  C   -0.433651  -0.000000
     4  C    1.073237   0.000000
     5  C   -0.086368   0.000000
     6  C    0.189595  -0.000000
     7  C   -1.005306   0.000000
     8  C   -0.548967  -0.000000
     9  C    1.537506  -0.000000
    10  C   -0.911236   0.000000
    11  O   -0.307573  -0.000000
    12  O   -0.280198  -0.000000
    13  H    0.183941  -0.000000
    14  H    0.214561   0.000000
    15  H    0.206646   0.000000
    16  H    0.191694   0.000000
    17  C   -0.046049  -0.000000
    18  O   -0.222510   0.000000
    19  C   -0.616022   0.000000
    20  H    0.188877  -0.000000
    21  H    0.197842  -0.000000
    22  H    0.308296   0.000000
    23  H    0.164929   0.000000
    24  H    0.147578   0.000000
    25  H    0.159404  -0.000000
 Sum of Mulliken charges =  -0.00000   0.00000

 Dipole moment (field-independent basis, Debye):
    X=              2.9564    Y=              0.7508    Z=              0.3925  Tot=              3.0754
 Quadrupole moment (field-independent basis, Debye-Ang):
   XX=            -72.1808   YY=            -96.6812   ZZ=            -88.7581
   XY=             -4.8103   XZ=              0.6933   YZ=             -1.0297

 Normal termination of Gaussian 16 at Sun Jan 21 08:09:30 2024.
