 Q-Chem 5.4, Q-Chem, Inc., Pleasanton, CA (2021)
 Q-Chem 5.4.0 for Intel X86 EM64T Linux

User input:
--------------------------------------------------------------
$molecule
0 1
C                  1.1171240000      1.5343310000     -0.1857020000
C                 -0.0716280000      1.0570890000      0.5614590000
C                 -0.2439000000     -0.2356320000      0.8549740000
C                  0.7431230000     -1.2554300000      0.4393510000
C                  1.9309000000     -0.8055010000     -0.3805320000
C                  2.0628490000      0.4947550000     -0.6987050000
O                  1.3171740000      2.7239450000     -0.3377570000
O                  0.6062500000     -2.4259040000      0.7369380000
S                  3.3974290000      1.0600520000     -1.8261030000
C                  4.4912810000      2.0404040000     -0.7934500000
C                  4.3888060000      3.4290220000     -0.8232400000
C                  5.4361380000      1.3794650000     -0.0084600000
C                  6.2976090000      2.1420440000      0.7757310000
C                  5.2646570000      4.1761780000     -0.0399690000
C                  6.2130350000      3.5345980000      0.7569410000
O                  2.7765170000      1.9144480000     -2.8365320000
O                  4.1102000000     -0.1595580000     -2.2190880000
H                 -0.7651090000      1.8301110000      0.8733240000
H                 -1.0925110000     -0.6045640000      1.4200520000
H                  3.6389610000      3.9004510000     -1.4442460000
H                  5.4953750000      0.2978710000     -0.0165760000
H                  7.0389170000      1.6484440000      1.3929700000
H                  5.2057060000      5.2581270000     -0.0529460000
H                  6.8901870000      4.1226020000      1.3662000000
C                  2.9511280000     -1.9240500000     -0.6177500000
C                  2.7587560000     -2.8735860000     -1.7349400000
C                  1.8005340000     -2.6557750000     -2.7306600000
C                  3.5632540000     -4.0195170000     -1.7843980000
C                  1.6469310000     -3.5722680000     -3.7656560000
C                  2.4487110000     -4.7119650000     -3.8085690000
C                  3.4069090000     -4.9343840000     -2.8171430000
O                  3.8158430000     -2.0259360000      0.2277970000
H                  1.1847250000     -1.7638040000     -2.7112450000
H                  4.3003490000     -4.1732940000     -1.0060290000
H                  0.9088280000     -3.3963690000     -4.5393470000
H                  2.3292460000     -5.4263550000     -4.6154560000
H                  4.0289840000     -5.8212720000     -2.8534180000
$end
$rem
MAX_SCF_CYCLES=200
BASIS  =  6-311++G(d,p)
GUI  =  2
JOB_TYPE  =  SP
METHOD  =  B3LYP
SOLVENT_METHOD = COSMO
$end
$solvent
dielectric 37.219
opticaldielectric 1.43
$end

--------------------------------------------------------------

             Standard Nuclear Orientation (Angstroms)
    I     Atom           X                Y                Z
 ----------------------------------------------------------------
    1      C       1.2025220264    -2.2583782404     0.4745132525
    2      C       0.6100472724    -3.5280811636    -0.0112531078
    3      C      -0.5333019860    -3.5496159704    -0.7035283468
    4      C      -1.2679476866    -2.3036506964    -1.0114424130
    5      C      -0.7211106711    -1.0016810099    -0.4717178033
    6      C       0.4095245179    -1.0085388517     0.2569297804
    7      O       2.3010019078    -2.2463989248     0.9955896774
    8      O      -2.2882170173    -2.3181134831    -1.6718536077
    9      S       1.0198652053     0.5221319485     1.0670050064
   10      C       2.5422542048     0.9264207325     0.2051136132
   11      C       3.7614430802     0.5801605638     0.7824617763
   12      C       2.4593839359     1.6046219323    -1.0110196292
   13      C       3.6415096206     1.9360076675    -1.6678125187
   14      C       4.9338044675     0.9278343708     0.1164571041
   15      C       4.8729623244     1.6009414526    -1.1039265919
   16      O       1.3155304991     0.1862149382     2.4584908298
   17      O       0.0248282123     1.5498117166     0.7449740490
   18      H       1.1830812940    -4.4219088785     0.2088439482
   19      H      -0.9729072101    -4.4627999759    -1.0887643978
   20      H       3.7796031795     0.0513176715     1.7259429283
   21      H       1.4944843558     1.8677623731    -1.4271282462
   22      H       3.5995109524     2.4628188908    -2.6137874342
   23      H       5.8931522042     0.6729863326     0.5511543080
   24      H       5.7897875279     1.8663493092    -1.6181933322
   25      C      -1.4845372202     0.2246088674    -0.9832668802
   26      C      -2.7216742766     0.6612440218    -0.3009321065
   27      C      -3.1044957876     0.1365191499     0.9381001170
   28      C      -3.5241504687     1.6257672108    -0.9242682610
   29      C      -4.2763307410     0.5702958781     1.5491734454
   30      C      -5.0721497810     1.5286595912     0.9232237710
   31      C      -4.6947294701     2.0558919310    -0.3137560595
   32      O      -1.0681855259     0.7004133100    -2.0192803533
   33      H      -2.4820149666    -0.5975260016     1.4370041907
   34      H      -3.2136675632     2.0219990577    -1.8831297702
   35      H      -4.5657393519     0.1671328226     2.5125199391
   36      H      -5.9855270067     1.8670693558     1.3995770684
   37      H      -5.3154114764     2.8011027893    -0.7977789201
 ----------------------------------------------------------------

    9   -1505.7604687391      9.86e-06  Convergence criterion met
 Total energy in the final basis set =    -1505.7604687391
    5   -1505.7889977744      4.87e-06  Convergence criterion met
 Total energy in the final basis set =    -1505.7889977744

                    Orbital Energies (a.u.)
 --------------------------------------------------------------

 Alpha MOs
 -- Occupied --
-89.0806 -19.1646 -19.1605 -19.1467 -19.1461 -19.1449 -10.3123 -10.3114
-10.3035 -10.2611 -10.2583 -10.2284 -10.2247 -10.2234 -10.2060 -10.2042
-10.2033 -10.1982 -10.1969 -10.1948 -10.1945 -10.1939 -10.1934 -10.1892
-10.1888  -8.1443  -6.1070  -6.1063  -6.1052  -1.1426  -1.0989  -1.0938
 -1.0825  -1.0388  -0.8935  -0.8885  -0.8794  -0.8279  -0.7974  -0.7832
 -0.7742  -0.7670  -0.7451  -0.7046  -0.6818  -0.6495  -0.6383  -0.6330
 -0.6225  -0.6024  -0.5812  -0.5607  -0.5525  -0.5442  -0.5316  -0.5114
 -0.5014  -0.4986  -0.4949  -0.4845  -0.4821  -0.4722  -0.4698  -0.4635
 -0.4601  -0.4557  -0.4522  -0.4469  -0.4416  -0.4385  -0.4346  -0.4247
 -0.3989  -0.3908  -0.3829  -0.3765  -0.3706  -0.3694  -0.3611  -0.3585
 -0.3444  -0.3373  -0.3330  -0.3211  -0.3137  -0.3096  -0.2869  -0.2820
 -0.2791  -0.2767  -0.2747

          Ground-State Mulliken Net Atomic Charges

     Atom                 Charge (a.u.)
  ----------------------------------------
      1 C                    -0.219563
      2 C                     0.188018
      3 C                    -0.350685
      4 C                    -0.038951
      5 C                     0.871787
      6 C                    -0.399347
      7 O                    -0.219962
      8 O                    -0.228522
      9 S                     0.285659
     10 C                     0.687741
     11 C                    -0.079289
     12 C                    -0.278141
     13 C                    -0.536287
     14 C                    -0.492671
     15 C                    -0.305387
     16 O                    -0.125085
     17 O                    -0.114613
     18 H                     0.287924
     19 H                     0.279781
     20 H                     0.279494
     21 H                     0.254848
     22 H                     0.243155
     23 H                     0.240378
     24 H                     0.219431
     25 C                    -0.373332
     26 C                     0.622651
     27 C                    -0.970848
     28 C                     0.542274
     29 C                    -0.237925
     30 C                    -0.374233
     31 C                    -0.509140
     32 O                    -0.246058
     33 H                     0.176949
     34 H                     0.237656
     35 H                     0.243453
     36 H                     0.208727
     37 H                     0.230113
  ----------------------------------------
  Sum of atomic charges =     0.000001

                    Cartesian Multipole Moments
 -----------------------------------------------------------------
    Charge (ESU x 10^10)
                -0.0000
    Dipole Moment (Debye)
         X       1.0238      Y      -3.0588      Z      -1.3930
       Tot       3.5135
    Quadrupole Moments (Debye-Ang)
        XX    -117.0434     XY      -0.8056     YY    -133.0607
        XZ     -20.8095     YZ      -6.8336     ZZ    -161.4445

 Total job time:  149.07s(wall), 1131.23s(cpu)
        *  Thank you very much for using Q-Chem.  Have a nice day.  *
