 Gaussian 16, Revision A.03,
 Gaussian 16:  ES64L-G16RevA.03 25-Dec-2016

 --------------------------------------
 #P UB3LYP/6-311++G(d,p) nosym opt freq
 --------------------------------------

 --------
 Oxidized
 --------
 Symbolic Z-matrix:
 Charge =  0 Multiplicity = 1

 SCF Done:  E(UB3LYP) =  -1505.76052909     A.U. after   23 cycles
 SCF Done:  E(UB3LYP) =  -1505.76052907     A.U. after   11 cycles
 SCF Done:  E(UB3LYP) =  -1505.76052909     A.U. after   12 cycles
 SCF Done:  E(UB3LYP) =  -1505.76052909     A.U. after   11 cycles
 Optimization completed.
    -- Stationary point found.
 Normal termination of Gaussian 16 at Wed Jan 10 05:43:47 2024.

 ----------------------------------------------------------------------
 #P Geom=AllCheck Guess=TCheck SCRF=Check GenChk UB3LYP/6-311++G(d,p) F
 req
 ----------------------------------------------------------------------

 Structure from the checkpoint file:  "069.chk"
 --------
 Oxidized
 --------
 Charge =  0 Multiplicity = 1

                          Input orientation:
 ---------------------------------------------------------------------
 Center     Atomic      Atomic             Coordinates (Angstroms)
 Number     Number       Type             X           Y           Z
 ---------------------------------------------------------------------
      1          6           0        1.117124    1.534331   -0.185702
      2          6           0       -0.071628    1.057089    0.561459
      3          6           0       -0.243900   -0.235632    0.854974
      4          6           0        0.743123   -1.255430    0.439351
      5          6           0        1.930900   -0.805501   -0.380532
      6          6           0        2.062849    0.494755   -0.698705
      7          8           0        1.317174    2.723945   -0.337757
      8          8           0        0.606250   -2.425904    0.736938
      9         16           0        3.397429    1.060052   -1.826103
     10          6           0        4.491281    2.040404   -0.793450
     11          6           0        4.388806    3.429022   -0.823240
     12          6           0        5.436138    1.379465   -0.008460
     13          6           0        6.297609    2.142044    0.775731
     14          6           0        5.264657    4.176178   -0.039969
     15          6           0        6.213035    3.534598    0.756941
     16          8           0        2.776517    1.914448   -2.836532
     17          8           0        4.110200   -0.159558   -2.219088
     18          1           0       -0.765109    1.830111    0.873324
     19          1           0       -1.092511   -0.604564    1.420052
     20          1           0        3.638961    3.900451   -1.444246
     21          1           0        5.495375    0.297871   -0.016576
     22          1           0        7.038917    1.648444    1.392970
     23          1           0        5.205706    5.258127   -0.052946
     24          1           0        6.890187    4.122602    1.366200
     25          6           0        2.951128   -1.924050   -0.617750
     26          6           0        2.758756   -2.873586   -1.734940
     27          6           0        1.800534   -2.655775   -2.730660
     28          6           0        3.563254   -4.019517   -1.784398
     29          6           0        1.646931   -3.572268   -3.765656
     30          6           0        2.448711   -4.711965   -3.808569
     31          6           0        3.406909   -4.934384   -2.817143
     32          8           0        3.815843   -2.025936    0.227797
     33          1           0        1.184725   -1.763804   -2.711245
     34          1           0        4.300349   -4.173294   -1.006029
     35          1           0        0.908828   -3.396369   -4.539347
     36          1           0        2.329246   -5.426355   -4.615456
     37          1           0        4.028984   -5.821272   -2.853418
 ---------------------------------------------------------------------

 SCF Done:  E(UB3LYP) =  -1505.76052909     A.U. after    2 cycles

 Alpha  occ. eigenvalues --  -89.06769 -19.16284 -19.15942 -19.13675 -19.12946
 Alpha  occ. eigenvalues --  -19.12922 -10.31103 -10.31064 -10.29452 -10.25678
 Alpha  occ. eigenvalues --  -10.25510 -10.23643 -10.23528 -10.22602 -10.20685
 Alpha  occ. eigenvalues --  -10.20547 -10.20336 -10.20062 -10.20014 -10.19987
 Alpha  occ. eigenvalues --  -10.19851 -10.19598 -10.19270 -10.19199 -10.19081
 Alpha  occ. eigenvalues --   -8.13128  -6.09370  -6.09336  -6.09240  -1.12692
 Alpha  occ. eigenvalues --   -1.09602  -1.09189  -1.07200  -1.02174  -0.89436
 Alpha  occ. eigenvalues --   -0.88992  -0.87854  -0.83298  -0.79634  -0.78263
 Alpha  occ. eigenvalues --   -0.77703  -0.76740  -0.74398  -0.70563  -0.68154
 Alpha  occ. eigenvalues --   -0.65022  -0.63946  -0.63591  -0.62374  -0.60185
 Alpha  occ. eigenvalues --   -0.58007  -0.55929  -0.55364  -0.54419  -0.52594
 Alpha  occ. eigenvalues --   -0.51536  -0.50028  -0.49601  -0.48989  -0.48101
 Alpha  occ. eigenvalues --   -0.47756  -0.47186  -0.46760  -0.46224  -0.45810
 Alpha  occ. eigenvalues --   -0.45469  -0.45283  -0.45074  -0.44245  -0.43948
 Alpha  occ. eigenvalues --   -0.43781  -0.41666  -0.39942  -0.39394  -0.37940
 Alpha  occ. eigenvalues --   -0.37843  -0.37457  -0.36370  -0.35395  -0.34390
 Alpha  occ. eigenvalues --   -0.33697  -0.33185  -0.32585  -0.31809  -0.31049
 Alpha  occ. eigenvalues --   -0.30254  -0.28655  -0.28148  -0.27487  -0.27418
 Alpha  occ. eigenvalues --   -0.27256
 Alpha virt. eigenvalues --   -0.15716  -0.08104  -0.07302  -0.04899  -0.03633
 Alpha virt. eigenvalues --   -0.02926  -0.02690  -0.01341  -0.00833  -0.00539
 Alpha virt. eigenvalues --    0.00805   0.01005   0.01322   0.01588   0.01922

  Beta  occ. eigenvalues --  -89.06769 -19.16284 -19.15942 -19.13675 -19.12946
  Beta  occ. eigenvalues --  -19.12922 -10.31103 -10.31064 -10.29452 -10.25678
  Beta  occ. eigenvalues --  -10.25510 -10.23643 -10.23528 -10.22602 -10.20685
  Beta  occ. eigenvalues --  -10.20547 -10.20336 -10.20062 -10.20014 -10.19987
  Beta  occ. eigenvalues --  -10.19851 -10.19598 -10.19270 -10.19199 -10.19081
  Beta  occ. eigenvalues --   -8.13128  -6.09370  -6.09336  -6.09240  -1.12692
  Beta  occ. eigenvalues --   -1.09602  -1.09189  -1.07200  -1.02174  -0.89436
  Beta  occ. eigenvalues --   -0.88992  -0.87854  -0.83298  -0.79634  -0.78263
  Beta  occ. eigenvalues --   -0.77703  -0.76740  -0.74398  -0.70563  -0.68154
  Beta  occ. eigenvalues --   -0.65022  -0.63946  -0.63591  -0.62374  -0.60185
  Beta  occ. eigenvalues --   -0.58007  -0.55929  -0.55364  -0.54419  -0.52594
  Beta  occ. eigenvalues --   -0.51536  -0.50028  -0.49601  -0.48989  -0.48101
  Beta  occ. eigenvalues --   -0.47756  -0.47186  -0.46760  -0.46224  -0.45810
  Beta  occ. eigenvalues --   -0.45469  -0.45283  -0.45074  -0.44245  -0.43948
  Beta  occ. eigenvalues --   -0.43781  -0.41666  -0.39942  -0.39394  -0.37940
  Beta  occ. eigenvalues --   -0.37843  -0.37457  -0.36370  -0.35395  -0.34390
  Beta  occ. eigenvalues --   -0.33697  -0.33185  -0.32585  -0.31809  -0.31049
  Beta  occ. eigenvalues --   -0.30254  -0.28655  -0.28148  -0.27487  -0.27418
  Beta  occ. eigenvalues --   -0.27256
  Beta virt. eigenvalues --   -0.15716  -0.08104  -0.07302  -0.04899  -0.03633
  Beta virt. eigenvalues --   -0.02926  -0.02690  -0.01341  -0.00833  -0.00539
  Beta virt. eigenvalues --    0.00805   0.01005   0.01322   0.01588   0.01922

 Mulliken charges and spin densities:
               1          2
     1  C   -0.247689  -0.000000
     2  C    0.224274  -0.000000
     3  C   -0.273270   0.000000
     4  C   -0.152436  -0.000000
     5  C    0.811265  -0.000000
     6  C   -0.479824   0.000000
     7  O   -0.159283   0.000000
     8  O   -0.155839  -0.000000
     9  S    0.189907   0.000000
    10  C    0.689406   0.000000
    11  C   -0.131733   0.000000
    12  C   -0.224655  -0.000000
    13  C   -0.495140   0.000000
    14  C   -0.448441  -0.000000
    15  C   -0.240640  -0.000000
    16  O   -0.018662  -0.000000
    17  O   -0.021198  -0.000000
    18  H    0.240862  -0.000000
    19  H    0.233025  -0.000000
    20  H    0.271176   0.000000
    21  H    0.249914  -0.000000
    22  H    0.194459   0.000000
    23  H    0.190813   0.000000
    24  H    0.169798  -0.000000
    25  C   -0.422385  -0.000000
    26  C    0.652639   0.000000
    27  C   -0.917079  -0.000000
    28  C    0.480639   0.000000
    29  C   -0.151652  -0.000000
    30  C   -0.314274  -0.000000
    31  C   -0.427712  -0.000000
    32  O   -0.182491   0.000000
    33  H    0.120172   0.000000
    34  H    0.213785   0.000000
    35  H    0.194089   0.000000
    36  H    0.157791   0.000000
    37  H    0.180388  -0.000000
 Sum of Mulliken charges =  -0.00000  -0.00000

 Dipole moment (field-independent basis, Debye):
    X=             -1.2408    Y=              0.6084    Z=              1.9505  Tot=              2.3904
 Quadrupole moment (field-independent basis, Debye-Ang):
   XX=           -141.2221   YY=           -141.6221   ZZ=           -154.1512
   XY=              6.6360   XZ=             11.6291   YZ=             19.7384

  Exact polarizability: 230.722  18.584 328.057  21.243  35.142 211.677
 Approx polarizability: 353.755  -3.618 556.145  60.398   0.043 354.915

                      1                      2                      3
                      A                      A                      A
 Frequencies --     20.9202                31.4018                33.9910
 Red. masses --      6.6406                 6.4132                 4.1508
 Frc consts  --      0.0017                 0.0037                 0.0028
 IR Inten    --      2.4522                 1.9222                 0.1606

                      4                      5                      6
                      A                      A                      A
 Frequencies --     41.2422                46.4396                56.8162
 Red. masses --      4.6081                 6.0305                 5.7763
 Frc consts  --      0.0046                 0.0077                 0.0110
 IR Inten    --      0.3285                 0.2818                 2.8081

                      7                      8                      9
                      A                      A                      A
 Frequencies --     85.6257                99.2114               142.9576
 Red. masses --      8.5267                 7.7934                12.0703
 Frc consts  --      0.0368                 0.0452                 0.1453
 IR Inten    --      4.1259                 0.9070                 0.8115

                     10                     11                     12
                      A                      A                      A
 Frequencies --    152.4742               173.9040               178.8174
 Red. masses --      7.4210                 6.8625                 6.5829
 Frc consts  --      0.1016                 0.1223                 0.1240
 IR Inten    --      1.3756                 1.4966                 0.7839

                     13                     14                     15
                      A                      A                      A
 Frequencies --    183.6356               225.7977               239.8028
 Red. masses --      7.1655                10.1317                 6.6130
 Frc consts  --      0.1424                 0.3043                 0.2241
 IR Inten    --      7.9196                 3.7076                 0.8649

                     16                     17                     18
                      A                      A                      A
 Frequencies --    248.2957               274.2295               283.0418
 Red. masses --      6.6688                 6.1659                10.7644
 Frc consts  --      0.2422                 0.2732                 0.5081
 IR Inten    --      5.9189                 1.5464                 2.1617

                     19                     20                     21
                      A                      A                      A
 Frequencies --    304.5338               352.3737               402.5067
 Red. masses --      8.7619                 7.7230                 7.9348
 Frc consts  --      0.4788                 0.5650                 0.7574
 IR Inten    --      2.7954                 3.9659                 8.6095

                     22                     23                     24
                      A                      A                      A
 Frequencies --    408.8064               410.5229               426.9019
 Red. masses --      2.9118                 2.9056                 5.3892
 Frc consts  --      0.2867                 0.2885                 0.5787
 IR Inten    --      0.1989                 0.2976                 9.4839

                     25                     26                     27
                      A                      A                      A
 Frequencies --    443.8410               452.3159               456.9275
 Red. masses --      7.2559                 5.7513                 6.5598
 Frc consts  --      0.8422                 0.6933                 0.8069
 IR Inten    --      1.9913                 7.6212                12.2833

                     28                     29                     30
                      A                      A                      A
 Frequencies --    488.6503               512.2774               545.9741
 Red. masses --      7.6052                 6.9212                 5.5671
 Frc consts  --      1.0699                 1.0701                 0.9777
 IR Inten    --     35.0129                24.0821                47.1555

                     31                     32                     33
                      A                      A                      A
 Frequencies --    590.2293               597.2893               625.8829
 Red. masses --      6.6057                 6.3791                 6.4428
 Frc consts  --      1.3558                 1.3408                 1.4870
 IR Inten    --     84.9497                62.6007                 0.0316

                     34                     35                     36
                      A                      A                      A
 Frequencies --    630.2571               644.2931               659.9632
 Red. masses --      6.3152                 3.9664                 5.6539
 Frc consts  --      1.4780                 0.9701                 1.4509
 IR Inten    --      0.9941                 8.6996                 7.2214

                     37                     38                     39
                      A                      A                      A
 Frequencies --    685.7129               697.5158               699.9033
 Red. masses --      4.9257                 1.7375                 2.0843
 Frc consts  --      1.3646                 0.4981                 0.6016
 IR Inten    --      5.4249                19.9014                56.4142

                     40                     41                     42
                      A                      A                      A
 Frequencies --    708.2018               723.2212               766.0482
 Red. masses --      6.6516                 6.8301                 1.5988
 Frc consts  --      1.9656                 2.1048                 0.5528
 IR Inten    --     21.0390                65.9135                25.5655

                     43                     44                     45
                      A                      A                      A
 Frequencies --    781.5628               809.6842               839.5992
 Red. masses --      2.1187                 8.9959                 5.0001
 Frc consts  --      0.7625                 3.4748                 2.0767
 IR Inten    --     43.4627                12.3237                25.9257

                     46                     47                     48
                      A                      A                      A
 Frequencies --    855.8517               856.5655               866.5178
 Red. masses --      1.2539                 1.2444                 2.7245
 Frc consts  --      0.5411                 0.5380                 1.2053
 IR Inten    --      0.9697                 0.2199                50.4861

                     49                     50                     51
                      A                      A                      A
 Frequencies --    882.1290               949.0286               950.2529
 Red. masses --      5.9588                 1.3567                 1.4514
 Frc consts  --      2.7320                 0.7199                 0.7722
 IR Inten    --      5.2498                 0.2721                 1.1164

                     52                     53                     54
                      A                      A                      A
 Frequencies --    981.4121               995.0047               996.3945
 Red. masses --      6.3365                 1.3824                 1.3777
 Frc consts  --      3.5958                 0.8064                 0.8059
 IR Inten    --     76.7205                 0.2210                 0.1546

                     55                     56                     57
                      A                      A                      A
 Frequencies --   1011.6454              1012.5672              1014.1640
 Red. masses --      1.3261                 1.6326                 3.2198
 Frc consts  --      0.7996                 0.9862                 1.9512
 IR Inten    --      0.0385                 0.5899                 3.0058

                     58                     59                     60
                      A                      A                      A
 Frequencies --   1017.0439              1019.0580              1040.2270
 Red. masses --      5.9468                 1.2706                 3.5781
 Frc consts  --      3.6242                 0.7774                 2.2812
 IR Inten    --      3.5036                 0.1177                12.6610

                     61                     62                     63
                      A                      A                      A
 Frequencies --   1045.5399              1068.0816              1083.7210
 Red. masses --      2.2388                 3.2517                 3.7413
 Frc consts  --      1.4419                 2.1856                 2.5889
 IR Inten    --      2.4918                45.4922                 6.2835

                     64                     65                     66
                      A                      A                      A
 Frequencies --   1102.9486              1107.0298              1114.0178
 Red. masses --      1.5832                 1.5607                 1.6208
 Frc consts  --      1.1348                 1.1269                 1.1851
 IR Inten    --      8.7191                19.3208                80.6104

                     67                     68                     69
                      A                      A                      A
 Frequencies --   1120.7425              1184.6510              1185.8590
 Red. masses --      5.9380                 1.1180                 1.1219
 Frc consts  --      4.3944                 0.9244                 0.9295
 IR Inten    --    166.5619                 1.5691                 0.2493

                     70                     71                     72
                      A                      A                      A
 Frequencies --   1198.0877              1202.7013              1246.8856
 Red. masses --      1.1552                 1.1574                 4.0602
 Frc consts  --      0.9770                 0.9864                 3.7192
 IR Inten    --     43.5303                 4.9107               129.6371

                     73                     74                     75
                      A                      A                      A
 Frequencies --   1274.6132              1277.8170              1282.9483
 Red. masses --      2.9486                 4.2206                17.9077
 Frc consts  --      2.8224                 4.0604                17.3664
 IR Inten    --    247.0075                58.7093               142.2618

                     76                     77                     78
                      A                      A                      A
 Frequencies --   1333.4748              1340.1519              1350.1525
 Red. masses --      2.9395                 2.4911                 1.7725
 Frc consts  --      3.0796                 2.6361                 1.9037
 IR Inten    --      0.0687                14.3232                 2.5459

                     79                     80                     81
                      A                      A                      A
 Frequencies --   1353.7801              1386.5437              1477.2057
 Red. masses --      2.1201                 1.8327                 2.1541
 Frc consts  --      2.2893                 2.0759                 2.7695
 IR Inten    --      5.8037                 1.7545                16.3632

                     82                     83                     84
                      A                      A                      A
 Frequencies --   1479.8767              1507.1991              1522.2846
 Red. masses --      2.2294                 1.9966                 2.2022
 Frc consts  --      2.8766                 2.6723                 3.0068
 IR Inten    --     21.4080                 4.3433                 3.1544

                     85                     86                     87
                      A                      A                      A
 Frequencies --   1619.8273              1621.1169              1622.3103
 Red. masses --      6.6990                 5.3283                 7.1700
 Frc consts  --     10.3561                 8.2502                11.1183
 IR Inten    --     24.2850                10.0640                 3.1944

                     88                     89                     90
                      A                      A                      A
 Frequencies --   1624.9195              1639.8611              1678.2897
 Red. masses --      6.3161                 5.5778                 8.1639
 Frc consts  --      9.8257                 8.8375                13.5482
 IR Inten    --      3.7656                38.3459                 7.3402

                     91                     92                     93
                      A                      A                      A
 Frequencies --   1722.4476              1727.5804              1739.9045
 Red. masses --     11.4847                11.9795                12.5152
 Frc consts  --     20.0753                21.0652                22.3224
 IR Inten    --    136.1665               289.9392               209.2276

                     94                     95                     96
                      A                      A                      A
 Frequencies --   3166.0388              3170.0049              3173.8561
 Red. masses --      1.0857                 1.0866                 1.0884
 Frc consts  --      6.4122                 6.4332                 6.4596
 IR Inten    --      0.9378                 1.1007                 5.7053

                     97                     98                     99
                      A                      A                      A
 Frequencies --   3179.5394              3182.2355              3182.8908
 Red. masses --      1.0875                 1.0921                 1.0898
 Frc consts  --      6.4773                 6.5157                 6.5050
 IR Inten    --      0.1861                18.5573                10.2613

                    100                    101                    102
                      A                      A                      A
 Frequencies --   3190.8174              3192.2191              3196.6897
 Red. masses --      1.0942                 1.0963                 1.0998
 Frc consts  --      6.5635                 6.5823                 6.6213
 IR Inten    --      7.1126                10.5731                 1.2723

                    103                    104                    105
                      A                      A                      A
 Frequencies --   3200.2656              3200.9138              3216.3926
 Red. masses --      1.0959                 1.0946                 1.0936
 Frc consts  --      6.6127                 6.6080                 6.6656
 IR Inten    --     10.5054                 6.4299                 4.3874

 - Thermochemistry -
 -------------------
 Temperature   298.150 Kelvin.  Pressure   1.00000 Atm.
 Atom     1 has atomic number  6 and mass  12.00000

 Molecular mass:   352.04055 amu.
 Principal axes and moments of inertia in atomic units:
                           1         2         3
     Eigenvalues --  5204.90121********************
           X            0.31217   0.89558   0.31699
           Y            0.91010  -0.18620  -0.37020
           Z            0.27252  -0.40406   0.87320
 This molecule is an asymmetric top.
 Rotational symmetry number  1.
 Warning -- assumption of classical behavior for rotation
           may cause significant error
 Rotational temperatures (Kelvin)      0.01664     0.00759     0.00651
 Rotational constants (GHZ):           0.34674     0.15808     0.13565
 Zero-point vibrational energy     694587.1 (Joules/Mol)
                                  166.01030 (Kcal/Mol)
 Warning -- explicit consideration of  32 degrees of freedom as
           vibrations may cause significant error
 Vibrational temperatures:     30.10    45.18    48.91    59.34    66.82
          (Kelvin)             81.75   123.20   142.74   205.68   219.38
                              250.21   257.28   264.21   324.87   345.02
                              357.24   394.56   407.23   438.16   506.99
                              579.12   588.18   590.65   614.22   638.59
                              650.78   657.42   703.06   737.05   785.53
                              849.21   859.37   900.51   906.80   926.99
                              949.54   986.59  1003.57  1007.00  1018.94
                             1040.55  1102.17  1124.49  1164.95  1208.00
                             1231.38  1232.41  1246.73  1269.19  1365.44
                             1367.20  1412.03  1431.59  1433.59  1455.53
                             1456.86  1459.16  1463.30  1466.20  1496.65
                             1504.30  1536.73  1559.23  1586.90  1592.77
                             1602.82  1612.50  1704.45  1706.19  1723.78
                             1730.42  1793.99  1833.88  1838.49  1845.88
                             1918.57  1928.18  1942.57  1947.79  1994.93
                             2125.37  2129.21  2168.52  2190.23  2330.57
                             2332.43  2334.14  2337.90  2359.39  2414.68
                             2478.22  2485.60  2503.33  4555.22  4560.93
                             4566.47  4574.65  4578.53  4579.47  4590.87
                             4592.89  4599.32  4604.47  4605.40  4627.67

 Zero-point correction=                           0.264554 (Hartree/Particle)
 Thermal correction to Energy=                    0.285723
 Thermal correction to Enthalpy=                  0.286668
 Thermal correction to Gibbs Free Energy=         0.211969
 Sum of electronic and zero-point Energies=          -1505.495975
 Sum of electronic and thermal Energies=             -1505.474806
 Sum of electronic and thermal Enthalpies=           -1505.473861
 Sum of electronic and thermal Free Energies=        -1505.548560

                     E (Thermal)             CV                S
                      KCal/Mol        Cal/Mol-Kelvin    Cal/Mol-Kelvin
 Total                  179.294             80.475            157.216
 Electronic               0.000              0.000              0.000
 Translational            0.889              2.981             43.470
 Rotational               0.889              2.981             35.024
 Vibrational            177.517             74.514             78.722
 Vibration     1          0.593              1.986              6.545
 Vibration     2          0.594              1.983              5.739
 Vibration     3          0.594              1.983              5.582
 Vibration     4          0.594              1.981              5.199
 Vibration     5          0.595              1.979              4.964
 Vibration     6          0.596              1.975              4.565
 Vibration     7          0.601              1.959              3.758
 Vibration     8          0.604              1.950              3.470
 Vibration     9          0.616              1.910              2.764
 Vibration    10          0.619              1.900              2.641
 Vibration    11          0.627              1.875              2.393
 Vibration    12          0.629              1.868              2.341
 Vibration    13          0.631              1.862              2.291
 Vibration    14          0.650              1.802              1.912
 Vibration    15          0.657              1.780              1.804
 Vibration    16          0.662              1.766              1.743
 Vibration    17          0.677              1.721              1.569
 Vibration    18          0.682              1.705              1.515
 Vibration    19          0.695              1.665              1.392
 Vibration    20          0.729              1.570              1.156
 Vibration    21          0.768              1.465              0.953
 Vibration    22          0.773              1.451              0.931
 Vibration    23          0.775              1.447              0.925
 Vibration    24          0.789              1.412              0.869
 Vibration    25          0.803              1.374              0.815
 Vibration    26          0.811              1.356              0.789
 Vibration    27          0.815              1.346              0.775
 Vibration    28          0.845              1.275              0.687
 Vibration    29          0.867              1.223              0.628
 Vibration    30          0.901              1.148              0.553
 Vibration    31          0.948              1.053              0.467
 Vibration    32          0.955              1.038              0.454

 Optimization completed.
    -- Stationary point found.
 Normal termination of Gaussian 16 at Wed Jan 10 10:27:43 2024.
