 Q-Chem 5.4, Q-Chem, Inc., Pleasanton, CA (2021)
 Q-Chem 5.4.0 for Intel X86 EM64T Linux

User input:
--------------------------------------------------------------
$molecule
-1 2
C                 -7.1480420000      3.8761700000      0.8642420000
C                 -8.1092280000      3.1332580000      0.2042580000
C                 -7.7583980000      2.3745350000     -0.9307770000
C                 -5.8091920000      3.8880410000      0.4164620000
C                 -5.4526160000      3.1216220000     -0.7302030000
C                 -6.4487320000      2.3747450000     -1.3830160000
C                 -4.8035140000      4.6663330000      1.1080870000
C                 -3.4618120000      4.6148990000      0.5748470000
C                 -3.0841370000      3.8906610000     -0.5361330000
C                 -4.0657660000      3.0957860000     -1.2422680000
O                 -5.0123390000      5.3849090000      2.1403980000
O                 -3.7618150000      2.4095740000     -2.2530000000
O                 -2.5681870000      5.3692760000      1.2790000000
C                 -1.6603290000      3.8874110000     -1.0294250000
C                 -0.8311040000      2.7097280000     -0.4820070000
C                  0.6073310000      2.6886780000     -1.0102820000
C                  1.4426520000      1.5210620000     -0.4726970000
C                  2.8828330000      1.4944400000     -0.9978960000
C                  3.7133450000      0.3236760000     -0.4596000000
C                  5.1537780000      0.2942260000     -0.9833980000
C                  5.9779980000     -0.8798410000     -0.4422160000
C                  7.4201100000     -0.9058300000     -0.9665160000
C                  8.2207370000     -2.0850390000     -0.4129360000
S                  9.9399890000     -2.0738840000     -1.0642670000
C                 10.6002680000     -3.5695890000     -0.2272800000
C                 12.0635090000     -3.7998850000     -0.6064360000
C                 12.6608580000     -5.0401940000      0.0709260000
C                 14.1284420000     -5.2844910000     -0.2989240000
C                 14.7325460000     -6.5214840000      0.3752030000
C                 16.2001830000     -6.7666700000      0.0067800000
C                 16.8052140000     -8.0030870000      0.6813220000
C                 18.2728130000     -8.2484710000      0.3136500000
C                 18.8790260000     -9.4845120000      0.9878970000
C                 20.3454280000     -9.7211430000      0.6145620000
H                 -7.3934550000      4.4676290000      1.7391560000
H                 -9.1356030000      3.1335300000      0.5599410000
H                 -8.5140230000      1.7913050000     -1.4486650000
H                 -6.1505710000      1.7998970000     -2.2525540000
H                 -3.1383900000      5.7539140000      1.9812520000
H                 -1.1737970000      4.8279370000     -0.7510950000
H                 -1.6775080000      3.8188090000     -2.1219310000
H                 -1.3355220000      1.7760500000     -0.7527540000
H                 -0.8179780000      2.7605030000      0.6134140000
H                  1.1030810000      3.6350130000     -0.7533970000
H                  0.5869930000      2.6427620000     -2.1073280000
H                  0.9467230000      0.5761440000     -0.7303300000
H                  1.4595390000      1.5648500000      0.6243900000
H                  3.3798220000      2.4389340000     -0.7393560000
H                  2.8665110000      1.4512350000     -2.0949460000
H                  3.2157010000     -0.6201480000     -0.7182680000
H                  3.7288570000      0.3666530000      0.6374170000
H                  5.6532080000      1.2365750000     -0.7234730000
H                  5.1396130000      0.2506340000     -2.0801250000
H                  5.4794580000     -1.8218970000     -0.7041930000
H                  5.9913550000     -0.8362970000      0.6544350000
H                  7.9228090000      0.0309150000     -0.7006970000
H                  7.4105780000     -0.9554810000     -2.0611670000
H                  7.7494380000     -3.0311000000     -0.6951500000
H                  8.2637890000     -2.0366650000      0.6791440000
H                  9.9915820000     -4.4307910000     -0.5189760000
H                 10.5041990000     -3.4357090000      0.8544390000
H                 12.6511800000     -2.9159650000     -0.3338140000
H                 12.1433150000     -3.9035030000     -1.6944970000
H                 12.0679080000     -5.9232570000     -0.1994830000
H                 12.5748960000     -4.9363770000      1.1601270000
H                 14.7206030000     -4.4002660000     -0.0302600000
H                 14.2141410000     -5.3875730000     -1.3882860000
H                 14.1398670000     -7.4055930000      0.1065080000
H                 14.6458100000     -6.4181930000      1.4646670000
H                 16.7926450000     -5.8822610000      0.2749200000
H                 16.2868970000     -6.8703140000     -1.0826340000
H                 16.2127930000     -8.8875520000      0.4130280000
H                 16.7181670000     -7.8994190000      1.7707730000
H                 18.8661820000     -7.3644120000      0.5817830000
H                 18.3608820000     -8.3527910000     -0.7757990000
H                 18.2870700000    -10.3681420000      0.7195860000
H                 18.7918480000     -9.3804500000      2.0763730000
H                 20.4606040000     -9.8640000000     -0.4646790000
H                 20.7471290000    -10.6088770000      1.1114010000
H                 20.9692270000     -8.8687830000      0.9022960000
$end
$rem
MAX_SCF_CYCLES=200
BASIS  =  6-311++G(d,p)
GUI  =  2
JOB_TYPE  =  SP
THRESH = 14
SCF_CONVERGENCE  = 6
METHOD  =  B3LYP
SOLVENT_METHOD = COSMO
$end
$solvent
dielectric 37.219
opticaldielectric 1.43
$end

--------------------------------------------------------------

             Standard Nuclear Orientation (Angstroms)
    I     Atom           X                Y                Z
 ----------------------------------------------------------------
    1      C      12.4887349760     1.2564804164     1.2771591194
    2      C      13.0165068523     2.3737869664     0.6571118900
    3      C      12.3737378906     2.9251768577    -0.4697705264
    4      C      11.3064993091     0.6529189104     0.7963270199
    5      C      10.6552626189     1.2089143554    -0.3421566155
    6      C      11.2122762892     2.3453607404    -0.9540900568
    7      C      10.7547338664    -0.5170227444     1.4461448699
    8      C       9.5422986192    -1.0628890981     0.8811799986
    9      C       8.8909499054    -0.5551132446    -0.2230591885
   10      C       9.4139417192     0.6191477195    -0.8876185525
   11      O      11.2540105586    -1.0938675781     2.4677113981
   12      O       8.8443044376     1.1234108582    -1.8906561139
   13      O       9.0793903742    -2.1611397285     1.5467949443
   14      C       7.6267055364    -1.1823137105    -0.7511524867
   15      C       6.3468915826    -0.5252055870    -0.1993346058
   16      C       5.0619702042    -1.1421153187    -0.7623730251
   17      C       3.7814103522    -0.4964411769    -0.2207483427
   18      C       2.4923681313    -1.1092702426    -0.7806364764
   19      C       1.2146574448    -0.4586342051    -0.2381152715
   20      C      -0.0759091472    -1.0691000535    -0.7965489688
   21      C      -1.3495461458    -0.4127579344    -0.2509174955
   22      C      -2.6400331890    -1.0270529402    -0.8099682766
   23      C      -3.8951296298    -0.3558160992    -0.2512534095
   24      S      -5.4141838980    -1.1249150549    -0.9448994804
   25      C      -6.6912333620    -0.1166693971    -0.0927056039
   26      C      -8.0949936282    -0.5628874285    -0.5028474420
   27      C      -9.1981703261     0.2511355752     0.1859045053
   28      C     -10.6122651861    -0.1848564077    -0.2147444203
   29      C     -11.7199179876     0.6232497344     0.4705367420
   30      C     -13.1344808243     0.1879827020     0.0713317359
   31      C     -14.2427036145     0.9951431458     0.7569925004
   32      C     -15.6573316288     0.5600470455     0.3585432609
   33      C     -16.7664336173     1.3663459299     1.0438719852
   34      C     -18.1759555462     0.9241644083     0.6396053507
   35      H      12.9649051072     0.8142277833     2.1450303145
   36      H      13.9269176245     2.8277570482     1.0379261515
   37      H      12.7889912890     3.8027913397    -0.9562803313
   38      H      10.6965663918     2.7487550311    -1.8182444911
   39      H       9.7533291288    -2.2667635751     2.2545278614
   40      H       7.6162470318    -2.2491320244    -0.5050642150
   41      H       7.6243515134    -1.0803871700    -1.8411874180
   42      H       6.3763017528     0.5433846481    -0.4375488280
   43      H       6.3447367155    -0.6095004740     0.8940945360
   44      H       5.0461954575    -2.2176371203    -0.5380698608
   45      H       5.0727757817    -1.0588334998    -1.8573521197
   46      H       3.7979964612     0.5779217885    -0.4458249563
   47      H       3.7727145800    -0.5762648538     0.8744023362
   48      H       2.4746339335    -2.1837630371    -0.5546704463
   49      H       2.5008243432    -1.0302230847    -1.8757765686
   50      H       1.2332807869     0.6155622189    -0.4642073808
   51      H       1.2068200777    -0.5371102779     0.8570166952
   52      H      -0.0968085184    -2.1428293424    -0.5692130965
   53      H      -0.0695546589    -0.9906949970    -1.8914111929
   54      H      -1.3292817666     0.6603691320    -0.4803324940
   55      H      -1.3552014089    -0.4907518905     0.8438897323
   56      H      -2.6664598447    -2.0974481652    -0.5767025175
   57      H      -2.6405808801    -0.9454109338    -1.9027405198
   58      H      -3.9007086043     0.7091504697    -0.5014812797
   59      H      -3.9250011689    -0.4514276500     0.8381493478
   60      H      -6.5357764245     0.9352134916    -0.3508327371
   61      H      -6.5582194675    -0.2251290045     0.9879483275
   62      H      -8.2211849543    -1.6249152401    -0.2637508042
   63      H      -8.1997120978    -0.4738319209    -1.5900850361
   64      H      -9.0669131349     1.3147243846    -0.0508683523
   65      H      -9.0878896493     0.1646570619     1.2744291455
   66      H     -10.7422707803    -1.2490703779     0.0202790177
   67      H     -10.7219761690    -0.0989087634    -1.3034391833
   68      H     -11.5893977819     1.6875959482     0.2354926250
   69      H     -11.6091893404     0.5375825663     1.5593545756
   70      H     -13.2646647602    -0.8765157303     0.3058200957
   71      H     -13.2453505738     0.2739728449    -1.0174280420
   72      H     -14.1125797176     2.0596775545     0.5223504070
   73      H     -14.1315266793     0.9092813547     1.8457969630
   74      H     -15.7884824937    -0.5045502126     0.5930097190
   75      H     -15.7697150502     0.6460267213    -0.7302704958
   76      H     -16.6363452128     2.4299262235     0.8091835925
   77      H     -16.6549492509     1.2802219022     2.1316967845
   78      H     -18.3300986100     1.0318917940    -0.4388516470
   79      H     -18.9426565113     1.5181339914     1.1452278429
   80      H     -18.3488418506    -0.1265670000     0.8935885196
 ----------------------------------------------------------------

   13   -1795.2991378703      8.09e-07  Convergence criterion met
 Total energy in the final basis set =    -1795.2991378703
    6   -1795.3852404039      6.72e-07  Convergence criterion met
 Total energy in the final basis set =    -1795.3852404039

                    Orbital Energies (a.u.)
 --------------------------------------------------------------

 Alpha MOs
 -- Occupied --
-88.8351 -19.1445 -19.0889 -19.0770 -10.2255 -10.2235 -10.2226 -10.1915
-10.1915 -10.1756 -10.1734 -10.1721 -10.1712 -10.1709 -10.1694 -10.1666
-10.1664 -10.1635 -10.1608 -10.1604 -10.1581 -10.1578 -10.1572 -10.1567
-10.1566 -10.1562 -10.1560 -10.1558 -10.1557 -10.1551 -10.1545 -10.1543
-10.1540 -10.1516  -7.9214  -5.8851  -5.8819  -5.8752  -1.0646  -1.0026
 -0.9989  -0.8592  -0.8215  -0.8142  -0.8101  -0.8031  -0.7950  -0.7831
 -0.7722  -0.7581  -0.7514  -0.7445  -0.7291  -0.7113  -0.6933  -0.6769
 -0.6631  -0.6445  -0.6263  -0.6165  -0.6046  -0.5903  -0.5796  -0.5790
 -0.5764  -0.5712  -0.5707  -0.5691  -0.5684  -0.5658  -0.5373  -0.5053
 -0.4860  -0.4851  -0.4828  -0.4736  -0.4706  -0.4609  -0.4532  -0.4517
 -0.4456  -0.4393  -0.4374  -0.4304  -0.4271  -0.4259  -0.4241  -0.4219
 -0.4192  -0.4185  -0.4141  -0.4055  -0.4011  -0.3986  -0.3930  -0.3927
 -0.3887  -0.3856  -0.3824  -0.3769  -0.3728  -0.3667  -0.3633  -0.3616
 -0.3569  -0.3534  -0.3481  -0.3453  -0.3421  -0.3401  -0.3387  -0.3365
 -0.3340  -0.3293  -0.3272  -0.3245  -0.3244  -0.3224  -0.3202  -0.3185
 -0.3180  -0.3165  -0.3163  -0.3144  -0.3104  -0.3003  -0.2920  -0.2689
 -0.2631  -0.2587  -0.2423  -0.2285  -0.2258  -0.1534

 Beta MOs
 -- Occupied --
-88.8351 -19.1441 -19.0828 -19.0718 -10.2240 -10.2217 -10.2204 -10.1915
-10.1915 -10.1755 -10.1723 -10.1721 -10.1704 -10.1703 -10.1696 -10.1666
-10.1664 -10.1627 -10.1608 -10.1604 -10.1581 -10.1578 -10.1572 -10.1567
-10.1566 -10.1562 -10.1560 -10.1558 -10.1557 -10.1551 -10.1545 -10.1542
-10.1540 -10.1516  -7.9214  -5.8851  -5.8819  -5.8752  -1.0624  -0.9935
 -0.9886  -0.8568  -0.8215  -0.8125  -0.8095  -0.8027  -0.7944  -0.7826
 -0.7715  -0.7573  -0.7492  -0.7440  -0.7286  -0.7108  -0.6920  -0.6733
 -0.6591  -0.6435  -0.6256  -0.6150  -0.6035  -0.5893  -0.5796  -0.5787
 -0.5761  -0.5711  -0.5700  -0.5689  -0.5677  -0.5649  -0.5356  -0.5029
 -0.4858  -0.4839  -0.4816  -0.4734  -0.4701  -0.4598  -0.4525  -0.4513
 -0.4453  -0.4384  -0.4304  -0.4289  -0.4258  -0.4255  -0.4229  -0.4213
 -0.4173  -0.4153  -0.4120  -0.4039  -0.3997  -0.3974  -0.3926  -0.3908
 -0.3850  -0.3817  -0.3790  -0.3757  -0.3697  -0.3634  -0.3631  -0.3594
 -0.3555  -0.3488  -0.3466  -0.3418  -0.3395  -0.3386  -0.3355  -0.3342
 -0.3298  -0.3287  -0.3269  -0.3244  -0.3242  -0.3219  -0.3202  -0.3184
 -0.3180  -0.3164  -0.3163  -0.3142  -0.3104  -0.3000  -0.2918  -0.2577
 -0.2518  -0.2495  -0.2374  -0.2258  -0.2200

          Ground-State Mulliken Net Atomic Charges

     Atom                 Charge (a.u.)    Spin (a.u.)
  --------------------------------------------------------
      1 C                     0.039744       0.076175
      2 C                    -0.394287      -0.001456
      3 C                    -0.470151       0.072356
      4 C                     0.456304      -0.006559
      5 C                    -0.127827       0.057671
      6 C                     0.088960       0.004574
      7 C                    -0.834535       0.176617
      8 C                    -0.599754       0.056857
      9 C                     1.926798       0.052690
     10 C                    -0.690213       0.082473
     11 O                    -0.555247       0.222269
     12 O                    -0.483558       0.193216
     13 O                    -0.302862       0.016204
     14 C                    -0.355152       0.012555
     15 C                    -0.726637      -0.001433
     16 C                    -0.298100       0.000989
     17 C                    -0.084663      -0.003255
     18 C                    -0.119021      -0.001039
     19 C                    -0.266568      -0.000048
     20 C                    -0.132450       0.000300
     21 C                    -0.322380      -0.000017
     22 C                    -0.234689       0.000013
     23 C                    -0.781979       0.000012
     24 S                    -0.414369       0.000003
     25 C                    -0.736948       0.000006
     26 C                    -0.005552      -0.000004
     27 C                     0.008634      -0.000004
     28 C                     0.005145      -0.000001
     29 C                     0.017188       0.000001
     30 C                    -0.009726       0.000000
     31 C                    -0.268368       0.000000
     32 C                    -0.460198      -0.000000
     33 C                    -0.284883       0.000000
     34 C                    -0.708332      -0.000000
     35 H                     0.180990      -0.004070
     36 H                     0.204425      -0.000638
     37 H                     0.199761      -0.005103
     38 H                     0.179766      -0.000302
     39 H                     0.308218      -0.003451
     40 H                     0.220114      -0.000494
     41 H                     0.202653       0.002468
     42 H                     0.181265      -0.001548
     43 H                     0.172347       0.001960
     44 H                     0.118473      -0.000377
     45 H                     0.121504       0.000485
     46 H                     0.130098      -0.000052
     47 H                     0.130459      -0.000030
     48 H                     0.136700      -0.000010
     49 H                     0.137152       0.000003
     50 H                     0.135166       0.000004
     51 H                     0.135383      -0.000005
     52 H                     0.137992      -0.000011
     53 H                     0.137778       0.000004
     54 H                     0.144772      -0.000001
     55 H                     0.144388       0.000001
     56 H                     0.134444       0.000003
     57 H                     0.135090      -0.000002
     58 H                     0.190583      -0.000001
     59 H                     0.190690       0.000001
     60 H                     0.200045       0.000000
     61 H                     0.200053      -0.000000
     62 H                     0.138736      -0.000000
     63 H                     0.138753      -0.000000
     64 H                     0.143628      -0.000000
     65 H                     0.143025       0.000000
     66 H                     0.137999       0.000000
     67 H                     0.137687       0.000000
     68 H                     0.133947       0.000000
     69 H                     0.133400       0.000000
     70 H                     0.133334      -0.000000
     71 H                     0.132936      -0.000000
     72 H                     0.133004       0.000000
     73 H                     0.132554       0.000000
     74 H                     0.129481       0.000000
     75 H                     0.129186       0.000000
     76 H                     0.136394       0.000000
     77 H                     0.136187      -0.000000
     78 H                     0.145427       0.000000
     79 H                     0.154157       0.000000
     80 H                     0.145536       0.000000
  --------------------------------------------------------
  Sum of atomic charges =    -1.000000

                    Cartesian Multipole Moments
 -----------------------------------------------------------------
    Charge (ESU x 10^10)
                -4.8032
    Dipole Moment (Debye)
         X     -46.9851      Y       2.3879      Z       0.6737
       Tot      47.0506
    Quadrupole Moments (Debye-Ang)
        XX    -697.2280     XY       0.0572     YY    -235.7099
        XZ     -29.4427     YZ       5.6929     ZZ    -249.4654

 Total job time:  963.00s(wall), 7010.52s(cpu)
        *  Thank you very much for using Q-Chem.  Have a nice day.  *
