 Gaussian 16, Revision A.03,
 Gaussian 16:  ES64L-G16RevA.03 25-Dec-2016

 ----------------------------------------------------------------
 #P UB3LYP/6-311++G(d,p) SCRF=(PCM,Solvent=n,n-DiMethylFormamide)
 ----------------------------------------------------------------

 ------------------
 Quinone PCM in DMF
 ------------------
 Symbolic Z-matrix:
 Charge =  0 Multiplicity = 1

                         Standard orientation:
 ---------------------------------------------------------------------
 Center     Atomic      Atomic             Coordinates (Angstroms)
 Number     Number       Type             X           Y           Z
 ---------------------------------------------------------------------
      1          6           0       -1.244394   -0.155574    1.273101
      2          6           0       -2.570905   -0.656097    1.720420
      3          6           0       -3.663450   -0.552603    0.953511
      4          6           0       -3.590762    0.061167   -0.394002
      5          6           0       -2.261579    0.530149   -0.857426
      6          6           0       -1.148492    0.397067   -0.114275
      7          8           0       -0.294371   -0.160189    2.035965
      8          8           0       -4.579465    0.171273   -1.099867
      9          6           0        1.450565    0.165766   -0.356334
     10          6           0        2.523069    0.900334    0.193386
     11          6           0        1.586298   -1.203644   -0.659167
     12          6           0        2.809666   -1.826641   -0.400335
     13          6           0        3.717799    0.229815    0.459232
     14          6           0        3.865579   -1.121104    0.163471
     15          1           0       -2.593676   -1.079737    2.718570
     16          1           0       -4.641362   -0.894329    1.274108
     17          1           0       -2.224558    0.975651   -1.845761
     18          1           0        2.931421   -2.875594   -0.648345
     19          1           0        4.542424    0.778232    0.901438
     20          1           0        4.805241   -1.622113    0.368006
     21          6           0        0.175505    0.890616   -0.672690
     22          8           0        0.161935    1.878159   -1.381753
     23          6           0        0.474846   -2.016129   -1.288182
     24          1           0        0.006149   -1.498883   -2.128808
     25          1           0       -0.314234   -2.258105   -0.568538
     26          1           0        0.867213   -2.963027   -1.662737
     27          6           0        2.407133    2.369043    0.529347
     28          1           0        1.529863    2.572389    1.149707
     29          1           0        2.312304    2.977547   -0.372082
     30          1           0        3.289164    2.701033    1.079335
 ---------------------------------------------------------------------

 SCF Done:  E(UB3LYP) =  -804.685193079     A.U. after   15 cycles

 The electronic state is 1-A.
 Alpha  occ. eigenvalues --  -19.15360 -19.15351 -19.14438 -10.30080 -10.29778
 Alpha  occ. eigenvalues --  -10.29500 -10.23239 -10.22804 -10.22102 -10.21969
 Alpha  occ. eigenvalues --  -10.20193 -10.20027 -10.19660 -10.18469 -10.17963
 Alpha  occ. eigenvalues --  -10.17899 -10.17541 -10.16899  -1.08623  -1.08249
 Alpha  occ. eigenvalues --   -1.07805  -0.88049  -0.87587  -0.81381  -0.79618
 Alpha  occ. eigenvalues --   -0.78182  -0.72962  -0.71416  -0.69026  -0.67307
 Alpha  occ. eigenvalues --   -0.63380  -0.62558  -0.58885  -0.56773  -0.53772
 Alpha  occ. eigenvalues --   -0.52498  -0.51255  -0.49650  -0.49109  -0.47940
 Alpha  occ. eigenvalues --   -0.46835  -0.46064  -0.45953  -0.44669  -0.43563
 Alpha  occ. eigenvalues --   -0.43376  -0.42810  -0.42094  -0.42026  -0.41659
 Alpha  occ. eigenvalues --   -0.41345  -0.40571  -0.38170  -0.36482  -0.35982
 Alpha  occ. eigenvalues --   -0.35315  -0.32270  -0.31386  -0.30512  -0.30146
 Alpha  occ. eigenvalues --   -0.27703  -0.26094  -0.25544
 Alpha virt. eigenvalues --   -0.14985  -0.08389  -0.04184  -0.02017  -0.01721
 Alpha virt. eigenvalues --   -0.00685   0.00261   0.00769   0.00968   0.01360
 Alpha virt. eigenvalues --    0.01753   0.02843   0.03080   0.03150   0.04304

  Beta  occ. eigenvalues --  -19.15360 -19.15351 -19.14438 -10.30080 -10.29778
  Beta  occ. eigenvalues --  -10.29500 -10.23239 -10.22804 -10.22102 -10.21969
  Beta  occ. eigenvalues --  -10.20193 -10.20027 -10.19660 -10.18469 -10.17963
  Beta  occ. eigenvalues --  -10.17899 -10.17541 -10.16899  -1.08623  -1.08249
  Beta  occ. eigenvalues --   -1.07805  -0.88049  -0.87587  -0.81381  -0.79618
  Beta  occ. eigenvalues --   -0.78182  -0.72962  -0.71416  -0.69026  -0.67307
  Beta  occ. eigenvalues --   -0.63380  -0.62558  -0.58885  -0.56773  -0.53772
  Beta  occ. eigenvalues --   -0.52498  -0.51255  -0.49650  -0.49109  -0.47940
  Beta  occ. eigenvalues --   -0.46835  -0.46064  -0.45953  -0.44669  -0.43563
  Beta  occ. eigenvalues --   -0.43376  -0.42810  -0.42094  -0.42026  -0.41659
  Beta  occ. eigenvalues --   -0.41345  -0.40571  -0.38170  -0.36482  -0.35982
  Beta  occ. eigenvalues --   -0.35315  -0.32270  -0.31386  -0.30512  -0.30146
  Beta  occ. eigenvalues --   -0.27703  -0.26094  -0.25544
  Beta virt. eigenvalues --   -0.14985  -0.08389  -0.04184  -0.02017  -0.01721
  Beta virt. eigenvalues --   -0.00685   0.00261   0.00769   0.00968   0.01360
  Beta virt. eigenvalues --    0.01753   0.02843   0.03080   0.03150   0.04304

 Mulliken charges and spin densities:
               1          2
     1  C   -1.175637  -0.000000
     2  C   -0.202573   0.000000
     3  C    0.213496  -0.000000
     4  C   -0.552524   0.000000
     5  C    0.449038  -0.000000
     6  C    1.171553   0.000000
     7  O   -0.159888  -0.000000
     8  O   -0.269543  -0.000000
     9  C    0.285437   0.000000
    10  C    0.181999   0.000000
    11  C    0.644131  -0.000000
    12  C   -0.263043  -0.000000
    13  C   -0.333537  -0.000000
    14  C   -0.260275  -0.000000
    15  H    0.256585  -0.000000
    16  H    0.255615  -0.000000
    17  H    0.277472  -0.000000
    18  H    0.171285  -0.000000
    19  H    0.169513  -0.000000
    20  H    0.200945  -0.000000
    21  C   -0.691909   0.000000
    22  O   -0.204656   0.000000
    23  C   -0.765947  -0.000000
    24  H    0.188341   0.000000
    25  H    0.184973  -0.000000
    26  H    0.175351   0.000000
    27  C   -0.501352   0.000000
    28  H    0.194500  -0.000000
    29  H    0.205066  -0.000000
    30  H    0.155584   0.000000
 Sum of Mulliken charges =  -0.00000   0.00000

 Dipole moment (field-independent basis, Debye):
    X=              0.3077    Y=             -3.2515    Z=              1.9511  Tot=              3.8044
 Quadrupole moment (field-independent basis, Debye-Ang):
   XX=           -105.4653   YY=           -101.6107   ZZ=           -110.1601
   XY=              3.0927   XZ=            -10.3575   YZ=              5.5467

 Normal termination of Gaussian 16 at Wed Jan 24 22:51:35 2024.
