 Gaussian 16, Revision A.03,
 Gaussian 16:  ES64L-G16RevA.03 25-Dec-2016

 --------------------------------------
 #P UB3LYP/6-311++G(d,p) nosym opt freq
 --------------------------------------

 --------
 Oxidized
 --------
 Symbolic Z-matrix:
 Charge =  0 Multiplicity = 1

 SCF Done:  E(UB3LYP) =  -804.671867959     A.U. after   16 cycles
 Optimization completed.
    -- Stationary point found.
 Normal termination of Gaussian 16 at Wed Jan 10 04:57:08 2024.

 ----------------------------------------------------------------------
 #P Geom=AllCheck Guess=TCheck SCRF=Check GenChk UB3LYP/6-311++G(d,p) F
 req
 ----------------------------------------------------------------------

 Structure from the checkpoint file:  "078.chk"
 --------
 Oxidized
 --------
 Charge =  0 Multiplicity = 1

                          Input orientation:
 ---------------------------------------------------------------------
 Center     Atomic      Atomic             Coordinates (Angstroms)
 Number     Number       Type             X           Y           Z
 ---------------------------------------------------------------------
      1          6           0        0.449312    1.698987   -2.271904
      2          6           0       -0.987317    2.080786   -2.247893
      3          6           0       -1.955328    1.185478   -2.015744
      4          6           0       -1.628613   -0.237329   -1.757547
      5          6           0       -0.193788   -0.614934   -1.746337
      6          6           0        0.791019    0.280657   -1.938741
      7          8           0        1.297627    2.510606   -2.597728
      8          8           0       -2.500246   -1.066102   -1.554341
      9          6           0        3.308094    0.704096   -1.345257
     10          6           0        4.439766    0.967518   -2.146490
     11          6           0        3.208474    1.215773   -0.036182
     12          6           0        4.256348    1.997237    0.456791
     13          6           0        5.449841    1.774748   -1.621344
     14          6           0        5.364808    2.284628   -0.330186
     15          1           0       -1.193045    3.124037   -2.461424
     16          1           0       -3.008244    1.444782   -2.015309
     17          1           0        0.029044   -1.659113   -1.554804
     18          1           0        4.199040    2.379400    1.470350
     19          1           0        6.314814    2.002130   -2.234885
     20          1           0        6.164768    2.901637    0.063735
     21          6           0        2.235220   -0.189193   -1.895024
     22          8           0        2.484235   -1.304289   -2.310653
     23          6           0        2.031932    0.921505    0.869506
     24          1           0        1.759841   -0.136717    0.867208
     25          1           0        1.141659    1.491484    0.583804
     26          1           0        2.271300    1.196803    1.897987
     27          6           0        4.574396    0.433601   -3.553694
     28          1           0        3.693757    0.666200   -4.158815
     29          1           0        4.690962   -0.651864   -3.558401
     30          1           0        5.442794    0.876667   -4.043858
 ---------------------------------------------------------------------

 SCF Done:  E(UB3LYP) =  -804.671867959     A.U. after    1 cycles

 Alpha  occ. eigenvalues --  -19.15390 -19.15288 -19.13963 -10.30183 -10.29814
 Alpha  occ. eigenvalues --  -10.29077 -10.23456 -10.23017 -10.22954 -10.22840
 Alpha  occ. eigenvalues --  -10.20211 -10.19860 -10.19513 -10.18504 -10.18410
 Alpha  occ. eigenvalues --  -10.18078 -10.17887 -10.16805  -1.08593  -1.08147
 Alpha  occ. eigenvalues --   -1.07319  -0.88299  -0.87695  -0.81921  -0.79726
 Alpha  occ. eigenvalues --   -0.78151  -0.73212  -0.71699  -0.69186  -0.67578
 Alpha  occ. eigenvalues --   -0.63750  -0.62727  -0.58977  -0.56790  -0.54079
 Alpha  occ. eigenvalues --   -0.52509  -0.51535  -0.49662  -0.49235  -0.48108
 Alpha  occ. eigenvalues --   -0.46855  -0.46110  -0.45834  -0.44819  -0.43857
 Alpha  occ. eigenvalues --   -0.43470  -0.42943  -0.42416  -0.42062  -0.41832
 Alpha  occ. eigenvalues --   -0.41564  -0.40581  -0.38402  -0.36526  -0.35881
 Alpha  occ. eigenvalues --   -0.35419  -0.32604  -0.31909  -0.30405  -0.29950
 Alpha  occ. eigenvalues --   -0.27369  -0.25900  -0.25380
 Alpha virt. eigenvalues --   -0.15192  -0.08421  -0.04472  -0.02001  -0.01905
 Alpha virt. eigenvalues --   -0.01330  -0.00459   0.00247   0.00664   0.01178
 Alpha virt. eigenvalues --    0.01623   0.02419   0.02695   0.02765   0.04161

  Beta  occ. eigenvalues --  -19.15390 -19.15288 -19.13963 -10.30183 -10.29814
  Beta  occ. eigenvalues --  -10.29077 -10.23456 -10.23017 -10.22954 -10.22840
  Beta  occ. eigenvalues --  -10.20211 -10.19860 -10.19513 -10.18504 -10.18410
  Beta  occ. eigenvalues --  -10.18078 -10.17887 -10.16805  -1.08593  -1.08147
  Beta  occ. eigenvalues --   -1.07319  -0.88299  -0.87695  -0.81921  -0.79726
  Beta  occ. eigenvalues --   -0.78151  -0.73212  -0.71699  -0.69186  -0.67578
  Beta  occ. eigenvalues --   -0.63750  -0.62727  -0.58977  -0.56790  -0.54079
  Beta  occ. eigenvalues --   -0.52509  -0.51535  -0.49662  -0.49235  -0.48108
  Beta  occ. eigenvalues --   -0.46855  -0.46110  -0.45834  -0.44819  -0.43857
  Beta  occ. eigenvalues --   -0.43470  -0.42943  -0.42416  -0.42062  -0.41832
  Beta  occ. eigenvalues --   -0.41564  -0.40581  -0.38402  -0.36526  -0.35881
  Beta  occ. eigenvalues --   -0.35419  -0.32604  -0.31909  -0.30405  -0.29950
  Beta  occ. eigenvalues --   -0.27369  -0.25900  -0.25380
  Beta virt. eigenvalues --   -0.15192  -0.08421  -0.04472  -0.02001  -0.01905
  Beta virt. eigenvalues --   -0.01330  -0.00459   0.00247   0.00664   0.01178
  Beta virt. eigenvalues --    0.01623   0.02419   0.02695   0.02765   0.04161

 Mulliken charges and spin densities:
               1          2
     1  C   -1.236055  -0.000000
     2  C   -0.180661   0.000000
     3  C    0.230967   0.000000
     4  C   -0.599073  -0.000000
     5  C    0.480168   0.000000
     6  C    1.117171  -0.000000
     7  O   -0.102053   0.000000
     8  O   -0.207472   0.000000
     9  C    0.323215  -0.000000
    10  C    0.190396  -0.000000
    11  C    0.657737   0.000000
    12  C   -0.233121   0.000000
    13  C   -0.289045   0.000000
    14  C   -0.238138   0.000000
    15  H    0.234358   0.000000
    16  H    0.233064   0.000000
    17  H    0.269710   0.000000
    18  H    0.138571  -0.000000
    19  H    0.140365   0.000000
    20  H    0.172830   0.000000
    21  C   -0.779875  -0.000000
    22  O   -0.141798   0.000000
    23  C   -0.734578   0.000000
    24  H    0.177621  -0.000000
    25  H    0.166238   0.000000
    26  H    0.161893  -0.000000
    27  C   -0.492080   0.000000
    28  H    0.188600   0.000000
    29  H    0.211909  -0.000000
    30  H    0.139136   0.000000
 Sum of Mulliken charges =  -0.00000  -0.00000

 Dipole moment (field-independent basis, Debye):
    X=             -0.0958    Y=              2.6984    Z=              1.1128  Tot=              2.9204
 Quadrupole moment (field-independent basis, Debye-Ang):
   XX=           -103.6157   YY=           -110.3709   ZZ=           -103.4437
   XY=             -2.1676   XZ=              3.9155   YZ=             -2.1010

  Exact polarizability: 234.268  43.300 164.848  -7.768   9.923 151.272
 Approx polarizability: 355.041 103.137 302.411 -32.110   9.303 240.442

                      1                      2                      3
                      A                      A                      A
 Frequencies --     24.2055                31.3404                54.7620
 Red. masses --      5.3257                 6.6436                 4.9706
 Frc consts  --      0.0018                 0.0038                 0.0088
 IR Inten    --      0.4365                 1.0657                 1.3775

                      4                      5                      6
                      A                      A                      A
 Frequencies --     74.9027               106.6264               127.3785
 Red. masses --      5.9955                 3.5813                 2.1381
 Frc consts  --      0.0198                 0.0240                 0.0204
 IR Inten    --      3.8743                 8.7265                 0.8231

                      7                      8                      9
                      A                      A                      A
 Frequencies --    132.0203               149.8035               179.9902
 Red. masses --      1.7643                 1.0741                 4.6664
 Frc consts  --      0.0181                 0.0142                 0.0891
 IR Inten    --      3.3551                 0.1488                 0.3975

                     10                     11                     12
                      A                      A                      A
 Frequencies --    194.0500               221.7581               249.6627
 Red. masses --      6.1282                 2.7822                 4.8626
 Frc consts  --      0.1360                 0.0806                 0.1786
 IR Inten    --      1.5687                 0.0238                 5.0618

                     13                     14                     15
                      A                      A                      A
 Frequencies --    259.0474               316.4457               326.6679
 Red. masses --      4.5223                 4.2279                 4.5129
 Frc consts  --      0.1788                 0.2494                 0.2837
 IR Inten    --      1.1864                 0.4655                 0.4376

                     16                     17                     18
                      A                      A                      A
 Frequencies --    383.6276               409.2283               429.6146
 Red. masses --      4.6009                 4.5879                 7.9677
 Frc consts  --      0.3989                 0.4527                 0.8664
 IR Inten    --      0.2882                17.1334                18.4412

                     19                     20                     21
                      A                      A                      A
 Frequencies --    443.5583               469.9512               523.2254
 Red. masses --      3.1885                 9.0309                 3.3414
 Frc consts  --      0.3696                 1.1751                 0.5390
 IR Inten    --      1.0786                 1.9694                 5.9196

                     22                     23                     24
                      A                      A                      A
 Frequencies --    526.1960               536.5116               546.8184
 Red. masses --      3.6607                 5.2506                 4.1269
 Frc consts  --      0.5972                 0.8905                 0.7270
 IR Inten    --      0.8214                 1.1446                 8.4746

                     25                     26                     27
                      A                      A                      A
 Frequencies --    580.9400               621.2735               627.3039
 Red. masses --      3.7057                 5.6237                 4.6391
 Frc consts  --      0.7369                 1.2789                 1.0756
 IR Inten    --      2.8274                 0.5757                 4.5253

                     28                     29                     30
                      A                      A                      A
 Frequencies --    725.0566               743.2222               772.9582
 Red. masses --      3.8035                 5.4195                 5.4257
 Frc consts  --      1.1781                 1.7638                 1.9099
 IR Inten    --     13.0736                 9.5212                 2.8135

                     31                     32                     33
                      A                      A                      A
 Frequencies --    782.2239               788.4862               816.5493
 Red. masses --      1.2475                 3.4181                 4.1279
 Frc consts  --      0.4497                 1.2520                 1.6216
 IR Inten    --     37.8380                 1.5069                 8.5200

                     34                     35                     36
                      A                      A                      A
 Frequencies --    825.7821               857.5153               906.6147
 Red. masses --      7.1768                 2.6991                 1.3058
 Frc consts  --      2.8835                 1.1694                 0.6324
 IR Inten    --      3.9604                29.4588                 0.0123

                     37                     38                     39
                      A                      A                      A
 Frequencies --    923.8891               946.1842               963.2654
 Red. masses --      2.8003                 2.4339                 1.9455
 Frc consts  --      1.4083                 1.2838                 1.0636
 IR Inten    --     28.9347                44.7044                37.4222

                     40                     41                     42
                      A                      A                      A
 Frequencies --    988.5166              1012.5127              1018.4503
 Red. masses --      1.3215                 1.5437                 1.2604
 Frc consts  --      0.7608                 0.9324                 0.7703
 IR Inten    --      0.2144                 0.0387                 0.1135

                     43                     44                     45
                      A                      A                      A
 Frequencies --   1054.0833              1054.7215              1058.4474
 Red. masses --      1.6253                 2.0103                 1.6440
 Frc consts  --      1.0639                 1.3176                 1.0852
 IR Inten    --      4.8813                 1.1321                 0.9696

                     46                     47                     48
                      A                      A                      A
 Frequencies --   1066.7958              1112.1056              1131.9695
 Red. masses --      2.7462                 1.7023                 1.6741
 Frc consts  --      1.8414                 1.2405                 1.2639
 IR Inten    --      1.1801                26.0163                35.3947

                     49                     50                     51
                      A                      A                      A
 Frequencies --   1192.6810              1208.0822              1246.1280
 Red. masses --      1.2139                 1.7910                 3.6697
 Frc consts  --      1.0174                 1.5401                 3.3574
 IR Inten    --      2.6357                 2.8573               112.9269

                     52                     53                     54
                      A                      A                      A
 Frequencies --   1266.9914              1279.8160              1285.8937
 Red. masses --      3.2515                 1.8203                 3.1598
 Frc consts  --      3.0752                 1.7567                 3.0783
 IR Inten    --     10.6841                 8.2447               130.3216

                     55                     56                     57
                      A                      A                      A
 Frequencies --   1313.3181              1346.7821              1389.3739
 Red. masses --      6.4635                 2.2831                 1.9911
 Frc consts  --      6.5684                 2.4398                 2.2645
 IR Inten    --      2.7653                32.8623                 0.9421

                     58                     59                     60
                      A                      A                      A
 Frequencies --   1416.6365              1418.4366              1451.6485
 Red. masses --      1.2276                 1.2397                 2.1448
 Frc consts  --      1.4515                 1.4696                 2.6629
 IR Inten    --      4.4191                 0.4525                27.8457

                     61                     62                     63
                      A                      A                      A
 Frequencies --   1483.2811              1488.1026              1495.8976
 Red. masses --      1.3054                 1.1490                 1.0943
 Frc consts  --      1.6921                 1.4992                 1.4428
 IR Inten    --      3.5783                 8.1735                10.7211

                     64                     65                     66
                      A                      A                      A
 Frequencies --   1501.4147              1507.3302              1614.6603
 Red. masses --      1.4307                 1.2731                 6.5990
 Frc consts  --      1.9002                 1.7043                10.1365
 IR Inten    --     29.0246                 4.8953                 8.3681

                     67                     68                     69
                      A                      A                      A
 Frequencies --   1631.1050              1635.8877              1670.7503
 Red. masses --      5.3896                 8.5133                 8.6576
 Frc consts  --      8.4483                13.4232                14.2388
 IR Inten    --     20.4311                 2.6305                20.1520

                     70                     71                     72
                      A                      A                      A
 Frequencies --   1719.9267              1724.6111              1733.1186
 Red. masses --     11.0265                11.7097                10.7426
 Frc consts  --     19.2180                20.5201                19.0115
 IR Inten    --     84.2222               466.5247                78.0575

                     73                     74                     75
                      A                      A                      A
 Frequencies --   3024.1015              3037.1595              3078.5709
 Red. masses --      1.0411                 1.0372                 1.0952
 Frc consts  --      5.6098                 5.6368                 6.1156
 IR Inten    --     31.1976                18.9242                15.3312

                     76                     77                     78
                      A                      A                      A
 Frequencies --   3094.1484              3105.7602              3111.9969
 Red. masses --      1.0985                 1.1008                 1.1026
 Frc consts  --      6.1960                 6.2559                 6.2912
 IR Inten    --     13.8686                16.7996                14.2848

                     79                     80                     81
                      A                      A                      A
 Frequencies --   3158.8752              3167.5838              3176.2332
 Red. masses --      1.0860                 1.0906                 1.0874
 Frc consts  --      6.3846                 6.4472                 6.4637
 IR Inten    --      0.1679                19.3490                 0.5599

                     82                     83                     84
                      A                      A                      A
 Frequencies --   3183.7864              3186.5376              3193.9279
 Red. masses --      1.0967                 1.0919                 1.0993
 Frc consts  --      6.5500                 6.5322                 6.6072
 IR Inten    --     22.0489                 0.3785                 2.3306

 - Thermochemistry -
 -------------------
 Temperature   298.150 Kelvin.  Pressure   1.00000 Atm.
 Atom     1 has atomic number  6 and mass  12.00000

 Molecular mass:   240.07864 amu.
 Principal axes and moments of inertia in atomic units:
                           1         2         3
     Eigenvalues --  2114.052376550.327896832.63868
           X            0.97436  -0.21147  -0.07688
           Y            0.19701   0.63674   0.74549
           Z            0.10870   0.74152  -0.66207
 This molecule is an asymmetric top.
 Rotational symmetry number  1.
 Warning -- assumption of classical behavior for rotation
           may cause significant error
 Rotational temperatures (Kelvin)      0.04097     0.01322     0.01268
 Rotational constants (GHZ):           0.85369     0.27552     0.26414
 Zero-point vibrational energy     601941.8 (Joules/Mol)
                                  143.86755 (Kcal/Mol)
 Warning -- explicit consideration of  25 degrees of freedom as
           vibrations may cause significant error
 Vibrational temperatures:     34.83    45.09    78.79   107.77   153.41
          (Kelvin)            183.27   189.95   215.53   258.97   279.19
                              319.06   359.21   372.71   455.29   470.00
                              551.95   588.79   618.12   638.18   676.15
                              752.80   757.08   771.92   786.75   835.84
                              893.87   902.55  1043.19  1069.33  1112.11
                             1125.45  1134.46  1174.83  1188.12  1233.77
                             1304.42  1329.27  1361.35  1385.92  1422.25
                             1456.78  1465.32  1516.59  1517.51  1522.87
                             1534.88  1600.07  1628.65  1716.00  1738.16
                             1792.90  1822.92  1841.37  1850.11  1889.57
                             1937.72  1999.00  2038.22  2040.81  2088.60
                             2134.11  2141.05  2152.26  2160.20  2168.71
                             2323.14  2346.80  2353.68  2403.84  2474.59
                             2481.33  2493.57  4351.01  4369.80  4429.38
                             4451.79  4468.50  4477.47  4544.92  4557.45
                             4569.89  4580.76  4584.72  4595.35

 Zero-point correction=                           0.229268 (Hartree/Particle)
 Thermal correction to Energy=                    0.245623
 Thermal correction to Enthalpy=                  0.246568
 Thermal correction to Gibbs Free Energy=         0.184036
 Sum of electronic and zero-point Energies=           -804.442600
 Sum of electronic and thermal Energies=              -804.426244
 Sum of electronic and thermal Enthalpies=            -804.425300
 Sum of electronic and thermal Free Energies=         -804.487832

                     E (Thermal)             CV                S
                      KCal/Mol        Cal/Mol-Kelvin    Cal/Mol-Kelvin
 Total                  154.131             61.148            131.610
 Electronic               0.000              0.000              0.000
 Translational            0.889              2.981             42.329
 Rotational               0.889              2.981             32.914
 Vibrational            152.354             55.186             56.367
 Vibration     1          0.593              1.985              6.255
 Vibration     2          0.594              1.983              5.743
 Vibration     3          0.596              1.976              4.638
 Vibration     4          0.599              1.966              4.020
 Vibration     5          0.605              1.944              3.329
 Vibration     6          0.611              1.926              2.985
 Vibration     7          0.612              1.921              2.916
 Vibration     8          0.618              1.903              2.675
 Vibration     9          0.629              1.867              2.329
 Vibration    10          0.635              1.848              2.189
 Vibration    11          0.648              1.808              1.945
 Vibration    12          0.662              1.763              1.733
 Vibration    13          0.668              1.747              1.668
 Vibration    14          0.703              1.642              1.328
 Vibration    15          0.710              1.622              1.277
 Vibration    16          0.753              1.505              1.025
 Vibration    17          0.774              1.450              0.929
 Vibration    18          0.791              1.406              0.860
 Vibration    19          0.803              1.375              0.815
 Vibration    20          0.827              1.317              0.738
 Vibration    21          0.878              1.199              0.603
 Vibration    22          0.881              1.192              0.596
 Vibration    23          0.892              1.169              0.573
 Vibration    24          0.902              1.147              0.551
 Vibration    25          0.938              1.073              0.484

                           ! Non-Optimized Parameters !
 Normal termination of Gaussian 16 at Wed Jan 10 06:31:13 2024.
