 Q-Chem 5.4, Q-Chem, Inc., Pleasanton, CA (2021)
 Q-Chem 5.4.0 for Intel X86 EM64T Linux

User input:
--------------------------------------------------------------
$molecule
0 1
C                  0.8174400000      1.6355810000     -0.6761270000
C                 -0.5576680000      1.0000910000     -0.6270030000
C                 -0.6815080000     -0.2292040000     -0.0582670000
C                  0.5803750000     -0.9729120000      0.3313930000
C                  1.9326100000     -0.3522460000      0.2239470000
C                  2.0437040000      0.9090360000     -0.2360000000
C                  3.3199860000      1.6900330000     -0.3727390000
C                  3.0653570000     -1.2320520000      0.6714690000
O                  0.9459630000      2.7837040000     -1.0790330000
O                  0.5095100000     -2.1232830000      0.7420690000
H                  4.1812850000      1.1502600000      0.0137120000
H                  3.2354880000      2.6433500000      0.1544150000
H                  3.5037570000      1.9410690000     -1.4212790000
H                  3.0402020000     -2.1812090000      0.1308240000
H                  2.9570920000     -1.4855260000      1.7299030000
H                  4.0370450000     -0.7677020000      0.5207410000
C                 -1.9277550000     -1.0642220000      0.2406050000
C                 -3.1152720000     -0.3426290000      0.8962010000
C                 -2.3478730000     -1.9463340000     -0.9558600000
C                 -1.6160770000      1.9296200000     -1.2233250000
C                 -2.2553490000      2.8535660000     -0.1632570000
C                 -2.6508200000      1.2992740000     -2.1681870000
H                 -1.5780610000     -1.7747860000      0.9906410000
H                 -3.8141830000     -1.0956870000      1.2726060000
H                 -3.6725680000      0.3039650000      0.2209690000
H                 -2.7894030000      0.2570320000      1.7499490000
H                 -3.1380320000     -2.6348670000     -0.6416100000
H                 -1.5056970000     -2.5482860000     -1.3043720000
H                 -2.7232280000     -1.3638580000     -1.7969920000
H                 -1.0313720000      2.6030350000     -1.8512910000
H                 -2.8809320000      3.6008940000     -0.6605810000
H                 -1.4843720000      3.3885790000      0.3957010000
H                 -2.8786970000      2.3112160000      0.5473220000
H                 -3.1689850000      2.1022660000     -2.7010830000
H                 -3.4110760000      0.7048730000     -1.6648810000
H                 -2.1667580000      0.6682790000     -2.9180090000
$end
$rem
MAX_SCF_CYCLES=200
BASIS  =  6-311++G(d,p)
GUI  =  2
JOB_TYPE  =  SP
METHOD  =  B3LYP
SOLVENT_METHOD = COSMO
$end
$solvent
dielectric 37.219
opticaldielectric 1.43
$end

--------------------------------------------------------------

             Standard Nuclear Orientation (Angstroms)
    I     Atom           X                Y                Z
 ----------------------------------------------------------------
    1      C       0.9070562541    -1.4004118250     0.0894363843
    2      C      -0.4234430412    -0.6744992487     0.0871394232
    3      C      -0.4233439976     0.6743785041    -0.0874801022
    4      C       0.9072462256     1.4001948544    -0.0898240035
    5      C       2.2082200656     0.6727064601    -0.0303418601
    6      C       2.2081093203    -0.6730493111     0.0302122091
    7      C       3.4235431056    -1.5558780134     0.0599411110
    8      C       3.4237881116     1.5553020146    -0.0598328241
    9      O       0.9361221010    -2.6228382519     0.1326409778
   10      O       0.9364019631     2.6226037660    -0.1333723546
   11      H       4.3484651906    -0.9938397181    -0.0457344566
   12      H       3.3684601838    -2.2981969657    -0.7399170008
   13      H       3.4612568229    -2.1226396105     0.9945993121
   14      H       3.3683154493     2.2981485929     0.7394984873
   15      H       3.4622618609     2.1214754472    -0.9948303247
   16      H       4.3484860827     0.9930922366     0.0468032377
   17      C      -1.5860688026     1.6547613218    -0.2506722474
   18      C      -2.7083124531     1.2569579661    -1.2217648678
   19      C      -2.1195771018     2.1683042833     1.1049795265
   20      C      -1.5864112642    -1.6546822977     0.2502338846
   21      C      -2.1218549804    -2.1665024441    -1.1052841824
   22      C      -2.7070307690    -1.2575288515     1.2235141219
   23      H      -1.1146405657     2.5277701930    -0.7038300801
   24      H      -3.3220733247     2.1400640275    -1.4234451550
   25      H      -3.3732863593     0.4833000381    -0.8424707858
   26      H      -2.3005569636     0.9168066178    -2.1771192987
   27      H      -2.8343396816     2.9785385968     0.9323040744
   28      H      -1.3051216362     2.5710472053     1.7112201327
   29      H      -2.6228768038     1.3918454527     1.6807171424
   30      H      -1.1147705050    -2.5284439456     0.7016810835
   31      H      -2.8358323639    -2.9774203373    -0.9325622762
   32      H      -1.3081132756    -2.5679663672    -1.7133381659
   33      H      -2.6265525803    -1.3896635258    -1.6792444551
   34      H      -3.3213807957    -2.1403747986     1.4245771579
   35      H      -3.3718008355    -0.4825700842     0.8465017460
   36      H      -2.2976164508    -0.9194176454     2.1789012005
 ----------------------------------------------------------------

    8    -696.1566973727      5.35e-06  Convergence criterion met
 Total energy in the final basis set =     -696.1566973727
    3    -696.1670222173      9.95e-06  Convergence criterion met
 Total energy in the final basis set =     -696.1670222173

                    Orbital Energies (a.u.)
 --------------------------------------------------------------

 Alpha MOs
 -- Occupied --
-19.1324 -19.1324 -10.2772 -10.2772 -10.2087 -10.2080 -10.2067 -10.2059
-10.1817 -10.1817 -10.1694 -10.1694 -10.1582 -10.1582 -10.1572 -10.1572
 -1.0675  -1.0656  -0.8609  -0.8317  -0.7961  -0.7620  -0.7468  -0.6898
 -0.6881  -0.6839  -0.6770  -0.6179  -0.6006  -0.5730  -0.5385  -0.5318
 -0.4894  -0.4654  -0.4626  -0.4529  -0.4507  -0.4459  -0.4333  -0.4304
 -0.4235  -0.4212  -0.4069  -0.4050  -0.3945  -0.3928  -0.3907  -0.3907
 -0.3794  -0.3783  -0.3582  -0.3490  -0.3476  -0.3452  -0.3301  -0.3210
 -0.2899  -0.2882  -0.2635  -0.2617

          Ground-State Mulliken Net Atomic Charges

     Atom                 Charge (a.u.)
  ----------------------------------------
      1 C                    -1.094334
      2 C                     1.039259
      3 C                     1.038145
      4 C                    -1.094039
      5 C                     0.252793
      6 C                     0.254226
      7 C                    -0.521941
      8 C                    -0.521699
      9 O                    -0.242306
     10 O                    -0.242320
     11 H                     0.137619
     12 H                     0.199025
     13 H                     0.202503
     14 H                     0.198996
     15 H                     0.202571
     16 H                     0.137375
     17 C                     0.205164
     18 C                    -0.657729
     19 C                    -0.692609
     20 C                     0.205965
     21 C                    -0.692436
     22 C                    -0.658285
     23 H                     0.221127
     24 H                     0.178030
     25 H                     0.137673
     26 H                     0.154162
     27 H                     0.164549
     28 H                     0.180767
     29 H                     0.135994
     30 H                     0.221164
     31 H                     0.164534
     32 H                     0.180755
     33 H                     0.135601
     34 H                     0.177990
     35 H                     0.137631
     36 H                     0.154078
  ----------------------------------------
  Sum of atomic charges =     0.000000

                    Cartesian Multipole Moments
 -----------------------------------------------------------------
    Charge (ESU x 10^10)
                 0.0000
    Dipole Moment (Debye)
         X       0.0752      Y       0.0003      Z       0.0008
       Tot       0.0752
    Quadrupole Moments (Debye-Ang)
        XX     -85.4919     XY      -0.0022     YY    -115.6641
        XZ       0.0016     YZ      -0.0729     ZZ     -97.9401

 Total job time:  66.12s(wall), 503.29s(cpu)
        *  Thank you very much for using Q-Chem.  Have a nice day.  *
