 Gaussian 16, Revision A.03,
 Gaussian 16:  ES64L-G16RevA.03 25-Dec-2016

 --------------------------------------
 #P UB3LYP/6-311++G(d,p) nosym opt freq
 --------------------------------------

 -------
 Radical
 -------
 Symbolic Z-matrix:
 Charge = -1 Multiplicity = 2

 SCF Done:  E(UB3LYP) =  -798.775689122     A.U. after   24 cycles
 SCF Done:  E(UB3LYP) =  -798.797474797     A.U. after   20 cycles
 SCF Done:  E(UB3LYP) =  -798.799799742     A.U. after   17 cycles
 SCF Done:  E(UB3LYP) =  -798.800020468     A.U. after   17 cycles
 SCF Done:  E(UB3LYP) =  -798.799997002     A.U. after   15 cycles
 SCF Done:  E(UB3LYP) =  -798.800042688     A.U. after   15 cycles
 SCF Done:  E(UB3LYP) =  -798.800048739     A.U. after   14 cycles
 SCF Done:  E(UB3LYP) =  -798.800049543     A.U. after   13 cycles
 SCF Done:  E(UB3LYP) =  -798.800049817     A.U. after   11 cycles
 Optimization completed.
    -- Stationary point found.
 Normal termination of Gaussian 16 at Tue Dec 26 21:20:34 2023.

 ----------------------------------------------------------------------
 #P Geom=AllCheck Guess=TCheck SCRF=Check GenChk UB3LYP/6-311++G(d,p) F
 req
 ----------------------------------------------------------------------

 Structure from the checkpoint file:  "275-rad.chk"
 -------
 Radical
 -------
 Charge = -1 Multiplicity = 2

                          Input orientation:
 ---------------------------------------------------------------------
 Center     Atomic      Atomic             Coordinates (Angstroms)
 Number     Number       Type             X           Y           Z
 ---------------------------------------------------------------------
      1          6           0        0.245862   -0.561598   -0.144212
      2          6           0       -0.332169   -1.747783   -0.544174
      3          6           0       -1.758728   -1.928522   -0.564435
      4          8           0       -2.295026   -3.005966   -0.927534
      5          6           0       -2.577207   -0.774526   -0.133302
      6          6           0       -3.979339   -0.875261   -0.125846
      7          6           0       -4.772238    0.188048    0.272750
      8          6           0       -4.171356    1.396224    0.679624
      9          6           0       -2.794346    1.518830    0.680609
     10          6           0       -1.970748    0.445027    0.277410
     11          6           0       -0.524679    0.593863    0.285832
     12          8           0        0.069277    1.660457    0.643378
     13          1           0        0.284279   -2.579262   -0.855373
     14          1           0       -4.411623   -1.817283   -0.444169
     15          1           0       -5.854071    0.092710    0.272354
     16          1           0       -4.791397    2.231439    0.992651
     17          1           0       -2.308885    2.437630    0.989237
     18          7           0        1.619995   -0.285066   -0.088719
     19          6           0        2.699903   -1.066595   -0.391303
     20          7           0        3.912177   -0.408621   -0.193389
     21          6           0        5.181609   -1.048614   -0.451225
     22          8           0        2.655464   -2.223057   -0.794917
     23          1           0        1.747506    0.670912    0.244381
     24          1           0        3.902631    0.540953    0.140684
     25          1           0        4.970460   -2.058961   -0.800834
     26          1           0        5.797831   -1.114291    0.453933
     27          1           0        5.754164   -0.523834   -1.225897
 ---------------------------------------------------------------------

 SCF Done:  E(UB3LYP) =  -798.800049817     A.U. after    2 cycles

 Alpha  occ. eigenvalues --  -18.97670 -18.95401 -18.93977 -14.23738 -14.22644
 Alpha  occ. eigenvalues --  -10.19312 -10.11595 -10.09573 -10.09111 -10.08669
 Alpha  occ. eigenvalues --  -10.05802 -10.05652 -10.05155 -10.05082 -10.04960
 Alpha  occ. eigenvalues --  -10.04767 -10.02788  -0.94433  -0.88015  -0.86387
 Alpha  occ. eigenvalues --   -0.83196  -0.80527  -0.73633  -0.67779  -0.63150
 Alpha  occ. eigenvalues --   -0.62955  -0.60255  -0.55570  -0.51766  -0.49922
 Alpha  occ. eigenvalues --   -0.48005  -0.45327  -0.44030  -0.40977  -0.37566
 Alpha  occ. eigenvalues --   -0.37309  -0.36621  -0.35003  -0.33534  -0.32536
 Alpha  occ. eigenvalues --   -0.31983  -0.31147  -0.30286  -0.29963  -0.28784
 Alpha  occ. eigenvalues --   -0.28714  -0.27275  -0.26324  -0.24873  -0.23532
 Alpha  occ. eigenvalues --   -0.23281  -0.21640  -0.19584  -0.16481  -0.16168
 Alpha  occ. eigenvalues --   -0.14081  -0.13477  -0.12584  -0.10622  -0.10361
 Alpha  occ. eigenvalues --   -0.02201
 Alpha virt. eigenvalues --    0.06221   0.08293   0.08733   0.08816   0.09691
 Alpha virt. eigenvalues --    0.10253   0.10459   0.11405   0.12209   0.13230
 Alpha virt. eigenvalues --    0.13878   0.14903   0.15000   0.15332   0.15649

  Beta  occ. eigenvalues --  -18.97649 -18.94758 -18.93355 -14.23731 -14.22635
  Beta  occ. eigenvalues --  -10.19308 -10.11596 -10.09322 -10.09043 -10.08584
  Beta  occ. eigenvalues --  -10.05798 -10.05564 -10.05121 -10.05051 -10.05000
  Beta  occ. eigenvalues --  -10.04648 -10.02654  -0.94398  -0.87011  -0.85320
  Beta  occ. eigenvalues --   -0.83094  -0.80379  -0.73428  -0.67337  -0.63028
  Beta  occ. eigenvalues --   -0.62768  -0.60107  -0.54867  -0.51476  -0.49765
  Beta  occ. eigenvalues --   -0.47937  -0.45163  -0.43819  -0.40827  -0.37394
  Beta  occ. eigenvalues --   -0.37147  -0.36588  -0.34712  -0.33467  -0.32507
  Beta  occ. eigenvalues --   -0.31694  -0.30953  -0.30209  -0.29939  -0.28448
  Beta  occ. eigenvalues --   -0.27594  -0.26702  -0.26032  -0.23382  -0.23334
  Beta  occ. eigenvalues --   -0.21829  -0.21457  -0.18402  -0.16442  -0.16064
  Beta  occ. eigenvalues --   -0.12886  -0.12066  -0.12002  -0.09771  -0.09472
  Beta virt. eigenvalues --    0.04328   0.06221   0.08287   0.08736   0.09467
  Beta virt. eigenvalues --    0.09713   0.10247   0.11413   0.11449   0.12208
  Beta virt. eigenvalues --    0.13236   0.13881   0.14908   0.15006   0.15384

 Mulliken charges and spin densities:
               1          2
     1  C    0.733030   0.055725
     2  C    0.271542   0.103690
     3  C   -0.436033   0.033673
     4  O   -0.387097   0.226944
     5  C    0.853435   0.098083
     6  C    0.101724  -0.012580
     7  C   -0.288819   0.070711
     8  C   -0.364962   0.003616
     9  C    0.014799   0.067226
    10  C   -0.294466  -0.028516
    11  C   -1.573216   0.152175
    12  O   -0.401633   0.242746
    13  H    0.240236  -0.009066
    14  H    0.149382  -0.000481
    15  H    0.124090  -0.005199
    16  H    0.121301  -0.000769
    17  H    0.158167  -0.003554
    18  N   -0.238201   0.000254
    19  C    0.056161   0.001055
    20  N   -0.231832   0.001178
    21  C   -0.217187  -0.000433
    22  O   -0.398332   0.006302
    23  H    0.351153  -0.003508
    24  H    0.225478  -0.000043
    25  H    0.189172  -0.000049
    26  H    0.121133   0.000409
    27  H    0.120971   0.000411
 Sum of Mulliken charges =  -1.00000   1.00000

 Dipole moment (field-independent basis, Debye):
    X=              6.1117    Y=              6.2655    Z=              1.7265  Tot=              8.9213
 Quadrupole moment (field-independent basis, Debye-Ang):
   XX=           -118.8987   YY=           -136.2459   ZZ=           -109.1222
   XY=             -2.9024   XZ=             -0.2383   YZ=            -10.2825

  Exact polarizability: 301.436  -9.798 196.454  -9.501  35.278 109.697
 Approx polarizability: 400.811  16.738 358.799  -1.649  73.183 175.129

 ******    1 imaginary frequencies (negative Signs) ******

                      1                      2                      3
                      A                      A                      A
 Frequencies --   -123.8555                30.7419                52.5204
 Red. masses --      2.0080                 5.2987                 5.3054
 Frc consts  --      0.0181                 0.0030                 0.0086
 IR Inten    --     21.5434                 0.8471                 4.5973

                      4                      5                      6
                      A                      A                      A
 Frequencies --     90.7379                91.9756               110.6727
 Red. masses --      3.1414                 4.9526                 1.9480
 Frc consts  --      0.0152                 0.0247                 0.0141
 IR Inten    --      1.6120                 4.6872                16.9148

                      7                      8                      9
                      A                      A                      A
 Frequencies --    138.0380               178.6700               240.9741
 Red. masses --      4.4786                 7.6373                 5.9096
 Frc consts  --      0.0503                 0.1436                 0.2022
 IR Inten    --      0.7896                 1.3596                 1.4538

                     10                     11                     12
                      A                      A                      A
 Frequencies --    246.2323               254.5287               277.8775
 Red. masses --      5.3786                 5.7682                 1.1269
 Frc consts  --      0.1921                 0.2202                 0.0513
 IR Inten    --      0.3100                 0.1419                45.0008

                     13                     14                     15
                      A                      A                      A
 Frequencies --    291.7846               364.5807               383.9115
 Red. masses --      6.0833                 6.2596                 9.1854
 Frc consts  --      0.3052                 0.4902                 0.7976
 IR Inten    --      6.6721                33.2609                 2.2543

                     16                     17                     18
                      A                      A                      A
 Frequencies --    396.6020               446.5149               471.6835
 Red. masses --      4.9731                 4.0121                 9.8860
 Frc consts  --      0.4609                 0.4713                 1.2959
 IR Inten    --      1.3145                 1.1317                 3.9408

                     19                     20                     21
                      A                      A                      A
 Frequencies --    491.0116               509.3143               578.9743
 Red. masses --      8.1393                 3.9270                 6.7942
 Frc consts  --      1.1562                 0.6002                 1.3419
 IR Inten    --      1.1799                 0.3186                10.4301

                     22                     23                     24
                      A                      A                      A
 Frequencies --    651.0395               665.5936               695.9231
 Red. masses --      6.1124                 3.5674                 5.8227
 Frc consts  --      1.5264                 0.9312                 1.6615
 IR Inten    --      1.7535                 3.7126                 4.6346

                     25                     26                     27
                      A                      A                      A
 Frequencies --    701.5359               711.8857               727.6021
 Red. masses --      1.5773                 2.9533                 6.5755
 Frc consts  --      0.4574                 0.8818                 2.0510
 IR Inten    --    102.8713                13.2438                19.2792

                     28                     29                     30
                      A                      A                      A
 Frequencies --    749.8837               769.0729               776.0621
 Red. masses --      5.1405                 2.0189                 2.3400
 Frc consts  --      1.7031                 0.7036                 0.8303
 IR Inten    --     10.1770                41.9280                 6.2100

                     31                     32                     33
                      A                      A                      A
 Frequencies --    785.7310               836.9049               866.3378
 Red. masses --      4.2348                 4.4159                 1.4495
 Frc consts  --      1.5404                 1.8223                 0.6410
 IR Inten    --      0.8888                 0.6073                 0.2326

                     34                     35                     36
                      A                      A                      A
 Frequencies --    884.2406               960.2237               972.7178
 Red. masses --      1.4394                 4.1039                 1.3222
 Frc consts  --      0.6631                 2.2294                 0.7371
 IR Inten    --     29.6031                59.5195                 1.6163

                     37                     38                     39
                      A                      A                      A
 Frequencies --    979.8851              1005.1123              1038.8084
 Red. masses --      1.2901                 5.7111                 2.1036
 Frc consts  --      0.7299                 3.3993                 1.3375
 IR Inten    --      1.0690                 6.6057                24.3954

                     40                     41                     42
                      A                      A                      A
 Frequencies --   1095.1611              1127.7021              1144.4304
 Red. masses --      2.8903                 2.6841                 2.0896
 Frc consts  --      2.0424                 2.0111                 1.6125
 IR Inten    --      4.8737                 5.1879                80.5873

                     43                     44                     45
                      A                      A                      A
 Frequencies --   1149.7096              1155.9754              1156.5178
 Red. masses --      1.2618                 1.5568                 1.3378
 Frc consts  --      0.9827                 1.2257                 1.0542
 IR Inten    --      0.1731                14.6952                 0.4175

                     46                     47                     48
                      A                      A                      A
 Frequencies --   1208.6527              1217.0353              1241.0463
 Red. masses --      1.8017                 2.7010                 2.9270
 Frc consts  --      1.5508                 2.3571                 2.6561
 IR Inten    --    307.0124                86.8750                25.7204

                     49                     50                     51
                      A                      A                      A
 Frequencies --   1250.1473              1291.2994              1352.7609
 Red. masses --      2.3753                 1.8458                 9.9559
 Frc consts  --      2.1872                 1.8134                10.7342
 IR Inten    --     31.2496                69.5024                12.2146

                     52                     53                     54
                      A                      A                      A
 Frequencies --   1391.4427              1435.7852              1463.2151
 Red. masses --      3.0211                 1.1852                 3.1240
 Frc consts  --      3.4463                 1.4395                 3.9408
 IR Inten    --     19.0661                35.2313               178.2489

                     55                     56                     57
                      A                      A                      A
 Frequencies --   1472.6823              1492.8381              1500.5709
 Red. masses --      2.8136                 1.2599                 1.0438
 Frc consts  --      3.5953                 1.6543                 1.3848
 IR Inten    --     49.4239               197.1384                 4.3769

                     58                     59                     60
                      A                      A                      A
 Frequencies --   1510.8857              1538.0954              1550.3514
 Red. masses --      6.3502                 3.2172                 2.2828
 Frc consts  --      8.5408                 4.4843                 3.2328
 IR Inten    --    429.9401               403.0274                17.6469

                     61                     62                     63
                      A                      A                      A
 Frequencies --   1557.9191              1566.0177              1617.2724
 Red. masses --      3.4137                 2.2608                 6.6499
 Frc consts  --      4.8817                 3.2667                10.2479
 IR Inten    --    284.6413               873.7613                 0.2275

                     64                     65                     66
                      A                      A                      A
 Frequencies --   1632.3498              1729.2608              2987.5173
 Red. masses --      6.4721                 7.4417                 1.0390
 Frc consts  --     10.1607                13.1112                 5.4635
 IR Inten    --     13.3372               306.8418               195.9433

                     67                     68                     69
                      A                      A                      A
 Frequencies --   3021.0320              3123.7286              3132.7374
 Red. masses --      1.1045                 1.0933                 1.0846
 Frc consts  --      5.9390                 6.2855                 6.2715
 IR Inten    --     63.0392                 1.8095                16.1307

                     70                     71                     72
                      A                      A                      A
 Frequencies --   3152.0965              3179.9192              3182.7065
 Red. masses --      1.0911                 1.0914                 1.0929
 Frc consts  --      6.3870                 6.5020                 6.5228
 IR Inten    --     50.4572                13.3124                26.4546

                     73                     74                     75
                      A                      A                      A
 Frequencies --   3219.5246              3440.3927              3640.7611
 Red. masses --      1.0901                 1.0759                 1.0771
 Frc consts  --      6.6571                 7.5027                 8.4119
 IR Inten    --      1.3397               117.9136                15.2922

 - Thermochemistry -
 -------------------
 Temperature   298.150 Kelvin.  Pressure   1.00000 Atm.
 Atom     1 has atomic number  6 and mass  12.00000

 Molecular mass:   230.06914 amu.
 Principal axes and moments of inertia in atomic units:
                           1         2         3
     Eigenvalues --  1592.455947127.548978708.57743
           X            0.98650   0.16139   0.02759
           Y           -0.14327   0.93243  -0.33175
           Z           -0.07927   0.32332   0.94296
 This molecule is an asymmetric top.
 Rotational symmetry number  1.
 Warning -- assumption of classical behavior for rotation
           may cause significant error
 Rotational temperatures (Kelvin)      0.05439     0.01215     0.00995
 Rotational constants (GHZ):           1.13331     0.25321     0.20724
    1 imaginary frequencies ignored.
 Zero-point vibrational energy     528482.9 (Joules/Mol)
                                  126.31045 (Kcal/Mol)
 Warning -- explicit consideration of  20 degrees of freedom as
           vibrations may cause significant error
 Vibrational temperatures:     44.23    75.57   130.55   132.33   159.23
          (Kelvin)            198.61   257.07   346.71   354.27   366.21
                              399.80   419.81   524.55   552.36   570.62
                              642.44   678.65   706.46   732.79   833.01
                              936.70   957.64  1001.28  1009.35  1024.24
                             1046.86  1078.92  1106.52  1116.58  1130.49
                             1204.12  1246.47  1272.23  1381.55  1399.52
                             1409.84  1446.13  1494.61  1575.69  1622.51
                             1646.58  1654.18  1663.19  1663.97  1738.98
                             1751.04  1785.59  1798.68  1857.89  1946.32
                             2001.98  2065.77  2105.24  2118.86  2147.86
                             2158.99  2173.83  2212.98  2230.61  2241.50
                             2253.15  2326.89  2348.59  2488.02  4298.37
                             4346.59  4494.35  4507.31  4535.16  4575.19
                             4579.20  4632.18  4949.96  5238.24

 Zero-point correction=                           0.201289 (Hartree/Particle)
 Thermal correction to Energy=                    0.215469
 Thermal correction to Enthalpy=                  0.216413
 Thermal correction to Gibbs Free Energy=         0.158486
 Sum of electronic and zero-point Energies=           -798.598761
 Sum of electronic and thermal Energies=              -798.584581
 Sum of electronic and thermal Enthalpies=            -798.583637
 Sum of electronic and thermal Free Energies=         -798.641564

                     E (Thermal)             CV                S
                      KCal/Mol        Cal/Mol-Kelvin    Cal/Mol-Kelvin
 Total                  135.209             54.014            121.916
 Electronic               0.000              0.000              1.377
 Translational            0.889              2.981             42.202
 Rotational               0.889              2.981             32.958
 Vibrational            133.431             48.053             45.380
 Vibration     1          0.594              1.984              5.781
 Vibration     2          0.596              1.977              4.720
 Vibration     3          0.602              1.956              3.644
 Vibration     4          0.602              1.955              3.618
 Vibration     5          0.607              1.941              3.257
 Vibration     6          0.614              1.915              2.831
 Vibration     7          0.629              1.869              2.342
 Vibration     8          0.658              1.778              1.796
 Vibration     9          0.661              1.769              1.757
 Vibration    10          0.665              1.755              1.699
 Vibration    11          0.679              1.714              1.547
 Vibration    12          0.687              1.689              1.464
 Vibration    13          0.738              1.545              1.103
 Vibration    14          0.753              1.505              1.024
 Vibration    15          0.763              1.477              0.975
 Vibration    16          0.806              1.369              0.806
 Vibration    17          0.829              1.313              0.733
 Vibration    18          0.847              1.270              0.681
 Vibration    19          0.864              1.229              0.635
 Vibration    20          0.936              1.077              0.487

                           ! Non-Optimized Parameters !
 Normal termination of Gaussian 16 at Tue Dec 26 23:08:16 2023.
