 Q-Chem 5.4, Q-Chem, Inc., Pleasanton, CA (2021)
 Q-Chem 5.4.0 for Intel X86 EM64T Linux

User input:
--------------------------------------------------------------
$molecule
-2 1
N                 -2.9260460000     -2.5947260000     -0.1104500000
C                 -2.6120180000     -1.2330640000      0.1222620000
C                 -3.6165580000     -0.3658210000      0.5143000000
C                 -3.3636340000      1.0098500000      0.6691830000
C                 -2.1065310000      1.5485230000      0.4466550000
N                 -1.9301210000      2.9499840000      0.5639450000
C                 -1.0101290000      0.6855510000      0.0864450000
C                  0.3382840000      1.2481280000     -0.0488150000
O                  0.5611770000      2.5182480000     -0.0341260000
C                  1.4013340000      0.3142340000     -0.2024060000
C                  1.1367710000     -1.0849090000     -0.4830920000
C                  2.1773280000     -1.9176070000     -0.9136320000
C                  3.4814690000     -1.4580600000     -1.0564970000
C                  3.7860090000     -0.1374130000     -0.6817730000
C                  2.7928290000      0.7047970000     -0.2167230000
N                  3.2898580000      1.9028520000      0.4267350000
O                  2.7970880000      2.2517140000      1.5074920000
O                  4.2638760000      2.5102820000     -0.1012420000
C                 -0.1966320000     -1.6536030000     -0.3990710000
O                 -0.3776090000     -2.9128160000     -0.6151870000
C                 -1.2740940000     -0.7353920000     -0.0779530000
H                 -3.5142310000     -2.9805660000      0.6172900000
H                 -2.0516540000     -3.1184640000     -0.2618140000
H                 -4.6253700000     -0.7526780000      0.6477020000
H                 -4.1783480000      1.6839310000      0.9279930000
H                 -2.3164650000      3.3055980000      1.4297530000
H                 -0.9201400000      3.1563710000      0.4513360000
H                  1.9140600000     -2.9459790000     -1.1373220000
H                  4.2723900000     -2.1231440000     -1.3927600000
H                  4.8071050000      0.2241820000     -0.6782290000
$end
$rem
MAX_SCF_CYCLES=200
BASIS  =  6-311++G(d,p)
GUI  =  2
JOB_TYPE  =  SP
METHOD  =  B3LYP
SOLVENT_METHOD = COSMO
$end
$solvent
dielectric 37.219
opticaldielectric 1.43
$end

--------------------------------------------------------------

             Standard Nuclear Orientation (Angstroms)
    I     Atom           X                Y                Z
 ----------------------------------------------------------------
    1      N       3.8377798901    -1.8820868842    -0.1944670444
    2      C       3.1980083807    -0.6198310176    -0.1289353351
    3      C       3.9657965252     0.5300999272    -0.1842978983
    4      C       3.3774432785     1.7995456815    -0.0333743164
    5      C       2.0146570551     1.9512805324     0.1660887345
    6      N       1.4916407329     3.2530398581     0.3681950219
    7      C       1.1587266350     0.7920902469     0.1812630665
    8      C      -0.2938581178     0.9675170067     0.2918467682
    9      O      -0.8333763772     2.1086489271     0.5561190873
   10      C      -1.0888691159    -0.1964831637     0.0946549395
   11      C      -0.4897082535    -1.5179351967     0.0607413501
   12      C      -1.3030766981    -2.6539830337     0.1573674672
   13      C      -2.6869414448    -2.5666496400     0.2556977388
   14      C      -3.2997904802    -1.3036103935     0.1755784020
   15      C      -2.5328258187    -0.1607811846     0.0425283877
   16      N      -3.2863636444     1.0122557541    -0.3480825355
   17      O      -2.8446833362     1.7359467063    -1.2501648888
   18      O      -4.4091043612     1.2152616750     0.1947653811
   19      C       0.9473313011    -1.7159515533    -0.0036232015
   20      O       1.4332902816    -2.9091401862    -0.0758792391
   21      C       1.7688393079    -0.5196445553     0.0299436432
   22      H       4.5415643247    -1.9160408741    -0.9210853786
   23      H       3.1200155581    -2.6171087956    -0.2740351054
   24      H       5.0454806919     0.4391156538    -0.2899390157
   25      H       4.0046129962     2.6893539038    -0.0282571660
   26      H       1.8178599679     3.9021315827    -0.3372179352
   27      H       0.4580855065     3.1801362867     0.4104639728
   28      H      -0.7971538668    -3.6136383031     0.1570861071
   29      H      -3.2974082753    -3.4626154338     0.3301363420
   30      H      -4.3778607347    -1.2035140319     0.1417288840
 ----------------------------------------------------------------

   13   -1004.2658976354      4.21e-06  Convergence criterion met
 Total energy in the final basis set =    -1004.2658976354
    7   -1004.5301741516      5.57e-06  Convergence criterion met
 Total energy in the final basis set =    -1004.5301741516

                    Orbital Energies (a.u.)
 --------------------------------------------------------------

 Alpha MOs
 -- Occupied --
-19.1239 -19.1161 -19.0571 -19.0400 -14.4985 -14.2848 -14.2773 -10.2126
-10.2053 -10.1956 -10.1941 -10.1885 -10.1766 -10.1670 -10.1643 -10.1622
-10.1616 -10.1584 -10.1540 -10.1517 -10.1488  -1.1806  -1.0083  -0.9781
 -0.9639  -0.8914  -0.8790  -0.8558  -0.8075  -0.7815  -0.7647  -0.7256
 -0.7009  -0.6777  -0.6490  -0.6156  -0.6112  -0.5575  -0.5444  -0.5359
 -0.5141  -0.5025  -0.4924  -0.4888  -0.4794  -0.4624  -0.4574  -0.4519
 -0.4432  -0.4285  -0.4227  -0.4045  -0.3981  -0.3881  -0.3740  -0.3698
 -0.3640  -0.3605  -0.3545  -0.3393  -0.3357  -0.3265  -0.3135  -0.2915
 -0.2884  -0.2755  -0.2604  -0.2457  -0.2388  -0.2325  -0.2277  -0.2147
 -0.1841  -0.1229

          Ground-State Mulliken Net Atomic Charges

     Atom                 Charge (a.u.)
  ----------------------------------------
      1 N                    -0.501206
      2 C                    -0.137379
      3 C                    -0.380321
      4 C                    -0.458431
      5 C                    -0.455110
      6 N                    -0.491868
      7 C                     0.691184
      8 C                    -0.550366
      9 O                    -0.571783
     10 C                    -0.012361
     11 C                     0.529917
     12 C                    -0.099946
     13 C                    -0.690209
     14 C                     0.066104
     15 C                    -0.339311
     16 N                    -0.116130
     17 O                    -0.177184
     18 O                    -0.236210
     19 C                    -0.277496
     20 O                    -0.560125
     21 C                     0.603858
     22 H                     0.269256
     23 H                     0.318181
     24 H                     0.183665
     25 H                     0.185930
     26 H                     0.261314
     27 H                     0.323155
     28 H                     0.185023
     29 H                     0.198898
     30 H                     0.238953
  ----------------------------------------
  Sum of atomic charges =    -2.000000

                    Cartesian Multipole Moments
 -----------------------------------------------------------------
    Charge (ESU x 10^10)
                -9.6064
    Dipole Moment (Debye)
         X       6.7297      Y      -4.7680      Z      -2.8135
       Tot       8.7143
    Quadrupole Moments (Debye-Ang)
        XX    -186.3368     XY      35.0898     YY    -170.2498
        XZ     -11.6115     YZ      -3.1846     ZZ    -136.6742

 Total job time:  119.79s(wall), 902.11s(cpu)
        *  Thank you very much for using Q-Chem.  Have a nice day.  *
