 Gaussian 16, Revision A.03,
 Gaussian 16:  ES64L-G16RevA.03 25-Dec-2016

 --------------------------------------
 #P UB3LYP/6-311++G(d,p) nosym opt freq
 --------------------------------------

 -------
 Radical
 -------
 Symbolic Z-matrix:
 Charge = -1 Multiplicity = 2

 SCF Done:  E(UB3LYP) =  -765.377972293     A.U. after   22 cycles
 SCF Done:  E(UB3LYP) =  -765.424251861     A.U. after   18 cycles
 SCF Done:  E(UB3LYP) =  -765.462735472     A.U. after   18 cycles
 SCF Done:  E(UB3LYP) =  -765.470777012     A.U. after   17 cycles
 SCF Done:  E(UB3LYP) =  -765.472985064     A.U. after   17 cycles
 SCF Done:  E(UB3LYP) =  -765.473585536     A.U. after   16 cycles
 SCF Done:  E(UB3LYP) =  -765.474000531     A.U. after   16 cycles
 SCF Done:  E(UB3LYP) =  -765.473969196     A.U. after   16 cycles
 SCF Done:  E(UB3LYP) =  -765.474074721     A.U. after   15 cycles
 SCF Done:  E(UB3LYP) =  -765.474124089     A.U. after   14 cycles
 SCF Done:  E(UB3LYP) =  -765.474290507     A.U. after   16 cycles
 SCF Done:  E(UB3LYP) =  -765.473789287     A.U. after   22 cycles
 SCF Done:  E(UB3LYP) =  -765.474696108     A.U. after   18 cycles
 SCF Done:  E(UB3LYP) =  -765.474967908     A.U. after   19 cycles
 SCF Done:  E(UB3LYP) =  -765.475298140     A.U. after   18 cycles
 SCF Done:  E(UB3LYP) =  -765.475258526     A.U. after   18 cycles
 SCF Done:  E(UB3LYP) =  -765.475374171     A.U. after   17 cycles
 SCF Done:  E(UB3LYP) =  -765.475377252     A.U. after   15 cycles
 SCF Done:  E(UB3LYP) =  -765.475377449     A.U. after   15 cycles
 Optimization completed.
    -- Stationary point found.
 Normal termination of Gaussian 16 at Sat Jan  6 02:56:51 2024.

 ----------------------------------------------------------------------
 #P Geom=AllCheck Guess=TCheck SCRF=Check GenChk UB3LYP/6-311++G(d,p) F
 req
 ----------------------------------------------------------------------

 Structure from the checkpoint file:  "340-rad.chk"
 -------
 Radical
 -------
 Charge = -1 Multiplicity = 2

                          Input orientation:
 ---------------------------------------------------------------------
 Center     Atomic      Atomic             Coordinates (Angstroms)
 Number     Number       Type             X           Y           Z
 ---------------------------------------------------------------------
      1          8           0        2.268361    2.767871   -0.235007
      2          6           0        2.361036    1.418887   -0.153472
      3          6           0        3.613404    0.833517    0.011540
      4          6           0        3.737774   -0.556023    0.114032
      5          6           0        2.600136   -1.364798    0.031626
      6          6           0        1.340024   -0.800931   -0.150959
      7          6           0        0.123975   -1.668973   -0.384620
      8          6           0       -1.189103   -1.022817   -0.003576
      9          6           0       -2.302702   -1.794976    0.317325
     10          6           0       -3.546153   -1.195036    0.538528
     11          6           0       -3.677469    0.193895    0.436593
     12          6           0       -2.573163    0.986077    0.134314
     13          8           0       -2.725678    2.329665    0.056448
     14          6           0       -1.291572    0.389988   -0.083845
     15          6           0       -0.124308    1.211958   -0.308189
     16          8           0       -0.246771    2.520354   -0.437226
     17          6           0        1.185783    0.607470   -0.228304
     18          1           0        1.285910    2.956107   -0.338426
     19          1           0        4.480025    1.483653    0.069086
     20          1           0        4.717199   -1.002815    0.252686
     21          1           0        2.696130   -2.445550    0.094384
     22          1           0        0.238134   -2.631881    0.124909
     23          1           0        0.081730   -1.905320   -1.464542
     24          1           0       -2.201853   -2.875304    0.379720
     25          1           0       -4.410637   -1.803550    0.784526
     26          1           0       -4.631288    0.684273    0.600273
     27          1           0       -1.808924    2.684259   -0.157824
 ---------------------------------------------------------------------

 SCF Done:  E(UB3LYP) =  -765.475377449     A.U. after    2 cycles

 Alpha  occ. eigenvalues --  -18.99688 -18.99683 -18.95367 -10.10333 -10.10333
 Alpha  occ. eigenvalues --  -10.08852 -10.06186 -10.05733 -10.05732 -10.05179
 Alpha  occ. eigenvalues --  -10.05179 -10.04540 -10.04538 -10.04416 -10.04416
 Alpha  occ. eigenvalues --  -10.04094 -10.04092  -0.92121  -0.91437  -0.85598
 Alpha  occ. eigenvalues --   -0.74343  -0.72065  -0.66982  -0.63363  -0.61916
 Alpha  occ. eigenvalues --   -0.60882  -0.56989  -0.51884  -0.50545  -0.46239
 Alpha  occ. eigenvalues --   -0.46227  -0.43545  -0.39658  -0.39078  -0.38916
 Alpha  occ. eigenvalues --   -0.35147  -0.34489  -0.33502  -0.32313  -0.31262
 Alpha  occ. eigenvalues --   -0.29032  -0.28829  -0.28555  -0.28210  -0.27609
 Alpha  occ. eigenvalues --   -0.26708  -0.26189  -0.24475  -0.24317  -0.23240
 Alpha  occ. eigenvalues --   -0.21862  -0.20604  -0.20446  -0.20238  -0.13770
 Alpha  occ. eigenvalues --   -0.12840  -0.12214  -0.10048  -0.09607   0.00574
 Alpha virt. eigenvalues --    0.08042   0.08518   0.09610   0.10119   0.10303
 Alpha virt. eigenvalues --    0.10708   0.11213   0.12610   0.12771   0.12923
 Alpha virt. eigenvalues --    0.13119   0.14517   0.15769   0.15892   0.16107

  Beta  occ. eigenvalues --  -18.99610 -18.99605 -18.94818 -10.10182 -10.10182
  Beta  occ. eigenvalues --  -10.08319 -10.06218 -10.05508 -10.05507 -10.04959
  Beta  occ. eigenvalues --  -10.04958 -10.04651 -10.04650 -10.04512 -10.04511
  Beta  occ. eigenvalues --  -10.04148 -10.04146  -0.91862  -0.91270  -0.84598
  Beta  occ. eigenvalues --   -0.74070  -0.71868  -0.66709  -0.63000  -0.61701
  Beta  occ. eigenvalues --   -0.60745  -0.56821  -0.51328  -0.50261  -0.46106
  Beta  occ. eigenvalues --   -0.45922  -0.43333  -0.39516  -0.38984  -0.38668
  Beta  occ. eigenvalues --   -0.34965  -0.34297  -0.33418  -0.31841  -0.31081
  Beta  occ. eigenvalues --   -0.28643  -0.28641  -0.28228  -0.27606  -0.27111
  Beta  occ. eigenvalues --   -0.26603  -0.26035  -0.24279  -0.24199  -0.21586
  Beta  occ. eigenvalues --   -0.21003  -0.20447  -0.20001  -0.19641  -0.12251
  Beta  occ. eigenvalues --   -0.12043  -0.11772  -0.09578  -0.09289
  Beta virt. eigenvalues --    0.06787   0.08040   0.08506   0.09610   0.10579
  Beta virt. eigenvalues --    0.10653   0.11132   0.11295   0.12601   0.13018
  Beta virt. eigenvalues --    0.13142   0.13502   0.14600   0.15772   0.15951

 Mulliken charges and spin densities:
               1          2
     1  O   -0.354530   0.022605
     2  C   -0.181252   0.127103
     3  C   -0.256898  -0.051320
     4  C   -0.189417   0.182306
     5  C   -0.137370  -0.065739
     6  C    0.000663   0.051867
     7  C   -0.903680   0.211585
     8  C    0.001196   0.051785
     9  C   -0.137805  -0.065649
    10  C   -0.189430   0.182033
    11  C   -0.257294  -0.051221
    12  C   -0.180928   0.126937
    13  O   -0.354781   0.022613
    14  C    0.822908  -0.160851
    15  C   -0.704674   0.366625
    16  O   -0.517447   0.186033
    17  C    0.823476  -0.160889
    18  H    0.378310  -0.002538
    19  H    0.134694   0.002105
    20  H    0.123528  -0.013414
    21  H    0.111491   0.005526
    22  H    0.045982   0.003236
    23  H    0.174960   0.037573
    24  H    0.111501   0.005522
    25  H    0.123521  -0.013394
    26  H    0.134682   0.002101
    27  H    0.378595  -0.002539
 Sum of Mulliken charges =  -1.00000   1.00000

 Dipole moment (field-independent basis, Debye):
    X=              0.5562    Y=             -6.1480    Z=              0.2739  Tot=              6.1791
 Quadrupole moment (field-independent basis, Debye-Ang):
   XX=           -134.5313   YY=           -123.1875   ZZ=           -108.3028
   XY=             -0.8981   XZ=              1.3774   YZ=              1.8505

  Exact polarizability: 342.256  11.269 211.804 -13.185  -5.403 109.584
 Approx polarizability: 508.928  10.727 378.014 -18.274 -15.423 174.047

                      1                      2                      3
                      A                      A                      A
 Frequencies --     55.7856                78.7253               130.4774
 Red. masses --      4.7894                 6.9830                 7.6951
 Frc consts  --      0.0088                 0.0255                 0.0772
 IR Inten    --      0.0830                 0.2136                 0.0996

                      4                      5                      6
                      A                      A                      A
 Frequencies --    208.1239               212.9367               239.7323
 Red. masses --      3.8273                 4.3707                 5.0423
 Frc consts  --      0.0977                 0.1168                 0.1707
 IR Inten    --      0.9936                 0.0790                 0.6542

                      7                      8                      9
                      A                      A                      A
 Frequencies --    249.7126               273.2205               335.4734
 Red. masses --      3.2786                 5.9209                 6.4203
 Frc consts  --      0.1205                 0.2604                 0.4257
 IR Inten    --      2.1621                 0.0063                 5.7859

                     10                     11                     12
                      A                      A                      A
 Frequencies --    347.6918               420.6966               440.3608
 Red. masses --      6.3902                 4.2769                11.2368
 Frc consts  --      0.4552                 0.4460                 1.2838
 IR Inten    --      1.5941                 0.8601                24.1205

                     13                     14                     15
                      A                      A                      A
 Frequencies --    483.5764               494.0410               506.7048
 Red. masses --      5.2805                 7.6364                 4.2832
 Frc consts  --      0.7275                 1.0982                 0.6479
 IR Inten    --      6.3863                 0.8950                 0.0997

                     16                     17                     18
                      A                      A                      A
 Frequencies --    511.8640               549.5998               553.9212
 Red. masses --      5.6022                 3.6265                 7.2501
 Frc consts  --      0.8648                 0.6454                 1.3107
 IR Inten    --      2.7710                 3.1346                 2.2220

                     19                     20                     21
                      A                      A                      A
 Frequencies --    577.6263               599.9079               605.8608
 Red. masses --      4.2580                 4.6195                 4.9107
 Frc consts  --      0.8370                 0.9795                 1.0620
 IR Inten    --      0.0275                 1.5197                 1.1360

                     22                     23                     24
                      A                      A                      A
 Frequencies --    615.9081               657.7828               713.2612
 Red. masses --      7.8702                 5.1598                 1.7442
 Frc consts  --      1.7590                 1.3154                 0.5228
 IR Inten    --     17.1857                 5.6232                 5.5881

                     25                     26                     27
                      A                      A                      A
 Frequencies --    727.7925               758.8447               759.7877
 Red. masses --      1.4550                 2.5564                 3.5734
 Frc consts  --      0.4541                 0.8673                 1.2154
 IR Inten    --    107.2329                 1.3769                16.8797

                     28                     29                     30
                      A                      A                      A
 Frequencies --    774.6343               806.4280               856.2480
 Red. masses --      6.2747                 5.9885                 1.4922
 Frc consts  --      2.2184                 2.2946                 0.6446
 IR Inten    --     97.4243                 1.3898                 8.2412

                     31                     32                     33
                      A                      A                      A
 Frequencies --    859.7597               899.0515               900.4277
 Red. masses --      1.4254                 1.2620                 1.2484
 Frc consts  --      0.6208                 0.6010                 0.5963
 IR Inten    --      0.8242                 7.9665                 0.0477

                     34                     35                     36
                      A                      A                      A
 Frequencies --    919.3441               945.3681               950.2482
 Red. masses --      5.6404                 1.0489                 2.0490
 Frc consts  --      2.8088                 0.5523                 1.0901
 IR Inten    --      2.8933                 4.0902                26.3345

                     37                     38                     39
                      A                      A                      A
 Frequencies --    960.1430              1017.2825              1034.0937
 Red. masses --      1.0963                 4.1733                 3.8457
 Frc consts  --      0.5954                 2.5446                 2.4230
 IR Inten    --    119.0302                 2.5065                 8.3710

                     40                     41                     42
                      A                      A                      A
 Frequencies --   1067.7183              1075.8863              1157.8819
 Red. masses --      1.8851                 2.5470                 2.8576
 Frc consts  --      1.2662                 1.7371                 2.2573
 IR Inten    --     98.9553                64.4899                23.5918

                     43                     44                     45
                      A                      A                      A
 Frequencies --   1166.0587              1166.5956              1191.5155
 Red. masses --      1.3258                 1.2250                 1.2420
 Frc consts  --      1.0621                 0.9823                 1.0389
 IR Inten    --      1.4649                11.6378                 4.9383

                     46                     47                     48
                      A                      A                      A
 Frequencies --   1233.8341              1242.6026              1276.8361
 Red. masses --      2.0358                 1.2718                 3.7577
 Frc consts  --      1.8260                 1.1570                 3.6095
 IR Inten    --      0.0507                 2.0323               210.7958

                     49                     50                     51
                      A                      A                      A
 Frequencies --   1288.5091              1292.5509              1296.9860
 Red. masses --      5.0708                 1.9405                 6.0143
 Frc consts  --      4.9603                 1.9101                 5.9609
 IR Inten    --    148.4574               176.8548                58.7053

                     52                     53                     54
                      A                      A                      A
 Frequencies --   1334.8799              1346.2576              1379.9637
 Red. masses --      5.7490                 8.1142                 4.7538
 Frc consts  --      6.0356                 8.6647                 5.3337
 IR Inten    --     24.4964                56.7850               180.0142

                     55                     56                     57
                      A                      A                      A
 Frequencies --   1422.4313              1433.7004              1461.9362
 Red. masses --      2.1530                 2.8018                 1.1155
 Frc consts  --      2.5666                 3.3931                 1.4046
 IR Inten    --    157.3332                 7.0093                 1.0674

                     58                     59                     60
                      A                      A                      A
 Frequencies --   1483.9699              1492.4253              1529.9686
 Red. masses --      2.7051                 2.6808                 2.4481
 Frc consts  --      3.5098                 3.5180                 3.3763
 IR Inten    --      7.7484               287.3658                21.1305

                     61                     62                     63
                      A                      A                      A
 Frequencies --   1566.8875              1574.2496              1604.1797
 Red. masses --      2.9743                 4.5004                 4.1621
 Frc consts  --      4.3024                 6.5713                 6.3106
 IR Inten    --      4.6763               218.7813               324.3662

                     64                     65                     66
                      A                      A                      A
 Frequencies --   1615.9873              1664.0018              2880.2273
 Red. masses --      2.3521                 2.2455                 1.0752
 Frc consts  --      3.6189                 3.6633                 5.2555
 IR Inten    --      4.3970                 1.0314               114.6889

                     67                     68                     69
                      A                      A                      A
 Frequencies --   2948.3787              3026.8946              3028.2435
 Red. masses --      1.0712                 1.0833                 1.0733
 Frc consts  --      5.4862                 5.8476                 5.7988
 IR Inten    --    786.6844                37.6283                21.1409

                     70                     71                     72
                      A                      A                      A
 Frequencies --   3129.9610              3130.7238              3151.3764
 Red. masses --      1.0853                 1.0855                 1.0893
 Frc consts  --      6.2643                 6.2687                 6.3736
 IR Inten    --      0.8570                23.6056                 2.6042

                     73                     74                     75
                      A                      A                      A
 Frequencies --   3151.5912              3170.2890              3170.6067
 Red. masses --      1.0893                 1.0944                 1.0943
 Frc consts  --      6.3749                 6.4807                 6.4814
 IR Inten    --     75.7559                91.4655                 2.1930

 - Thermochemistry -
 -------------------
 Temperature   298.150 Kelvin.  Pressure   1.00000 Atm.
 Atom     1 has atomic number  8 and mass  15.99491

 Molecular mass:   226.06299 amu.
 Principal axes and moments of inertia in atomic units:
                           1         2         3
     Eigenvalues --  1931.151874749.453346590.97734
           X            0.99450  -0.09081   0.05226
           Y            0.08727   0.99397   0.06644
           Z           -0.05798  -0.06151   0.99642
 This molecule is an asymmetric top.
 Rotational symmetry number  1.
 Warning -- assumption of classical behavior for rotation
           may cause significant error
 Rotational temperatures (Kelvin)      0.04485     0.01824     0.01314
 Rotational constants (GHZ):           0.93454     0.37999     0.27382
 Zero-point vibrational energy     533466.0 (Joules/Mol)
                                  127.50144 (Kcal/Mol)
 Warning -- explicit consideration of  22 degrees of freedom as
           vibrations may cause significant error
 Vibrational temperatures:     80.26   113.27   187.73   299.44   306.37
          (Kelvin)            344.92   359.28   393.10   482.67   500.25
                              605.29   633.58   695.76   710.81   729.04
                              736.46   790.75   796.97   831.08   863.13
                              871.70   886.15   946.40  1026.22  1047.13
                             1091.81  1093.17  1114.53  1160.27  1231.95
                             1237.00  1293.53  1295.51  1322.73  1360.17
                             1367.20  1381.43  1463.64  1487.83  1536.21
                             1547.96  1665.93  1677.70  1678.47  1714.33
                             1775.21  1787.83  1837.08  1853.88  1859.69
                             1866.07  1920.59  1936.96  1985.46  2046.56
                             2062.78  2103.40  2135.10  2147.27  2201.28
                             2254.40  2264.99  2308.06  2325.05  2394.13
                             4144.00  4242.06  4355.03  4356.97  4503.32
                             4504.41  4534.13  4534.44  4561.34  4561.80

 Zero-point correction=                           0.203186 (Hartree/Particle)
 Thermal correction to Energy=                    0.215501
 Thermal correction to Enthalpy=                  0.216446
 Thermal correction to Gibbs Free Energy=         0.164138
 Sum of electronic and zero-point Energies=           -765.272191
 Sum of electronic and thermal Energies=              -765.259876
 Sum of electronic and thermal Enthalpies=            -765.258932
 Sum of electronic and thermal Free Energies=         -765.311240

                     E (Thermal)             CV                S
                      KCal/Mol        Cal/Mol-Kelvin    Cal/Mol-Kelvin
 Total                  135.229             51.623            110.091
 Electronic               0.000              0.000              1.377
 Translational            0.889              2.981             42.149
 Rotational               0.889              2.981             32.469
 Vibrational            133.452             45.661             34.095
 Vibration     1          0.596              1.975              4.601
 Vibration     2          0.600              1.963              3.922
 Vibration     3          0.612              1.923              2.939
 Vibration     4          0.641              1.828              2.060
 Vibration     5          0.644              1.821              2.018
 Vibration     6          0.657              1.780              1.805
 Vibration     7          0.663              1.763              1.733
 Vibration     8          0.676              1.723              1.576
 Vibration     9          0.717              1.605              1.234
 Vibration    10          0.725              1.580              1.177
 Vibration    11          0.783              1.425              0.890
 Vibration    12          0.800              1.382              0.825
 Vibration    13          0.840              1.286              0.700
 Vibration    14          0.850              1.263              0.673
 Vibration    15          0.862              1.235              0.642
 Vibration    16          0.867              1.224              0.629
 Vibration    17          0.905              1.141              0.545
 Vibration    18          0.909              1.131              0.536
 Vibration    19          0.934              1.080              0.490
 Vibration    20          0.958              1.032              0.450
 Vibration    21          0.964              1.019              0.440
 Vibration    22          0.975              0.998              0.423

 Optimization completed.
    -- Stationary point found.
 Normal termination of Gaussian 16 at Sat Jan  6 03:37:24 2024.
