 Gaussian 16, Revision A.03,
 Gaussian 16:  ES64L-G16RevA.03 25-Dec-2016

 ----------------------------------------------
 #P UB3LYP/6-311++G(d,p) nosym opt freq SCF=YQC
 ----------------------------------------------

 -------
 Reduced
 -------
 Symbolic Z-matrix:
 Charge = -2 Multiplicity = 1

 SCF Done:  E(UB3LYP) =  -610.598073460     a.u. after    9 cycles
 SCF Done:  E(UB3LYP) =  -610.613709165     A.U. after   33 cycles
 SCF Done:  E(UB3LYP) =  -610.613709165     a.u. after    1 cycles
 SCF Done:  E(UB3LYP) =  -610.634517237     a.u. after   83 cycles
 SCF Done:  E(UB3LYP) =  -610.635758696     A.U. after   30 cycles
 SCF Done:  E(UB3LYP) =  -610.639543600     a.u. after   50 cycles
 SCF Done:  E(UB3LYP) =  -610.640034983     A.U. after   26 cycles
 SCF Done:  E(UB3LYP) =  -610.641794559     a.u. after   28 cycles
 SCF Done:  E(UB3LYP) =  -610.642095252     A.U. after   26 cycles
 SCF Done:  E(UB3LYP) =  -610.643262038     a.u. after   25 cycles
 SCF Done:  E(UB3LYP) =  -610.647344300     a.u. after    5 cycles
 SCF Done:  E(UB3LYP) =  -610.647390446     A.U. after   23 cycles
 SCF Done:  E(UB3LYP) =  -610.647371100     a.u. after    1 cycles
 SCF Done:  E(UB3LYP) =  -610.647391692     A.U. after   17 cycles
 SCF Done:  E(UB3LYP) =  -610.647384656     a.u. after    1 cycles
 SCF Done:  E(UB3LYP) =  -610.647392208     A.U. after   23 cycles
 SCF Done:  E(UB3LYP) =  -610.647390767     a.u. after    1 cycles
 SCF Done:  E(UB3LYP) =  -610.647392316     A.U. after   20 cycles
 Optimization completed.
    -- Stationary point found.
 Normal termination of Gaussian 16 at Thu Dec 21 02:32:07 2023.

 ----------------------------------------------------------------------
 #P Geom=AllCheck Guess=TCheck SCRF=Check GenChk UB3LYP/6-311++G(d,p) F
 req
 ----------------------------------------------------------------------

 Structure from the checkpoint file:  "086-an.chk"
 -------
 Reduced
 -------
 Charge = -2 Multiplicity = 1

                          Input orientation:
 ---------------------------------------------------------------------
 Center     Atomic      Atomic             Coordinates (Angstroms)
 Number     Number       Type             X           Y           Z
 ---------------------------------------------------------------------
      1          6           0        2.643150    1.434307   -0.213650
      2          8           0        2.475813    0.227313    0.513264
      3          6           0        1.221640   -0.383527    0.334048
      4          6           0        1.233765   -1.709607   -0.093039
      5          6           0        0.043444   -2.494914   -0.244597
      6          8           0        0.049027   -3.728337   -0.640786
      7          6           0       -1.155346   -1.770827    0.063841
      8          6           0       -1.155123   -0.444406    0.490097
      9          8           0       -2.404738    0.102133    0.833798
     10          6           0       -2.727077    1.296828    0.139519
     11          6           0        0.032065    0.343262    0.689498
     12          8           0        0.031723    1.557635    1.158039
     13          1           0        3.633543    1.831000    0.046650
     14          1           0        2.617675    1.242939   -1.300951
     15          1           0        1.861621    2.151323    0.055152
     16          1           0        2.191496   -2.172840   -0.320206
     17          1           0       -2.109686   -2.283048   -0.037661
     18          1           0       -2.835341    1.103581   -0.942318
     19          1           0       -3.693324    1.643786    0.529427
     20          1           0       -1.954326    2.053398    0.305775
 ---------------------------------------------------------------------

 SCF Done:  E(UB3LYP) =  -610.647392316     a.u. after    1 cycles
 SCF Done:  E(UB3LYP) =  -610.647392316     A.U. after    3 cycles

 Alpha  occ. eigenvalues --  -18.87188 -18.87187 -18.76300 -18.75383  -9.96387
 Alpha  occ. eigenvalues --   -9.96386  -9.92781  -9.92781  -9.91984  -9.91621
 Alpha  occ. eigenvalues --   -9.86515  -9.86515  -0.78006  -0.77741  -0.66918
 Alpha  occ. eigenvalues --   -0.66292  -0.52740  -0.47374  -0.43906  -0.40231
 Alpha  occ. eigenvalues --   -0.38709  -0.30855  -0.28932  -0.22734  -0.22337
 Alpha  occ. eigenvalues --   -0.20174  -0.20166  -0.19018  -0.18585  -0.17129
 Alpha  occ. eigenvalues --   -0.15387  -0.10955  -0.09693  -0.09417  -0.08160
 Alpha  occ. eigenvalues --   -0.07831  -0.07444  -0.05164  -0.02752  -0.01309
 Alpha  occ. eigenvalues --    0.04024   0.05347   0.06337   0.07115   0.14343
 Alpha virt. eigenvalues --    0.16438   0.16478   0.19703   0.20896   0.20962
 Alpha virt. eigenvalues --    0.21319   0.22581   0.24325   0.25738   0.27293
 Alpha virt. eigenvalues --    0.27364   0.27901   0.28789   0.29257   0.29959

  Beta  occ. eigenvalues --  -18.87188 -18.87187 -18.76300 -18.75383  -9.96387
  Beta  occ. eigenvalues --   -9.96386  -9.92781  -9.92781  -9.91984  -9.91621
  Beta  occ. eigenvalues --   -9.86515  -9.86515  -0.78006  -0.77741  -0.66918
  Beta  occ. eigenvalues --   -0.66292  -0.52740  -0.47374  -0.43906  -0.40231
  Beta  occ. eigenvalues --   -0.38709  -0.30855  -0.28932  -0.22734  -0.22337
  Beta  occ. eigenvalues --   -0.20174  -0.20166  -0.19018  -0.18585  -0.17129
  Beta  occ. eigenvalues --   -0.15387  -0.10955  -0.09693  -0.09417  -0.08160
  Beta  occ. eigenvalues --   -0.07831  -0.07444  -0.05164  -0.02752  -0.01309
  Beta  occ. eigenvalues --    0.04024   0.05347   0.06337   0.07115   0.14343
  Beta virt. eigenvalues --    0.16438   0.16478   0.19703   0.20896   0.20962
  Beta virt. eigenvalues --    0.21319   0.22581   0.24325   0.25738   0.27293
  Beta virt. eigenvalues --    0.27364   0.27901   0.28789   0.29257   0.29959

 Mulliken charges and spin densities:
               1          2
     1  C    0.135925   0.000000
     2  O   -0.211442  -0.000000
     3  C   -0.924414  -0.000000
     4  C    0.987601   0.000000
     5  C   -1.336611  -0.000000
     6  O   -0.567981   0.000000
     7  C    0.987889  -0.000000
     8  C   -0.923517  -0.000000
     9  O   -0.211433  -0.000000
    10  C    0.135302   0.000000
    11  C    0.632217   0.000000
    12  O   -0.583108   0.000000
    13  H   -0.331811  -0.000000
    14  H   -0.016560  -0.000000
    15  H    0.199397  -0.000000
    16  H    0.088376  -0.000000
    17  H    0.088366  -0.000000
    18  H   -0.016666  -0.000000
    19  H   -0.331121  -0.000000
    20  H    0.199592  -0.000000
 Sum of Mulliken charges =  -2.00000  -0.00000

 Dipole moment (field-independent basis, Debye):
    X=             -0.3632    Y=              7.3924    Z=             -3.2376  Tot=              8.0785
 Quadrupole moment (field-independent basis, Debye-Ang):
   XX=           -124.0637   YY=           -144.6549   ZZ=            -92.3123
   XY=             -0.4725   XZ=              2.4841   YZ=            -14.5272

  Exact polarizability:4739.626 107.367 618.102-296.731   9.216 250.113
 Approx polarizability:2203.620  32.4731036.423-129.765  21.205 249.224

                      1                      2                      3
                      A                      A                      A
 Frequencies --     91.0595                97.2094               100.7744
 Red. masses --      4.1931                 3.7476                 2.7401
 Frc consts  --      0.0205                 0.0209                 0.0164
 IR Inten    --      3.2697                 5.6922                 8.6126

                      4                      5                      6
                      A                      A                      A
 Frequencies --    172.8373               175.7210               180.5144
 Red. masses --      1.1474                 1.6729                 2.0121
 Frc consts  --      0.0202                 0.0304                 0.0386
 IR Inten    --     74.3988                 9.5411                18.2584

                      7                      8                      9
                      A                      A                      A
 Frequencies --    212.6078               269.6577               312.5824
 Red. masses --      3.1213                 5.6378                 4.6975
 Frc consts  --      0.0831                 0.2415                 0.2704
 IR Inten    --    418.7213                 6.5674               157.6192

                     10                     11                     12
                      A                      A                      A
 Frequencies --    327.6478               337.5165               362.7631
 Red. masses --      8.0593                 7.0897                 8.2183
 Frc consts  --      0.5098                 0.4758                 0.6372
 IR Inten    --    237.1820                73.2840               184.3197

                     13                     14                     15
                      A                      A                      A
 Frequencies --    398.3576               455.8485               493.6643
 Red. masses --      7.1663                 7.6556                 6.2248
 Frc consts  --      0.6700                 0.9373                 0.8938
 IR Inten    --    130.0236               270.3193                55.5320

                     16                     17                     18
                      A                      A                      A
 Frequencies --    562.1518               604.6414               638.0171
 Red. masses --      6.2220                 4.1468                 2.0548
 Frc consts  --      1.1585                 0.8932                 0.4928
 IR Inten    --     88.8991                60.7220                21.7817

                     19                     20                     21
                      A                      A                      A
 Frequencies --    682.6975               750.8334               797.1991
 Red. masses --      4.3205                 8.9037                 1.4386
 Frc consts  --      1.1864                 2.9574                 0.5387
 IR Inten    --    225.6863                 2.0271               140.0913

                     22                     23                     24
                      A                      A                      A
 Frequencies --    809.7339               816.0847               918.8122
 Red. masses --      2.5003                 4.2816                 6.0103
 Frc consts  --      0.9659                 1.6801                 2.9895
 IR Inten    --     41.5738                32.0383               250.0067

                     25                     26                     27
                      A                      A                      A
 Frequencies --    955.9599              1041.6941              1054.4632
 Red. masses --      3.5783                 3.3609                 8.3906
 Frc consts  --      1.9267                 2.1487                 5.4968
 IR Inten    --     45.2584               160.0730              4673.7815

                     28                     29                     30
                      A                      A                      A
 Frequencies --   1125.2809              1160.9635              1161.2967
 Red. masses --      4.1730                 1.2896                 1.3704
 Frc consts  --      3.1133                 1.0241                 1.0889
 IR Inten    --    185.9162                51.3598               738.2561

                     31                     32                     33
                      A                      A                      A
 Frequencies --   1164.2414              1188.8507              1207.3829
 Red. masses --      2.0941                 2.1578                 1.4609
 Frc consts  --      1.6724                 1.7969                 1.2547
 IR Inten    --    321.7767              1322.1952                 2.3871

                     34                     35                     36
                      A                      A                      A
 Frequencies --   1213.0239              1275.2764              1323.2373
 Red. masses --      1.7155                 2.8623                 7.4048
 Frc consts  --      1.4872                 2.7426                 7.6391
 IR Inten    --    841.7606               640.6302              2199.9321

                     37                     38                     39
                      A                      A                      A
 Frequencies --   1410.3871              1415.5588              1419.5208
 Red. masses --      2.9417                 1.8369                 1.8537
 Frc consts  --      3.4477                 2.1687                 2.2008
 IR Inten    --    332.5849                49.4114               232.1603

                     40                     41                     42
                      A                      A                      A
 Frequencies --   1451.9293              1456.1046              1458.3512
 Red. masses --      1.1745                 1.1275                 2.5279
 Frc consts  --      1.4588                 1.4085                 3.1676
 IR Inten    --    228.7328               249.8335              6497.6562

                     43                     44                     45
                      A                      A                      A
 Frequencies --   1463.6046              1512.6673              1514.8018
 Red. masses --      2.1655                 1.0532                 1.0531
 Frc consts  --      2.7331                 1.4198                 1.4237
 IR Inten    --    260.3635               396.6924                43.4657

                     46                     47                     48
                      A                      A                      A
 Frequencies --   1583.7098              2911.8171              2912.3389
 Red. masses --      6.0864                 1.0487                 1.0484
 Frc consts  --      8.9942                 5.2390                 5.2390
 IR Inten    --   1969.8124                67.8093               198.2586

                     49                     50                     51
                      A                      A                      A
 Frequencies --   2988.8229              2989.9435              3054.7063
 Red. masses --      1.0823                 1.0831                 1.1008
 Frc consts  --      5.6964                 5.7048                 6.0521
 IR Inten    --   1718.5164                81.3582               287.5621

                     52                     53                     54
                      A                      A                      A
 Frequencies --   3055.3654              3123.1676              3125.7976
 Red. masses --      1.1006                 1.0889                 1.0874
 Frc consts  --      6.0537                 6.2576                 6.2597
 IR Inten    --    123.4280                34.6916               241.2603

 - Thermochemistry -
 -------------------
 Temperature   298.150 Kelvin.  Pressure   1.00000 Atm.
 Atom     1 has atomic number  6 and mass  12.00000

 Molecular mass:   168.04226 amu.
 Principal axes and moments of inertia in atomic units:
                           1         2         3
     Eigenvalues --  1803.286851850.747473472.25483
           X            0.99753  -0.01028   0.06945
           Y            0.02460   0.97770  -0.20858
           Z           -0.06576   0.20978   0.97554
 This molecule is an asymmetric top.
 Rotational symmetry number  1.
 Warning -- assumption of classical behavior for rotation
           may cause significant error
 Rotational temperatures (Kelvin)      0.04803     0.04680     0.02494
 Rotational constants (GHZ):           1.00081     0.97514     0.51976
 Zero-point vibrational energy     378553.5 (Joules/Mol)
                                   90.47645 (Kcal/Mol)
 Warning -- explicit consideration of  17 degrees of freedom as
           vibrations may cause significant error
 Vibrational temperatures:    131.01   139.86   144.99   248.67   252.82
          (Kelvin)            259.72   305.90   387.98   449.74   471.41
                              485.61   521.94   573.15   655.86   710.27
                              808.81   869.94   917.96   982.25  1080.28
                             1146.99  1165.03  1174.16  1321.97  1375.41
                             1498.77  1517.14  1619.03  1670.37  1670.85
                             1675.08  1710.49  1737.15  1745.27  1834.84
                             1903.84  2029.23  2036.67  2042.37  2089.00
                             2095.01  2098.24  2105.80  2176.39  2179.46
                             2278.61  4189.46  4190.21  4300.25  4301.86
                             4395.04  4395.99  4493.54  4497.33

 Zero-point correction=                           0.144183 (Hartree/Particle)
 Thermal correction to Energy=                    0.155638
 Thermal correction to Enthalpy=                  0.156582
 Thermal correction to Gibbs Free Energy=         0.107065
 Sum of electronic and zero-point Energies=           -610.503209
 Sum of electronic and thermal Energies=              -610.491754
 Sum of electronic and thermal Enthalpies=            -610.490810
 Sum of electronic and thermal Free Energies=         -610.540328

                     E (Thermal)             CV                S
                      KCal/Mol        Cal/Mol-Kelvin    Cal/Mol-Kelvin
 Total                   97.664             42.352            104.219
 Electronic               0.000              0.000              0.000
 Translational            0.889              2.981             41.265
 Rotational               0.889              2.981             30.828
 Vibrational             95.887             36.391             32.126
 Vibration     1          0.602              1.956              3.637
 Vibration     2          0.603              1.951              3.510
 Vibration     3          0.604              1.948              3.439
 Vibration     4          0.626              1.876              2.404
 Vibration     5          0.628              1.872              2.373
 Vibration     6          0.629              1.866              2.323
 Vibration     7          0.644              1.822              2.021
 Vibration     8          0.674              1.729              1.598
 Vibration     9          0.701              1.650              1.349
 Vibration    10          0.711              1.620              1.272
 Vibration    11          0.718              1.601              1.224
 Vibration    12          0.737              1.549              1.110
 Vibration    13          0.765              1.474              0.969
 Vibration    14          0.814              1.348              0.778
 Vibration    15          0.849              1.264              0.674
 Vibration    16          0.918              1.113              0.520
 Vibration    17          0.963              1.022              0.442

 Optimization completed.
    -- Stationary point found.
 Normal termination of Gaussian 16 at Thu Dec 21 02:41:10 2023.
