 Gaussian 16, Revision A.03,
 Gaussian 16:  ES64L-G16RevA.03 25-Dec-2016

 --------------------------------------
 #P UB3LYP/6-311++G(d,p) nosym opt freq
 --------------------------------------

 -------
 Radical
 -------
 Symbolic Z-matrix:
 Charge = -1 Multiplicity = 2

 SCF Done:  E(UB3LYP) =  -839.518751124     A.U. after   23 cycles
 SCF Done:  E(UB3LYP) =  -839.518751031     A.U. after   10 cycles
 Optimization completed.
    -- Stationary point found.
 Normal termination of Gaussian 16 at Sun Jan  7 05:10:13 2024.

 ----------------------------------------------------------------------
 #P Geom=AllCheck Guess=TCheck SCRF=Check GenChk UB3LYP/6-311++G(d,p) F
 req
 ----------------------------------------------------------------------

 Structure from the checkpoint file:  "189-rad.chk"
 -------
 Radical
 -------
 Charge = -1 Multiplicity = 2

                          Input orientation:
 ---------------------------------------------------------------------
 Center     Atomic      Atomic             Coordinates (Angstroms)
 Number     Number       Type             X           Y           Z
 ---------------------------------------------------------------------
      1          8           0       -4.926376    0.983095    0.194617
      2          6           0       -3.678134    0.387656    0.121806
      3          6           0       -3.647280   -1.018512    0.025510
      4          6           0       -2.426015   -1.657358   -0.049725
      5          6           0       -1.210475   -0.943290   -0.032841
      6          6           0        0.056560   -1.675789   -0.115255
      7          8           0        0.098665   -2.925086   -0.202091
      8          6           0        1.271184   -0.855528   -0.091327
      9          6           0        2.531992   -1.481991   -0.166499
     10          6           0        3.707250   -0.758360   -0.147676
     11          6           0        3.643208    0.646667   -0.050650
     12          8           0        4.848339    1.328832   -0.035620
     13          6           0        2.429863    1.293797    0.024553
     14          6           0        1.218361    0.564771    0.006444
     15          6           0       -0.043595    1.291738    0.088201
     16          8           0       -0.086070    2.551741    0.176256
     17          6           0       -1.253570    0.477356    0.064732
     18          6           0       -2.511311    1.119002    0.141056
     19          1           0       -4.796151    1.934968    0.256796
     20          1           0       -4.581125   -1.569213    0.012496
     21          1           0       -2.367063   -2.737233   -0.124492
     22          1           0        2.546021   -2.563462   -0.240136
     23          1           0        4.676033   -1.241719   -0.205417
     24          1           0        4.654367    2.269180    0.035126
     25          1           0        2.361483    2.375640    0.099546
     26          1           0       -2.516161    2.203095    0.214589
 ---------------------------------------------------------------------

 SCF Done:  E(UB3LYP) =  -839.518751031     A.U. after    1 cycles

 Alpha  occ. eigenvalues --  -19.05278 -19.05278 -18.94830 -18.94488 -10.12268
 Alpha  occ. eigenvalues --  -10.12267 -10.10115 -10.09188 -10.05843 -10.05843
 Alpha  occ. eigenvalues --  -10.05767 -10.05767 -10.05510 -10.05509 -10.05193
 Alpha  occ. eigenvalues --  -10.05192 -10.04783 -10.04782  -0.95886  -0.95886
 Alpha  occ. eigenvalues --   -0.87540  -0.86770  -0.74224  -0.73348  -0.66543
 Alpha  occ. eigenvalues --   -0.63521  -0.63482  -0.62050  -0.54785  -0.53953
 Alpha  occ. eigenvalues --   -0.50348  -0.49842  -0.44587  -0.44080  -0.43786
 Alpha  occ. eigenvalues --   -0.40156  -0.37935  -0.35874  -0.35123  -0.32626
 Alpha  occ. eigenvalues --   -0.31319  -0.31289  -0.31123  -0.30853  -0.30396
 Alpha  occ. eigenvalues --   -0.29696  -0.28189  -0.27846  -0.27271  -0.26485
 Alpha  occ. eigenvalues --   -0.25020  -0.24938  -0.23164  -0.22357  -0.21870
 Alpha  occ. eigenvalues --   -0.19873  -0.14163  -0.14150  -0.12521  -0.11719
 Alpha  occ. eigenvalues --   -0.11228  -0.10917  -0.01536
 Alpha virt. eigenvalues --    0.06876   0.07661   0.07781   0.09563   0.09737
 Alpha virt. eigenvalues --    0.09914   0.11562   0.11671   0.12817   0.13225
 Alpha virt. eigenvalues --    0.14631   0.14876   0.15076   0.16263   0.16782

  Beta  occ. eigenvalues --  -19.05271 -19.05270 -18.94338 -18.93810 -10.12249
  Beta  occ. eigenvalues --  -10.12249 -10.10015 -10.08991 -10.05831 -10.05830
  Beta  occ. eigenvalues --  -10.05751 -10.05751 -10.05422 -10.05421 -10.05150
  Beta  occ. eigenvalues --  -10.05150 -10.04698 -10.04697  -0.95865  -0.95865
  Beta  occ. eigenvalues --   -0.86694  -0.85584  -0.73964  -0.73242  -0.66154
  Beta  occ. eigenvalues --   -0.63378  -0.63225  -0.61903  -0.54172  -0.53699
  Beta  occ. eigenvalues --   -0.50251  -0.49612  -0.44444  -0.43868  -0.43747
  Beta  occ. eigenvalues --   -0.39970  -0.37798  -0.35591  -0.35078  -0.32448
  Beta  occ. eigenvalues --   -0.31276  -0.31210  -0.30793  -0.30687  -0.30236
  Beta  occ. eigenvalues --   -0.29459  -0.27248  -0.27198  -0.27146  -0.26302
  Beta  occ. eigenvalues --   -0.24854  -0.23050  -0.22664  -0.22111  -0.21630
  Beta  occ. eigenvalues --   -0.18742  -0.13723  -0.12425  -0.11191  -0.11123
  Beta  occ. eigenvalues --   -0.10770  -0.10353
  Beta virt. eigenvalues --    0.04494   0.07615   0.07654   0.07772   0.09555
  Beta virt. eigenvalues --    0.09728   0.10804   0.11566   0.12006   0.12814
  Beta virt. eigenvalues --    0.13213   0.14619   0.14996   0.15088   0.16258

 Mulliken charges and spin densities:
               1          2
     1  O   -0.267285   0.002300
     2  C   -0.550067   0.008146
     3  C   -0.129119   0.053234
     4  C    0.166631  -0.007293
     5  C    0.178990   0.038766
     6  C   -0.744067   0.046638
     7  O   -0.364437   0.182198
     8  C    0.178915   0.038783
     9  C    0.166601  -0.007302
    10  C   -0.129116   0.053249
    11  C   -0.550058   0.008151
    12  O   -0.267285   0.002300
    13  C    0.108518   0.059808
    14  C    0.445818   0.055809
    15  C   -0.803077   0.113224
    16  O   -0.388390   0.254627
    17  C    0.445701   0.055785
    18  C    0.108509   0.059801
    19  H    0.255640  -0.000132
    20  H    0.158493  -0.004332
    21  H    0.163450   0.000309
    22  H    0.163444   0.000310
    23  H    0.158496  -0.004333
    24  H    0.255641  -0.000132
    25  H    0.119037  -0.004958
    26  H    0.119016  -0.004958
 Sum of Mulliken charges =  -1.00000   1.00000

 Dipole moment (field-independent basis, Debye):
    X=             -0.0745    Y=              2.2123    Z=              0.1567  Tot=              2.2191
 Quadrupole moment (field-independent basis, Debye-Ang):
   XX=           -136.5409   YY=           -127.4368   ZZ=           -110.4634
   XY=             -0.3504   XZ=              0.6631   YZ=             -1.1511

  Exact polarizability: 337.171   4.314 221.181  -6.007   8.511  95.149
 Approx polarizability: 498.863   3.234 419.986  -8.840  18.300 151.362

                      1                      2                      3
                      A                      A                      A
 Frequencies --     46.1149                94.4939               120.0275
 Red. masses --      9.3704                 4.4282                 7.1885
 Frc consts  --      0.0117                 0.0233                 0.0610
 IR Inten    --      3.3636                 0.0000                 0.5987

                      4                      5                      6
                      A                      A                      A
 Frequencies --    161.7695               168.9442               175.6682
 Red. masses --      7.1719                 6.7290                 5.7795
 Frc consts  --      0.1106                 0.1132                 0.1051
 IR Inten    --      3.6405                 0.9508                 0.0001

                      7                      8                      9
                      A                      A                      A
 Frequencies --    247.4911               274.4732               306.8710
 Red. masses --      8.2779                 3.3478                 1.3115
 Frc consts  --      0.2987                 0.1486                 0.0728
 IR Inten    --      2.3794                31.2651                 0.0004

                     10                     11                     12
                      A                      A                      A
 Frequencies --    319.0539               323.6142               338.2714
 Red. masses --      7.4689                 1.3546                 3.4357
 Frc consts  --      0.4480                 0.0836                 0.2316
 IR Inten    --      0.6820               173.7233                 0.0001

                     13                     14                     15
                      A                      A                      A
 Frequencies --    356.6720               388.3431               408.2714
 Red. masses --     10.3240                 8.0447                 4.8989
 Frc consts  --      0.7738                 0.7148                 0.4811
 IR Inten    --      3.2116                 0.0729                24.4581

                     16                     17                     18
                      A                      A                      A
 Frequencies --    415.9757               457.5605               460.1519
 Red. masses --      3.8293                 2.9975                 5.2470
 Frc consts  --      0.3904                 0.3697                 0.6546
 IR Inten    --      8.9034                 0.0003                37.2762

                     19                     20                     21
                      A                      A                      A
 Frequencies --    484.6720               487.5921               582.6174
 Red. masses --     13.1410                 5.3055                 4.7544
 Frc consts  --      1.8188                 0.7432                 0.9509
 IR Inten    --      0.3042                 4.9728                 0.0000

                     22                     23                     24
                      A                      A                      A
 Frequencies --    592.0215               603.3914               649.3340
 Red. masses --      6.0764                 7.1107                 3.3356
 Frc consts  --      1.2548                 1.5253                 0.8286
 IR Inten    --      2.2282                12.1029                14.7301

                     25                     26                     27
                      A                      A                      A
 Frequencies --    660.2747               712.6440               714.3305
 Red. masses --      7.6804                 4.4394                 7.1389
 Frc consts  --      1.9728                 1.3284                 2.1462
 IR Inten    --      0.3934                 0.0001                 0.1924

                     28                     29                     30
                      A                      A                      A
 Frequencies --    729.4401               736.2278               776.8832
 Red. masses --      6.5674                 6.1237                 2.4116
 Frc consts  --      2.0588                 1.9556                 0.8576
 IR Inten    --     29.5304                 5.5283                 9.4268

                     31                     32                     33
                      A                      A                      A
 Frequencies --    798.5981               806.0675               825.4916
 Red. masses --      7.8515                 1.4312                 2.3054
 Frc consts  --      2.9502                 0.5479                 0.9256
 IR Inten    --     96.7114                 0.0004                22.7282

                     34                     35                     36
                      A                      A                      A
 Frequencies --    874.3716               882.0644               933.8950
 Red. masses --      1.4158                 1.5384                 4.3381
 Frc consts  --      0.6378                 0.7052                 2.2292
 IR Inten    --      0.0034                42.7537                 4.2170

                     37                     38                     39
                      A                      A                      A
 Frequencies --    938.2651               978.0108               982.7223
 Red. masses --      6.7348                 1.2888                 1.3250
 Frc consts  --      3.4932                 0.7263                 0.7539
 IR Inten    --     20.3995                 0.0001                 2.9452

                     40                     41                     42
                      A                      A                      A
 Frequencies --   1012.7813              1093.8134              1107.8308
 Red. masses --      2.3223                 2.2661                 1.5283
 Frc consts  --      1.4035                 1.5974                 1.1051
 IR Inten    --      9.3670                 0.3415                 7.7169

                     43                     44                     45
                      A                      A                      A
 Frequencies --   1145.8751              1163.1278              1179.5338
 Red. masses --      1.4610                 1.8586                 1.8051
 Frc consts  --      1.1302                 1.4814                 1.4797
 IR Inten    --     18.9771                 4.7063               101.9997

                     46                     47                     48
                      A                      A                      A
 Frequencies --   1188.5048              1192.8180              1219.8357
 Red. masses --      2.8118                 1.9912                 1.8146
 Frc consts  --      2.3401                 1.6692                 1.5909
 IR Inten    --    558.9076                34.7250                31.6781

                     49                     50                     51
                      A                      A                      A
 Frequencies --   1242.1026              1260.6774              1290.7699
 Red. masses --      2.2208                 3.0494                 2.6293
 Frc consts  --      2.0187                 2.8554                 2.5810
 IR Inten    --    122.4987                 0.0113                 4.8528

                     52                     53                     54
                      A                      A                      A
 Frequencies --   1339.6070              1370.3482              1370.4423
 Red. masses --      2.0813                 6.9425                 8.2944
 Frc consts  --      2.2006                 7.6812                 9.1782
 IR Inten    --     35.4721                 2.0397                 1.3461

                     55                     56                     57
                      A                      A                      A
 Frequencies --   1426.7305              1468.8996              1486.4234
 Red. masses --      3.3510                 3.0829                 3.7651
 Frc consts  --      4.0189                 3.9192                 4.9014
 IR Inten    --    200.2852               171.0171                74.0195

                     58                     59                     60
                      A                      A                      A
 Frequencies --   1491.2929              1531.7084              1556.4207
 Red. masses --      4.4709                 5.3423                 8.2273
 Frc consts  --      5.8583                 7.3847                11.7426
 IR Inten    --     67.1727               464.9076               159.8874

                     61                     62                     63
                      A                      A                      A
 Frequencies --   1579.1684              1612.7539              1625.2407
 Red. masses --      5.5508                 7.5278                 6.3025
 Frc consts  --      8.1557                11.5360                 9.8084
 IR Inten    --      4.9426                28.1560               593.9853

                     64                     65                     66
                      A                      A                      A
 Frequencies --   1649.3383              3149.6132              3150.2372
 Red. masses --      7.5584                 1.0892                 1.0895
 Frc consts  --     12.1143                 6.3662                 6.3702
 IR Inten    --      2.3770                36.6420                 8.7273

                     67                     68                     69
                      A                      A                      A
 Frequencies --   3168.0694              3168.1415              3186.0743
 Red. masses --      1.0868                 1.0869                 1.0937
 Frc consts  --      6.4270                 6.4274                 6.5410
 IR Inten    --      3.4633                 9.5634                33.0881

                     70                     71                     72
                      A                      A                      A
 Frequencies --   3186.6191              3830.8631              3830.9958
 Red. masses --      1.0938                 1.0657                 1.0657
 Frc consts  --      6.5438                 9.2146                 9.2154
 IR Inten    --     11.2384                24.4528                57.7383

 - Thermochemistry -
 -------------------
 Temperature   298.150 Kelvin.  Pressure   1.00000 Atm.
 Atom     1 has atomic number  8 and mass  15.99491

 Molecular mass:   240.04226 amu.
 Principal axes and moments of inertia in atomic units:
                           1         2         3
     Eigenvalues --  1869.462346762.224468631.68663
           X            0.99910  -0.03365   0.02589
           Y            0.03534   0.99707  -0.06785
           Z           -0.02353   0.06871   0.99736
 This molecule is an asymmetric top.
 Rotational symmetry number  1.
 Warning -- assumption of classical behavior for rotation
           may cause significant error
 Rotational temperatures (Kelvin)      0.04633     0.01281     0.01003
 Rotational constants (GHZ):           0.96538     0.26689     0.20908
 Zero-point vibrational energy     485022.0 (Joules/Mol)
                                  115.92303 (Kcal/Mol)
 Warning -- explicit consideration of  23 degrees of freedom as
           vibrations may cause significant error
 Vibrational temperatures:     66.35   135.96   172.69   232.75   243.07
          (Kelvin)            252.75   356.08   394.91   441.52   459.05
                              465.61   486.70   513.17   558.74   587.41
                              598.50   658.33   662.06   697.33   701.54
                              838.26   851.79   868.15   934.25   949.99
                             1025.34  1027.76  1049.50  1059.27  1117.76
                             1149.00  1159.75  1187.70  1258.03  1269.09
                             1343.67  1349.95  1407.14  1413.92  1457.17
                             1573.75  1593.92  1648.66  1673.48  1697.09
                             1709.99  1716.20  1755.07  1787.11  1813.83
                             1857.13  1927.40  1971.63  1971.76  2052.75
                             2113.42  2138.63  2145.64  2203.79  2239.34
                             2272.07  2320.39  2338.36  2373.03  4531.59
                             4532.49  4558.15  4558.25  4584.05  4584.83
                             5511.76  5511.95

 Zero-point correction=                           0.184735 (Hartree/Particle)
 Thermal correction to Energy=                    0.198533
 Thermal correction to Enthalpy=                  0.199477
 Thermal correction to Gibbs Free Energy=         0.144011
 Sum of electronic and zero-point Energies=           -839.334016
 Sum of electronic and thermal Energies=              -839.320218
 Sum of electronic and thermal Enthalpies=            -839.319274
 Sum of electronic and thermal Free Energies=         -839.374740

                     E (Thermal)             CV                S
                      KCal/Mol        Cal/Mol-Kelvin    Cal/Mol-Kelvin
 Total                  124.581             55.905            116.739
 Electronic               0.000              0.000              1.377
 Translational            0.889              2.981             42.328
 Rotational               0.889              2.981             33.056
 Vibrational            122.804             49.943             39.978
 Vibration     1          0.595              1.979              4.977
 Vibration     2          0.603              1.953              3.565
 Vibration     3          0.609              1.933              3.100
 Vibration     4          0.622              1.889              2.529
 Vibration     5          0.625              1.881              2.447
 Vibration     6          0.628              1.872              2.374
 Vibration     7          0.661              1.767              1.748
 Vibration     8          0.677              1.720              1.568
 Vibration     9          0.697              1.661              1.379
 Vibration    10          0.705              1.637              1.315
 Vibration    11          0.708              1.628              1.292
 Vibration    12          0.719              1.599              1.220
 Vibration    13          0.732              1.562              1.137
 Vibration    14          0.757              1.495              1.007
 Vibration    15          0.773              1.452              0.933
 Vibration    16          0.779              1.436              0.906
 Vibration    17          0.816              1.344              0.773
 Vibration    18          0.818              1.338              0.766
 Vibration    19          0.841              1.284              0.698
 Vibration    20          0.844              1.278              0.690
 Vibration    21          0.939              1.069              0.481
 Vibration    22          0.950              1.049              0.464
 Vibration    23          0.962              1.025              0.444

                           ! Non-Optimized Parameters !
 Normal termination of Gaussian 16 at Sun Jan  7 06:18:16 2024.
