 Q-Chem 5.4, Q-Chem, Inc., Pleasanton, CA (2021)
 Q-Chem 5.4.0 for Intel X86 EM64T Linux

User input:
--------------------------------------------------------------
$molecule
-2 1
O                  3.0741810000     -2.1850110000      0.2111200000
C                  2.8188940000     -0.9063680000      0.2586110000
C                  3.8286190000      0.0608470000      0.4209390000
C                  3.5323950000      1.4400610000      0.4701800000
C                  2.2348780000      1.9008650000      0.3608660000
C                  1.1611300000      0.9866470000      0.1949160000
C                 -0.2026050000      1.5267710000      0.0834770000
O                 -0.4034100000      2.7768000000      0.1354450000
C                 -1.2614960000      0.5392010000     -0.0852190000
C                 -2.6367030000      0.8841720000     -0.2090970000
O                 -3.0183570000      2.2148850000     -0.1713050000
C                 -3.6398440000     -0.0662570000     -0.3698200000
C                 -3.3117150000     -1.4495670000     -0.4164950000
C                 -2.0075940000     -1.8476760000     -0.3031260000
C                 -0.9479990000     -0.8941440000     -0.1361940000
C                  0.3705510000     -1.3377680000     -0.0237010000
O                  0.6319540000     -2.6929230000     -0.0752440000
C                  1.4367830000     -0.4164290000      0.1420030000
H                  1.6421750000     -2.7354210000      0.0285190000
H                  4.8527610000     -0.2961580000      0.5076780000
H                  4.3489880000      2.1524030000      0.5973710000
H                  1.9902090000      2.9556660000      0.3967290000
H                 -3.9766380000      2.2088950000     -0.2732020000
H                 -4.6760860000      0.2612180000     -0.4591310000
H                 -4.1047360000     -2.1846670000     -0.5426010000
H                 -1.7363370000     -2.8960450000     -0.3360390000
$end

$rem
BASIS  =  6-311++G(d,p)
GUI  =  2
JOB_TYPE  =  SP
METHOD  =  B3LYP
SCF_CONVERGENCE  = 8
SOLVENT_METHOD = sm12
$end

$smx
solvent dimethylformamide
charges CM5
$end

--------------------------------------------------------------

             Standard Nuclear Orientation (Angstroms)
    I     Atom           X                Y                Z
 ----------------------------------------------------------------
    1      O       3.0741810000    -2.1850110000     0.2111200000
    2      C       2.8188940000    -0.9063680000     0.2586110000
    3      C       3.8286190000     0.0608470000     0.4209390000
    4      C       3.5323950000     1.4400610000     0.4701800000
    5      C       2.2348780000     1.9008650000     0.3608660000
    6      C       1.1611300000     0.9866470000     0.1949160000
    7      C      -0.2026050000     1.5267710000     0.0834770000
    8      O      -0.4034100000     2.7768000000     0.1354450000
    9      C      -1.2614960000     0.5392010000    -0.0852190000
   10      C      -2.6367030000     0.8841720000    -0.2090970000
   11      O      -3.0183570000     2.2148850000    -0.1713050000
   12      C      -3.6398440000    -0.0662570000    -0.3698200000
   13      C      -3.3117150000    -1.4495670000    -0.4164950000
   14      C      -2.0075940000    -1.8476760000    -0.3031260000
   15      C      -0.9479990000    -0.8941440000    -0.1361940000
   16      C       0.3705510000    -1.3377680000    -0.0237010000
   17      O       0.6319540000    -2.6929230000    -0.0752440000
   18      C       1.4367830000    -0.4164290000     0.1420030000
   19      H       1.6421750000    -2.7354210000     0.0285190000
   20      H       4.8527610000    -0.2961580000     0.5076780000
   21      H       4.3489880000     2.1524030000     0.5973710000
   22      H       1.9902090000     2.9556660000     0.3967290000
   23      H      -3.9766380000     2.2088950000    -0.2732020000
   24      H      -4.6760860000     0.2612180000    -0.4591310000
   25      H      -4.1047360000    -2.1846670000    -0.5426010000
   26      H      -1.7363370000    -2.8960450000    -0.3360390000
 ----------------------------------------------------------------

   18    -839.4339892977      4.62e-09  Convergence criterion met
 Total energy in the final basis set =     -839.7192964641

                    Orbital Energies (a.u.)
 --------------------------------------------------------------

 Alpha MOs
 -- Occupied --
-19.1468 -19.1014 -19.0581 -19.0369 -10.2366 -10.2130 -10.2058 -10.1975
-10.1767 -10.1683 -10.1674 -10.1650 -10.1636 -10.1633 -10.1625 -10.1550
-10.1497 -10.1475  -1.0551  -1.0167  -0.9644  -0.9615  -0.8467  -0.8260
 -0.7784  -0.7412  -0.7284  -0.7119  -0.6645  -0.6304  -0.6164  -0.5789
 -0.5633  -0.5312  -0.5181  -0.4992  -0.4827  -0.4642  -0.4574  -0.4533
 -0.4246  -0.4165  -0.4079  -0.3989  -0.3963  -0.3934  -0.3772  -0.3683
 -0.3632  -0.3566  -0.3514  -0.3480  -0.3393  -0.3220  -0.3214  -0.2976
 -0.2595  -0.2389  -0.2316  -0.2281  -0.2036  -0.1941  -0.1325

          Ground-State Mulliken Net Atomic Charges

     Atom                 Charge (a.u.)
  ----------------------------------------
      1 O                    -0.375910
      2 C                    -1.040117
      3 C                     0.642486
      4 C                     0.497700
      5 C                    -0.992250
      6 C                    -1.464611
      7 C                    -2.784243
      8 O                    -0.262753
      9 C                    -1.035757
     10 C                     1.047681
     11 O                    -0.077708
     12 C                     3.643108
     13 C                     1.786574
     14 C                    -0.061787
     15 C                    -0.395405
     16 C                    -1.616869
     17 O                    -0.279344
     18 C                    -1.615162
     19 H                     0.419061
     20 H                     0.217503
     21 H                     0.341502
     22 H                     0.081640
     23 H                     0.405610
     24 H                     0.369312
     25 H                     0.399598
     26 H                     0.150141
  ----------------------------------------
  Sum of atomic charges =    -2.000000

                    Cartesian Multipole Moments
 -----------------------------------------------------------------
    Charge (ESU x 10^10)
                -9.6064
    Dipole Moment (Debye)
         X      -9.2407      Y      -0.4985      Z      -1.1496
       Tot       9.3253
    Quadrupole Moments (Debye-Ang)
        XX    -157.1991     XY       9.5812     YY    -162.3862
        XZ      -3.7113     YZ      -1.5860     ZZ    -118.3897

 Total job time:  635.05s(wall), 4984.85s(cpu)
        *  Thank you very much for using Q-Chem.  Have a nice day.  *
