 Q-Chem 5.4, Q-Chem, Inc., Pleasanton, CA (2021)
 Q-Chem 5.4.0 for Intel X86 EM64T Linux

User input:
--------------------------------------------------------------
$molecule
0 1
C                  4.8787200000     -2.8508180000     -0.3596580000
C                  5.6055120000     -1.9535660000     -1.1301920000
C                  5.0179820000     -0.7556970000     -1.5505090000
C                  3.5570810000     -2.5573140000     -0.0027080000
C                  2.9655460000     -1.3554270000     -0.4235680000
C                  3.7071900000     -0.4581660000     -1.1999300000
C                  2.7915230000     -3.5177680000      0.8170790000
C                  1.4113710000     -3.1863680000      1.1762920000
C                  0.7998780000     -1.9631100000      0.7518940000
C                  1.5618680000     -1.0098730000     -0.0625140000
C                  0.6876230000     -4.1030390000      1.9558830000
C                 -0.6436680000     -3.8078980000      2.3157550000
C                 -0.5409700000     -1.6658160000      1.1145280000
C                 -1.2256790000     -2.6386660000      1.9092070000
O                  3.3176330000     -4.5821070000      1.1887400000
O                  1.0860080000      0.0621390000     -0.4583890000
O                  1.1881130000     -5.2652640000      2.3904950000
Br                -3.0382530000     -2.3001540000      2.4335840000
N                 -1.1606780000     -0.5249640000      0.7384050000
H                  5.3110430000     -3.7843010000     -0.0222350000
H                  6.6286880000     -2.1818080000     -1.4059960000
H                  5.5871320000     -0.0561470000     -2.1522380000
H                  3.2348950000      0.4633910000     -1.5152350000
H                 -1.1845790000     -4.5267860000      2.9166750000
H                  2.1202180000     -5.3142020000      2.0529750000
H                 -0.6335230000      0.1333970000      0.1758970000
H                 -2.1120040000     -0.3536390000      1.0171830000
$end
$rem
MAX_SCF_CYCLES=200
BASIS  =  6-311++G(d,p)
GUI  =  2
JOB_TYPE  =  SP
METHOD  =  B3LYP
SOLVENT_METHOD = PCM
$end
$pcm
theory = CPCM
$end
$solvent
dielectric 37.219
opticaldielectric 1.43
$end

--------------------------------------------------------------

             Standard Nuclear Orientation (Angstroms)
    I     Atom           X                Y                Z
 ----------------------------------------------------------------
    1      C       4.8787200000    -2.8508180000    -0.3596580000
    2      C       5.6055120000    -1.9535660000    -1.1301920000
    3      C       5.0179820000    -0.7556970000    -1.5505090000
    4      C       3.5570810000    -2.5573140000    -0.0027080000
    5      C       2.9655460000    -1.3554270000    -0.4235680000
    6      C       3.7071900000    -0.4581660000    -1.1999300000
    7      C       2.7915230000    -3.5177680000     0.8170790000
    8      C       1.4113710000    -3.1863680000     1.1762920000
    9      C       0.7998780000    -1.9631100000     0.7518940000
   10      C       1.5618680000    -1.0098730000    -0.0625140000
   11      C       0.6876230000    -4.1030390000     1.9558830000
   12      C      -0.6436680000    -3.8078980000     2.3157550000
   13      C      -0.5409700000    -1.6658160000     1.1145280000
   14      C      -1.2256790000    -2.6386660000     1.9092070000
   15      O       3.3176330000    -4.5821070000     1.1887400000
   16      O       1.0860080000     0.0621390000    -0.4583890000
   17      O       1.1881130000    -5.2652640000     2.3904950000
   18      Br     -3.0382530000    -2.3001540000     2.4335840000
   19      N      -1.1606780000    -0.5249640000     0.7384050000
   20      H       5.3110430000    -3.7843010000    -0.0222350000
   21      H       6.6286880000    -2.1818080000    -1.4059960000
   22      H       5.5871320000    -0.0561470000    -2.1522380000
   23      H       3.2348950000     0.4633910000    -1.5152350000
   24      H      -1.1845790000    -4.5267860000     2.9166750000
   25      H       2.1202180000    -5.3142020000     2.0529750000
   26      H      -0.6335230000     0.1333970000     0.1758970000
   27      H      -2.1120040000    -0.3536390000     1.0171830000
 ----------------------------------------------------------------

    9   -3393.1481323749      4.73e-06  Convergence criterion met
 Total energy in the final basis set =    -3393.1481323749

                    Orbital Energies (a.u.)
 --------------------------------------------------------------

 Alpha MOs
 -- Occupied --
******** -62.5038 -56.3243 -56.3204 -56.3202 -19.1637 -19.1360 -19.1248
-14.3389 -10.2854 -10.2787 -10.2679 -10.2605 -10.2593 -10.2096 -10.2091
-10.2089 -10.2067 -10.2062 -10.1959 -10.1957 -10.1947 -10.1939  -8.7125
 -6.5440  -6.5311  -6.5307  -2.6549  -2.6512  -2.6510  -2.6407  -2.6406
 -1.0930  -1.0594  -1.0580  -0.9560  -0.8911  -0.8766  -0.8403  -0.7988
 -0.7779  -0.7676  -0.7537  -0.6940  -0.6678  -0.6560  -0.6281  -0.5997
 -0.5819  -0.5595  -0.5480  -0.5380  -0.5111  -0.4934  -0.4847  -0.4809
 -0.4675  -0.4604  -0.4536  -0.4498  -0.4426  -0.4395  -0.4296  -0.4254
 -0.4048  -0.3951  -0.3903  -0.3800  -0.3766  -0.3663  -0.3371  -0.3158
 -0.3145  -0.2930  -0.2847  -0.2773  -0.2771  -0.2725  -0.2203

          Ground-State Mulliken Net Atomic Charges

     Atom                 Charge (a.u.)
  ----------------------------------------
      1 C                     0.082241
      2 C                    -0.496105
      3 C                    -0.550196
      4 C                     0.156961
      5 C                    -0.026658
      6 C                     0.157659
      7 C                    -0.286825
      8 C                     0.676878
      9 C                     0.513413
     10 C                    -0.173709
     11 C                    -0.329254
     12 C                     0.020396
     13 C                    -0.596927
     14 C                     0.264684
     15 O                    -0.348234
     16 O                    -0.337809
     17 O                    -0.336105
     18 Br                   -0.177667
     19 N                    -0.351213
     20 H                     0.203066
     21 H                     0.220635
     22 H                     0.222301
     23 H                     0.199611
     24 H                     0.273972
     25 H                     0.361454
     26 H                     0.361886
     27 H                     0.295546
  ----------------------------------------
  Sum of atomic charges =     0.000000

                    Cartesian Multipole Moments
 -----------------------------------------------------------------
    Charge (ESU x 10^10)
                -0.0000
    Dipole Moment (Debye)
         X      -0.0765      Y       2.1607      Z      -1.1383
       Tot       2.4434
    Quadrupole Moments (Debye-Ang)
        XX     -98.6933     XY       5.3584     YY    -139.1310
        XZ     -13.0619     YZ       5.7338     ZZ    -122.7171

 Total job time:  65.23s(wall), 441.40s(cpu)
        *  Thank you very much for using Q-Chem.  Have a nice day.  *
