 Gaussian 16, Revision A.03,
 Gaussian 16:  ES64L-G16RevA.03 25-Dec-2016

 ----------------------------------------------------------------
 #P UB3LYP/6-311++G(d,p) SCRF=(PCM,Solvent=n,n-DiMethylFormamide)
 ----------------------------------------------------------------

 -------
 Reduced
 -------
 Symbolic Z-matrix:
 Charge = -2 Multiplicity = 1

                         Standard orientation:
 ---------------------------------------------------------------------
 Center     Atomic      Atomic             Coordinates (Angstroms)
 Number     Number       Type             X           Y           Z
 ---------------------------------------------------------------------
      1          6           0       -0.211543    2.127212   -0.284108
      2          6           0       -1.525242    2.578259   -0.205000
      3          6           0       -2.578103    1.668440    0.008111
      4          6           0        0.082756    0.753686   -0.149206
      5          6           0       -0.986169   -0.165535    0.061845
      6          6           0       -2.314564    0.315168    0.125502
      7          6           0        1.485988    0.315379   -0.226055
      8          6           0        1.687995   -1.098775   -0.059540
      9          6           0        0.572778   -1.989217    0.170259
     10          6           0       -0.758207   -1.588983    0.254031
     11          8           0        2.369912    1.209514   -0.408454
     12          8           0       -1.787261   -2.349781    0.491560
     13          1           0       -3.601452    2.028449    0.067154
     14          1           0        0.783099   -3.042093    0.306449
     15          6           0       -3.448175   -0.649795    0.317573
     16          8           0       -4.146215   -0.726631    1.311499
     17          8           0       -3.840244   -1.195092   -0.884997
     18          6           0       -4.615817   -2.382245   -0.762438
     19          1           0       -1.738451    3.636265   -0.323731
     20          1           0       -4.838511   -2.705080   -1.782190
     21          1           0       -5.546561   -2.201065   -0.214415
     22          1           0       -4.014806   -3.134999   -0.245544
     23          6           0        3.035017   -1.627980   -0.103768
     24          8           0        4.107996   -1.055403   -0.227561
     25          8           0        3.058762   -3.041749    0.026393
     26          6           0        0.836727    3.182955   -0.549541
     27          8           0        0.951127    3.739047   -1.619661
     28          8           0        1.440436    3.774609    0.533050
     29          6           0        1.543506    3.052151    1.764294
     30          6           0        4.348631   -3.615044    0.003923
     31          1           0        1.964923    3.759635    2.482904
     32          1           0        2.206736    2.197384    1.625018
     33          1           0        0.563792    2.715529    2.115034
     34          1           0        4.200457   -4.693416    0.113799
     35          1           0        4.977575   -3.243176    0.821543
     36          1           0        4.873620   -3.407604   -0.935949
 ---------------------------------------------------------------------

 SCF Done:  E(UB3LYP) =  -1219.35051104     A.U. after   16 cycles

 The electronic state is 1-A.
 Alpha  occ. eigenvalues --  -19.15454 -19.14594 -19.13593 -19.10553 -19.10088
 Alpha  occ. eigenvalues --  -19.08599 -19.04894 -19.02965 -10.30477 -10.29901
 Alpha  occ. eigenvalues --  -10.27326 -10.20813 -10.20694 -10.20500 -10.20495
 Alpha  occ. eigenvalues --  -10.18762 -10.18224 -10.18104 -10.17708 -10.17529
 Alpha  occ. eigenvalues --  -10.16825 -10.16687 -10.14933 -10.12941  -1.09168
 Alpha  occ. eigenvalues --   -1.08764  -1.07143  -1.01510  -1.00600  -0.99002
 Alpha  occ. eigenvalues --   -0.97263  -0.94418  -0.85903  -0.79144  -0.77669
 Alpha  occ. eigenvalues --   -0.74449  -0.71503  -0.70763  -0.69474  -0.66750
 Alpha  occ. eigenvalues --   -0.64396  -0.61930  -0.58824  -0.57122  -0.54774
 Alpha  occ. eigenvalues --   -0.53705  -0.51766  -0.49973  -0.49704  -0.47793
 Alpha  occ. eigenvalues --   -0.47097  -0.47006  -0.46723  -0.46221  -0.45931
 Alpha  occ. eigenvalues --   -0.45573  -0.44395  -0.43639  -0.42468  -0.41549
 Alpha  occ. eigenvalues --   -0.40701  -0.40139  -0.39589  -0.38775  -0.38270
 Alpha  occ. eigenvalues --   -0.37626  -0.37610  -0.37363  -0.35355  -0.34805
 Alpha  occ. eigenvalues --   -0.34626  -0.34373  -0.33710  -0.33157  -0.32684
 Alpha  occ. eigenvalues --   -0.29343  -0.28807  -0.28528  -0.28171  -0.27793
 Alpha  occ. eigenvalues --   -0.26717  -0.24670  -0.24176  -0.23428  -0.21763
 Alpha  occ. eigenvalues --   -0.20964  -0.13684
 Alpha virt. eigenvalues --   -0.04025  -0.02481  -0.00162   0.00447   0.00659
 Alpha virt. eigenvalues --    0.01093   0.01576   0.01869   0.02522   0.02610
 Alpha virt. eigenvalues --    0.03124   0.03542   0.03700   0.04032   0.04229

  Beta  occ. eigenvalues --  -19.15454 -19.14594 -19.13593 -19.10553 -19.10088
  Beta  occ. eigenvalues --  -19.08599 -19.04894 -19.02965 -10.30477 -10.29901
  Beta  occ. eigenvalues --  -10.27326 -10.20813 -10.20694 -10.20500 -10.20495
  Beta  occ. eigenvalues --  -10.18762 -10.18224 -10.18104 -10.17708 -10.17529
  Beta  occ. eigenvalues --  -10.16825 -10.16687 -10.14933 -10.12941  -1.09168
  Beta  occ. eigenvalues --   -1.08764  -1.07143  -1.01510  -1.00600  -0.99002
  Beta  occ. eigenvalues --   -0.97263  -0.94418  -0.85903  -0.79144  -0.77669
  Beta  occ. eigenvalues --   -0.74449  -0.71503  -0.70763  -0.69474  -0.66750
  Beta  occ. eigenvalues --   -0.64396  -0.61930  -0.58824  -0.57122  -0.54774
  Beta  occ. eigenvalues --   -0.53705  -0.51766  -0.49973  -0.49704  -0.47793
  Beta  occ. eigenvalues --   -0.47097  -0.47006  -0.46723  -0.46221  -0.45931
  Beta  occ. eigenvalues --   -0.45573  -0.44395  -0.43639  -0.42468  -0.41549
  Beta  occ. eigenvalues --   -0.40701  -0.40139  -0.39589  -0.38775  -0.38270
  Beta  occ. eigenvalues --   -0.37626  -0.37610  -0.37363  -0.35355  -0.34805
  Beta  occ. eigenvalues --   -0.34626  -0.34373  -0.33710  -0.33157  -0.32684
  Beta  occ. eigenvalues --   -0.29343  -0.28807  -0.28528  -0.28171  -0.27793
  Beta  occ. eigenvalues --   -0.26717  -0.24670  -0.24176  -0.23428  -0.21763
  Beta  occ. eigenvalues --   -0.20964  -0.13684
  Beta virt. eigenvalues --   -0.04025  -0.02481  -0.00162   0.00447   0.00659
  Beta virt. eigenvalues --    0.01093   0.01576   0.01869   0.02522   0.02610
  Beta virt. eigenvalues --    0.03124   0.03542   0.03700   0.04032   0.04229

 Mulliken charges and spin densities:
               1          2
     1  C    0.133442  -0.000000
     2  C    0.245015   0.000000
     3  C   -0.035445  -0.000000
     4  C    0.318360   0.000000
     5  C    0.469448   0.000000
     6  C    0.462310   0.000000
     7  C   -0.537481  -0.000000
     8  C    0.010844   0.000000
     9  C   -0.573042  -0.000000
    10  C   -0.734570   0.000000
    11  O   -0.491253   0.000000
    12  O   -0.576178  -0.000000
    13  H    0.190129  -0.000000
    14  H    0.176485  -0.000000
    15  C   -0.580032  -0.000000
    16  O   -0.286290   0.000000
    17  O   -0.014713   0.000000
    18  C   -0.229996  -0.000000
    19  H    0.205344   0.000000
    20  H    0.154743  -0.000000
    21  H    0.145376   0.000000
    22  H    0.183171  -0.000000
    23  C    0.246017  -0.000000
    24  O   -0.383596  -0.000000
    25  O   -0.197532  -0.000000
    26  C   -0.305832   0.000000
    27  O   -0.329052   0.000000
    28  O   -0.072855  -0.000000
    29  C   -0.357404   0.000000
    30  C   -0.232636  -0.000000
    31  H    0.158721   0.000000
    32  H    0.214466  -0.000000
    33  H    0.147917  -0.000000
    34  H    0.142551  -0.000000
    35  H    0.167400  -0.000000
    36  H    0.166170  -0.000000
 Sum of Mulliken charges =  -2.00000   0.00000

 Dipole moment (field-independent basis, Debye):
    X=             -3.9611    Y=              0.2962    Z=              2.2694  Tot=              4.5747
 Quadrupole moment (field-independent basis, Debye-Ang):
   XX=           -209.6238   YY=           -189.7484   ZZ=           -155.7512
   XY=            -26.8260   XZ=             22.9707   YZ=             23.2536

 Normal termination of Gaussian 16 at Sun Jan 21 09:03:04 2024.
