 Q-Chem 5.4, Q-Chem, Inc., Pleasanton, CA (2021)
 Q-Chem 5.4.0 for Intel X86 EM64T Linux

User input:
--------------------------------------------------------------
$molecule
-2 1
C                  5.0250980000     -2.3738040000      0.5781190000
C                  5.8309990000     -1.6927090000     -0.3152220000
C                  5.2310070000     -0.8948120000     -1.3212740000
C                  3.6159970000     -2.3000770000      0.5196290000
C                  3.0042320000     -1.4918630000     -0.4994010000
C                  3.8560430000     -0.8046190000     -1.4009210000
C                  2.8261880000     -3.0454260000      1.5009340000
C                  1.3818830000     -2.9025070000      1.3477910000
C                  0.7829230000     -2.0734610000      0.3014520000
C                  1.5562730000     -1.3457430000     -0.6505020000
C                  0.5506860000     -3.5874660000      2.2336250000
C                 -0.6439500000     -2.0078080000      0.2538730000
C                 -1.4551540000     -2.6726660000      1.1303880000
O                  3.3681390000     -3.7521680000      2.4006610000
O                  1.0543320000     -0.6125170000     -1.5780500000
H                  5.4475500000     -2.9939230000      1.3624000000
H                  6.9141960000     -1.7675830000     -0.2480290000
H                  5.8558390000     -0.3538130000     -2.0298200000
H                 -2.5339940000     -2.5906230000      1.0861120000
H                  3.3651260000     -0.2028260000     -2.1588460000
H                  1.0205960000     -4.2001650000      2.9940260000
H                 -1.0680430000     -1.3822130000     -0.5249360000
C                 -0.8419340000     -3.4760140000      2.1611850000
S                 -1.8271970000     -4.4053500000      3.2129110000
O                 -1.1330550000     -4.8588300000      4.4296960000
O                 -3.1784550000     -3.8306650000      3.3682610000
O                 -2.1030460000     -5.8542400000      2.3125480000
C                 -2.9882330000     -6.7861730000      2.9250530000
H                 -2.5983350000     -7.1287350000      3.8908640000
H                 -3.0588660000     -7.6392160000      2.2420010000
H                 -3.9845970000     -6.3520260000      3.0678310000
$end
$rem
MAX_SCF_CYCLES=200
BASIS  =  6-311++G(d,p)
GUI  =  2
JOB_TYPE  =  SP
METHOD  =  B3LYP
SOLVENT_METHOD = PCM
$end
$pcm
theory = CPCM
$end
$solvent
dielectric 37.219
opticaldielectric 1.43
$end

--------------------------------------------------------------

             Standard Nuclear Orientation (Angstroms)
    I     Atom           X                Y                Z
 ----------------------------------------------------------------
    1      C       5.0250980000    -2.3738040000     0.5781190000
    2      C       5.8309990000    -1.6927090000    -0.3152220000
    3      C       5.2310070000    -0.8948120000    -1.3212740000
    4      C       3.6159970000    -2.3000770000     0.5196290000
    5      C       3.0042320000    -1.4918630000    -0.4994010000
    6      C       3.8560430000    -0.8046190000    -1.4009210000
    7      C       2.8261880000    -3.0454260000     1.5009340000
    8      C       1.3818830000    -2.9025070000     1.3477910000
    9      C       0.7829230000    -2.0734610000     0.3014520000
   10      C       1.5562730000    -1.3457430000    -0.6505020000
   11      C       0.5506860000    -3.5874660000     2.2336250000
   12      C      -0.6439500000    -2.0078080000     0.2538730000
   13      C      -1.4551540000    -2.6726660000     1.1303880000
   14      O       3.3681390000    -3.7521680000     2.4006610000
   15      O       1.0543320000    -0.6125170000    -1.5780500000
   16      H       5.4475500000    -2.9939230000     1.3624000000
   17      H       6.9141960000    -1.7675830000    -0.2480290000
   18      H       5.8558390000    -0.3538130000    -2.0298200000
   19      H      -2.5339940000    -2.5906230000     1.0861120000
   20      H       3.3651260000    -0.2028260000    -2.1588460000
   21      H       1.0205960000    -4.2001650000     2.9940260000
   22      H      -1.0680430000    -1.3822130000    -0.5249360000
   23      C      -0.8419340000    -3.4760140000     2.1611850000
   24      S      -1.8271970000    -4.4053500000     3.2129110000
   25      O      -1.1330550000    -4.8588300000     4.4296960000
   26      O      -3.1784550000    -3.8306650000     3.3682610000
   27      O      -2.1030460000    -5.8542400000     2.3125480000
   28      C      -2.9882330000    -6.7861730000     2.9250530000
   29      H      -2.5983350000    -7.1287350000     3.8908640000
   30      H      -3.0588660000    -7.6392160000     2.2420010000
   31      H      -3.9845970000    -6.3520260000     3.0678310000
 ----------------------------------------------------------------

   10   -1352.4207624078      5.40e-06  Convergence criterion met
 Total energy in the final basis set =    -1352.4207624078

                    Orbital Energies (a.u.)
 --------------------------------------------------------------

 Alpha MOs
 -- Occupied --
-89.0703 -19.1509 -19.1248 -19.1228 -19.0495 -19.0288 -10.2134 -10.2051
-10.1950 -10.1846 -10.1821 -10.1665 -10.1619 -10.1592 -10.1582 -10.1581
-10.1556 -10.1553 -10.1545 -10.1541 -10.1440  -8.1315  -6.0949  -6.0939
 -6.0918  -1.1297  -1.0198  -1.0102  -0.9738  -0.9484  -0.8520  -0.8378
 -0.7820  -0.7524  -0.7364  -0.7346  -0.7053  -0.6629  -0.6422  -0.6136
 -0.5910  -0.5736  -0.5471  -0.5367  -0.5185  -0.5111  -0.4804  -0.4774
 -0.4537  -0.4513  -0.4448  -0.4405  -0.4369  -0.4211  -0.4096  -0.4006
 -0.3974  -0.3929  -0.3910  -0.3853  -0.3706  -0.3576  -0.3468  -0.3448
 -0.3380  -0.3332  -0.3301  -0.3227  -0.3203  -0.3150  -0.3105  -0.2860
 -0.2535  -0.2438  -0.2387  -0.2330  -0.2241  -0.2085  -0.1225

          Ground-State Mulliken Net Atomic Charges

     Atom                 Charge (a.u.)
  ----------------------------------------
      1 C                     0.037827
      2 C                    -0.516225
      3 C                    -0.519253
      4 C                     0.296129
      5 C                     0.385510
      6 C                     0.012777
      7 C                    -0.651144
      8 C                     0.312124
      9 C                     0.742071
     10 C                    -0.291152
     11 C                     0.098680
     12 C                    -0.180214
     13 C                    -0.506711
     14 O                    -0.565348
     15 O                    -0.666179
     16 H                     0.158398
     17 H                     0.185515
     18 H                     0.186420
     19 H                     0.229209
     20 H                     0.157457
     21 H                     0.211868
     22 H                     0.149314
     23 C                    -1.176892
     24 S                     0.311623
     25 O                    -0.287892
     26 O                    -0.314456
     27 O                    -0.154112
     28 C                    -0.159578
     29 H                     0.167188
     30 H                     0.180360
     31 H                     0.166676
  ----------------------------------------
  Sum of atomic charges =    -2.000010

                    Cartesian Multipole Moments
 -----------------------------------------------------------------
    Charge (ESU x 10^10)
                -9.6065
    Dipole Moment (Debye)
         X     -11.1562      Y      23.8089      Z     -10.5778
       Tot      28.3410
    Quadrupole Moments (Debye-Ang)
        XX    -191.1223     XY      30.2674     YY    -213.9625
        XZ      -0.4082     YZ      55.6866     ZZ    -200.4296

 Total job time:  130.22s(wall), 559.29s(cpu)
        *  Thank you very much for using Q-Chem.  Have a nice day.  *
