 Q-Chem 5.4, Q-Chem, Inc., Pleasanton, CA (2021)
 Q-Chem 5.4.0 for Intel X86 EM64T Linux

User input:
--------------------------------------------------------------
$molecule
-2 1
C                 -1.9488250000      3.0533510000      0.1655620000
C                 -2.8894830000      2.2562140000      0.7872290000
C                 -2.5836350000      0.9047420000      1.0927160000
C                 -0.6648070000      2.5576600000     -0.1834440000
C                 -0.3518240000      1.1797500000      0.1282380000
C                 -1.3356420000      0.3978330000      0.7624950000
C                  0.2992430000      3.3934790000     -0.8287630000
C                  1.5510760000      2.7781350000     -1.1289110000
C                  1.8924450000      1.4551890000     -0.8512970000
C                  0.9489650000      0.5867000000     -0.1986010000
O                  0.1359330000      4.6429690000     -1.1665900000
O                  1.2206560000     -0.6329370000      0.0749080000
H                 -2.1619930000      4.0897620000     -0.0777170000
H                 -3.8658570000      2.6641400000      1.0435800000
H                 -3.3215600000      0.2739240000      1.5837200000
H                 -1.0694070000     -0.6314480000      0.9831930000
C                  3.2423710000      0.9012560000     -1.2342370000
O                  2.4296520000      3.6362630000     -1.7552430000
H                  3.6339750000      1.4478260000     -2.1003420000
H                  3.1079210000     -0.1491960000     -1.5181400000
H                  1.8639240000      4.4479340000     -1.7937950000
C                  4.2867300000      0.9564530000     -0.1001700000
C                  5.6461460000      0.3607900000     -0.4957530000
C                  6.7026740000      0.4101020000      0.6152680000
C                  8.0589820000     -0.1842060000      0.2156550000
H                  3.8832860000      0.4148910000      0.7623560000
H                  4.4221200000      2.0003230000      0.2095210000
H                  6.0312850000      0.8910110000     -1.3786470000
H                  5.5029450000     -0.6831580000     -0.8073650000
H                  6.3195510000     -0.1210490000      1.4960320000
H                  6.8434860000      1.4524810000      0.9301120000
H                  7.9642790000     -1.2380370000     -0.0714710000
H                  8.7913030000     -0.1364550000      1.0301750000
H                  8.4928130000      0.3485690000     -0.6388320000
$end
$rem
MAX_SCF_CYCLES=200
BASIS  =  6-311++G(d,p)
GUI  =  2
JOB_TYPE  =  SP
METHOD  =  B3LYP
SOLVENT_METHOD = PCM
$end
$pcm
theory = CPCM
$end
$solvent
dielectric 37.219
opticaldielectric 1.43
$end

--------------------------------------------------------------

             Standard Nuclear Orientation (Angstroms)
    I     Atom           X                Y                Z
 ----------------------------------------------------------------
    1      C      -1.9488250000     3.0533510000     0.1655620000
    2      C      -2.8894830000     2.2562140000     0.7872290000
    3      C      -2.5836350000     0.9047420000     1.0927160000
    4      C      -0.6648070000     2.5576600000    -0.1834440000
    5      C      -0.3518240000     1.1797500000     0.1282380000
    6      C      -1.3356420000     0.3978330000     0.7624950000
    7      C       0.2992430000     3.3934790000    -0.8287630000
    8      C       1.5510760000     2.7781350000    -1.1289110000
    9      C       1.8924450000     1.4551890000    -0.8512970000
   10      C       0.9489650000     0.5867000000    -0.1986010000
   11      O       0.1359330000     4.6429690000    -1.1665900000
   12      O       1.2206560000    -0.6329370000     0.0749080000
   13      H      -2.1619930000     4.0897620000    -0.0777170000
   14      H      -3.8658570000     2.6641400000     1.0435800000
   15      H      -3.3215600000     0.2739240000     1.5837200000
   16      H      -1.0694070000    -0.6314480000     0.9831930000
   17      C       3.2423710000     0.9012560000    -1.2342370000
   18      O       2.4296520000     3.6362630000    -1.7552430000
   19      H       3.6339750000     1.4478260000    -2.1003420000
   20      H       3.1079210000    -0.1491960000    -1.5181400000
   21      H       1.8639240000     4.4479340000    -1.7937950000
   22      C       4.2867300000     0.9564530000    -0.1001700000
   23      C       5.6461460000     0.3607900000    -0.4957530000
   24      C       6.7026740000     0.4101020000     0.6152680000
   25      C       8.0589820000    -0.1842060000     0.2156550000
   26      H       3.8832860000     0.4148910000     0.7623560000
   27      H       4.4221200000     2.0003230000     0.2095210000
   28      H       6.0312850000     0.8910110000    -1.3786470000
   29      H       5.5029450000    -0.6831580000    -0.8073650000
   30      H       6.3195510000    -0.1210490000     1.4960320000
   31      H       6.8434860000     1.4524810000     0.9301120000
   32      H       7.9642790000    -1.2380370000    -0.0714710000
   33      H       8.7913030000    -0.1364550000     1.0301750000
   34      H       8.4928130000     0.3485690000    -0.6388320000
 ----------------------------------------------------------------

    8    -807.3985248405      8.50e-06  Convergence criterion met
 Total energy in the final basis set =     -807.3985248405

                    Orbital Energies (a.u.)
 --------------------------------------------------------------

 Alpha MOs
 -- Occupied --
-19.1118 -19.0280 -19.0203 -10.1765 -10.1739 -10.1618 -10.1539 -10.1492
-10.1490 -10.1478 -10.1453 -10.1444 -10.1441 -10.1432 -10.1407 -10.1364
-10.1323 -10.1242  -1.0255  -0.9416  -0.9312  -0.8234  -0.7919  -0.7687
 -0.7387  -0.7213  -0.7022  -0.6601  -0.6299  -0.5976  -0.5804  -0.5649
 -0.5533  -0.5340  -0.5023  -0.4708  -0.4634  -0.4466  -0.4303  -0.4255
 -0.4159  -0.4074  -0.4011  -0.3993  -0.3830  -0.3776  -0.3703  -0.3621
 -0.3550  -0.3498  -0.3452  -0.3417  -0.3280  -0.3188  -0.3186  -0.3105
 -0.3098  -0.3042  -0.2974  -0.2952  -0.2296  -0.2252  -0.2170  -0.1989
 -0.1920  -0.1093

          Ground-State Mulliken Net Atomic Charges

     Atom                 Charge (a.u.)
  ----------------------------------------
      1 C                    -0.001196
      2 C                    -0.415798
      3 C                    -0.493207
      4 C                     0.287592
      5 C                     0.043060
      6 C                     0.027829
      7 C                    -0.872615
      8 C                    -0.578531
      9 C                     1.890775
     10 C                    -0.690777
     11 O                    -0.756537
     12 O                    -0.677744
     13 H                     0.145967
     14 H                     0.170272
     15 H                     0.165077
     16 H                     0.142942
     17 C                    -0.409265
     18 O                    -0.355446
     19 H                     0.193722
     20 H                     0.166538
     21 H                     0.287564
     22 C                    -0.426872
     23 C                    -0.205108
     24 C                    -0.179589
     25 C                    -0.689421
     26 H                     0.162746
     27 H                     0.145252
     28 H                     0.110159
     29 H                     0.111395
     30 H                     0.131836
     31 H                     0.132401
     32 H                     0.144985
     33 H                     0.147227
     34 H                     0.144759
  ----------------------------------------
  Sum of atomic charges =    -2.000009

                    Cartesian Multipole Moments
 -----------------------------------------------------------------
    Charge (ESU x 10^10)
                -9.6065
    Dipole Moment (Debye)
         X      -5.5136      Y     -18.9637      Z       4.6874
       Tot      20.2976
    Quadrupole Moments (Debye-Ang)
        XX    -140.0810     XY      -2.9758     YY    -203.5503
        XZ       6.0303     YZ      20.7028     ZZ    -127.8000

 Total job time:  62.05s(wall), 396.99s(cpu)
        *  Thank you very much for using Q-Chem.  Have a nice day.  *
