 Gaussian 16, Revision A.03,
 Gaussian 16:  ES64L-G16RevA.03 25-Dec-2016

 --------------------------------------
 #P UB3LYP/6-311++G(d,p) nosym opt freq
 --------------------------------------

 --------
 Oxidized
 --------
 Symbolic Z-matrix:
 Charge =  0 Multiplicity = 1

 SCF Done:  E(UB3LYP) =  -706.178451641     A.U. after   16 cycles
 SCF Done:  E(UB3LYP) =  -706.180543945     A.U. after   12 cycles
 SCF Done:  E(UB3LYP) =  -706.180644721     A.U. after   11 cycles
 SCF Done:  E(UB3LYP) =  -706.180649621     A.U. after   11 cycles
 Optimization completed.
    -- Stationary point found.
 Normal termination of Gaussian 16 at Tue Dec 26 20:11:08 2023.

 ----------------------------------------------------------------------
 #P Geom=AllCheck Guess=TCheck SCRF=Check GenChk UB3LYP/6-311++G(d,p) F
 req
 ----------------------------------------------------------------------

 Structure from the checkpoint file:  "228.chk"
 --------
 Oxidized
 --------
 Charge =  0 Multiplicity = 1

                          Input orientation:
 ---------------------------------------------------------------------
 Center     Atomic      Atomic             Coordinates (Angstroms)
 Number     Number       Type             X           Y           Z
 ---------------------------------------------------------------------
      1          6           0        5.791595   -5.137807    1.231199
      2          6           0        6.799500   -5.044590    0.282865
      3          6           0        6.701948   -4.098742   -0.752564
      4          6           0        4.680581   -4.293674    1.158802
      5          6           0        4.583479   -3.351785    0.127911
      6          6           0        5.591684   -3.251967   -0.828570
      7          6           0        3.599715   -4.401276    2.184209
      8          6           0        2.420586   -3.486486    2.085662
      9          6           0        2.331104   -2.574507    1.084369
     10          6           0        3.398229   -2.448782    0.048385
     11          8           0        3.685018   -5.222425    3.082953
     12          8           0        3.299995   -1.623314   -0.844668
     13          6           0        7.743470   -4.003989   -1.730823
     14          7           0        8.587841   -3.933967   -2.515919
     15          1           0        5.847432   -5.859393    2.036409
     16          1           0        7.663678   -5.695308    0.332234
     17          1           0        5.500667   -2.518074   -1.619085
     18          6           0        1.369882   -3.650212    3.152680
     19          6           0        1.182201   -1.623232    0.918150
     20          1           0        1.657059   -4.440878    3.842989
     21          1           0        0.401096   -3.906607    2.715096
     22          1           0        1.238155   -2.725009    3.720580
     23          1           0        0.427820   -1.747517    1.691607
     24          1           0        0.714684   -1.762269   -0.060709
     25          1           0        1.541282   -0.590319    0.933998
 ---------------------------------------------------------------------

 SCF Done:  E(UB3LYP) =  -706.180649621     A.U. after    1 cycles

 Alpha  occ. eigenvalues --  -19.14616 -19.14470 -14.33292 -10.29504 -10.29353
 Alpha  occ. eigenvalues --  -10.25280 -10.23054 -10.22988 -10.22920 -10.22899
 Alpha  occ. eigenvalues --  -10.22897 -10.22850 -10.22737 -10.22073 -10.19070
 Alpha  occ. eigenvalues --  -10.18891  -1.07999  -1.07767  -0.93555  -0.91333
 Alpha  occ. eigenvalues --   -0.87047  -0.82284  -0.80533  -0.76686  -0.72807
 Alpha  occ. eigenvalues --   -0.70539  -0.66658  -0.64319  -0.60885  -0.58300
 Alpha  occ. eigenvalues --   -0.55842  -0.52552  -0.51256  -0.48075  -0.47904
 Alpha  occ. eigenvalues --   -0.47650  -0.47090  -0.44649  -0.44332  -0.44259
 Alpha  occ. eigenvalues --   -0.43594  -0.42359  -0.41805  -0.41241  -0.41195
 Alpha  occ. eigenvalues --   -0.39787  -0.39050  -0.38192  -0.36800  -0.35761
 Alpha  occ. eigenvalues --   -0.30674  -0.30059  -0.29937  -0.28969  -0.28590
 Alpha virt. eigenvalues --   -0.13907  -0.08575  -0.06188  -0.02039  -0.00847
 Alpha virt. eigenvalues --    0.00654   0.00731   0.01071   0.01446   0.01726
 Alpha virt. eigenvalues --    0.01812   0.01847   0.03316   0.03973   0.04088

  Beta  occ. eigenvalues --  -19.14616 -19.14470 -14.33292 -10.29504 -10.29353
  Beta  occ. eigenvalues --  -10.25280 -10.23054 -10.22988 -10.22920 -10.22899
  Beta  occ. eigenvalues --  -10.22897 -10.22850 -10.22737 -10.22073 -10.19070
  Beta  occ. eigenvalues --  -10.18891  -1.07999  -1.07767  -0.93555  -0.91333
  Beta  occ. eigenvalues --   -0.87047  -0.82284  -0.80533  -0.76686  -0.72807
  Beta  occ. eigenvalues --   -0.70539  -0.66658  -0.64319  -0.60885  -0.58300
  Beta  occ. eigenvalues --   -0.55842  -0.52552  -0.51256  -0.48075  -0.47904
  Beta  occ. eigenvalues --   -0.47650  -0.47090  -0.44649  -0.44332  -0.44259
  Beta  occ. eigenvalues --   -0.43594  -0.42359  -0.41805  -0.41241  -0.41195
  Beta  occ. eigenvalues --   -0.39787  -0.39050  -0.38192  -0.36800  -0.35761
  Beta  occ. eigenvalues --   -0.30674  -0.30059  -0.29937  -0.28969  -0.28590
  Beta virt. eigenvalues --   -0.13907  -0.08575  -0.06188  -0.02039  -0.00847
  Beta virt. eigenvalues --    0.00654   0.00731   0.01071   0.01446   0.01726
  Beta virt. eigenvalues --    0.01812   0.01847   0.03316   0.03973   0.04088

 Mulliken charges and spin densities:
               1          2
     1  C    0.230246  -0.000000
     2  C   -0.630506   0.000000
     3  C    1.788625  -0.000000
     4  C    0.602720  -0.000000
     5  C    0.027227   0.000000
     6  C    0.148835   0.000000
     7  C   -0.904807  -0.000000
     8  C    0.016405  -0.000000
     9  C    0.614981   0.000000
    10  C   -0.704898   0.000000
    11  O   -0.204617   0.000000
    12  O   -0.191759   0.000000
    13  C   -1.567844   0.000000
    14  N   -0.148498  -0.000000
    15  H    0.188928   0.000000
    16  H    0.202092   0.000000
    17  H    0.212051  -0.000000
    18  C   -0.439750   0.000000
    19  C   -0.340321   0.000000
    20  H    0.214999   0.000000
    21  H    0.171443  -0.000000
    22  H    0.171809  -0.000000
    23  H    0.161512  -0.000000
    24  H    0.190559  -0.000000
    25  H    0.190568   0.000000
 Sum of Mulliken charges =  -0.00000  -0.00000

 Dipole moment (field-independent basis, Debye):
    X=             -3.5033    Y=             -0.1446    Z=              3.0864  Tot=              4.6712
 Quadrupole moment (field-independent basis, Debye-Ang):
   XX=           -128.0166   YY=            -93.2108   ZZ=           -104.4505
   XY=              7.2664   XZ=             21.4533   YZ=             -4.5996

  Exact polarizability: 194.795 -33.179 137.068 -53.579 -35.836 170.177
 Approx polarizability: 273.557 -43.888 246.979 -64.932 -97.749 302.617

 ******    1 imaginary frequencies (negative Signs) ******

                      1                      2                      3
                      A                      A                      A
 Frequencies --    -22.8633                42.8624                68.2644
 Red. masses --      1.0508                 6.0956                 1.3530
 Frc consts  --      0.0003                 0.0066                 0.0037
 IR Inten    --      0.0566                 2.1277                 2.1984

                      4                      5                      6
                      A                      A                      A
 Frequencies --     79.8481               110.4310               119.3643
 Red. masses --      4.8163                 2.2370                 9.7020
 Frc consts  --      0.0181                 0.0161                 0.0814
 IR Inten    --      7.1767                 0.1697                 3.6926

                      7                      8                      9
                      A                      A                      A
 Frequencies --    134.6654               199.4604               255.5914
 Red. masses --      5.5767                 6.1976                 5.2143
 Frc consts  --      0.0596                 0.1453                 0.2007
 IR Inten    --      2.1725                 0.2456                 3.0331

                     10                     11                     12
                      A                      A                      A
 Frequencies --    290.3587               317.5679               330.6448
 Red. masses --      4.2229                 3.8923                 4.4928
 Frc consts  --      0.2098                 0.2313                 0.2894
 IR Inten    --      0.1255                 0.3881                 0.9862

                     13                     14                     15
                      A                      A                      A
 Frequencies --    351.2363               408.0302               411.0709
 Red. masses --      4.3566                 5.6837                 7.2189
 Frc consts  --      0.3167                 0.5575                 0.7187
 IR Inten    --      0.9111                 0.1411                 5.6630

                     16                     17                     18
                      A                      A                      A
 Frequencies --    425.5706               426.5755               481.6064
 Red. masses --      7.7500                 3.5069                 4.3068
 Frc consts  --      0.8270                 0.3760                 0.5886
 IR Inten    --     25.8694                 0.3322                 0.4034

                     19                     20                     21
                      A                      A                      A
 Frequencies --    491.6328               552.7055               573.1248
 Red. masses --     10.0006                 7.1549                 7.3879
 Frc consts  --      1.4242                 1.2878                 1.4298
 IR Inten    --      1.3164                 0.7124                 0.9143

                     22                     23                     24
                      A                      A                      A
 Frequencies --    598.8211               667.7578               688.6581
 Red. masses --      5.3683                 5.1989                 6.5730
 Frc consts  --      1.1342                 1.3658                 1.8366
 IR Inten    --      9.4133                 2.8104                 3.0096

                     25                     26                     27
                      A                      A                      A
 Frequencies --    700.3937               733.9717               739.3309
 Red. masses --      3.6574                 4.3364                 5.9358
 Frc consts  --      1.0571                 1.3764                 1.9116
 IR Inten    --     13.7840                 2.0588                15.1363

                     28                     29                     30
                      A                      A                      A
 Frequencies --    791.0739               868.8982               875.0679
 Red. masses --      5.6679                 4.0978                 1.4621
 Frc consts  --      2.0898                 1.8228                 0.6597
 IR Inten    --      0.3867                10.8774                19.7183

                     31                     32                     33
                      A                      A                      A
 Frequencies --    909.8550               953.6078               992.6324
 Red. masses --      3.0406                 1.4118                 3.4487
 Frc consts  --      1.4830                 0.7564                 2.0021
 IR Inten    --     29.5585                 8.9907                15.5139

                     34                     35                     36
                      A                      A                      A
 Frequencies --   1008.3533              1027.9892              1045.6174
 Red. masses --      1.3434                 1.4805                 1.7406
 Frc consts  --      0.8048                 0.9218                 1.1212
 IR Inten    --      0.2620                 0.5384                50.1261

                     37                     38                     39
                      A                      A                      A
 Frequencies --   1056.6397              1107.3907              1134.4658
 Red. masses --      1.5675                 2.8155                 2.0613
 Frc consts  --      1.0312                 2.0343                 1.5630
 IR Inten    --      0.0003                 9.3941                 4.6953

                     40                     41                     42
                      A                      A                      A
 Frequencies --   1154.5435              1185.0978              1227.3295
 Red. masses --      1.8800                 3.1178                 2.5000
 Frc consts  --      1.4765                 2.5800                 2.2188
 IR Inten    --     16.4762                 9.7184                16.0667

                     43                     44                     45
                      A                      A                      A
 Frequencies --   1281.5391              1307.8157              1324.6049
 Red. masses --      1.6548                 7.5906                 4.1160
 Frc consts  --      1.6012                 7.6492                 4.2550
 IR Inten    --     13.8314               345.7723                34.8425

                     46                     47                     48
                      A                      A                      A
 Frequencies --   1347.2341              1405.7657              1415.4608
 Red. masses --      6.6714                 1.2689                 1.2561
 Frc consts  --      7.1344                 1.4774                 1.4827
 IR Inten    --      0.9888                18.4405                22.9743

                     49                     50                     51
                      A                      A                      A
 Frequencies --   1439.2073              1468.7576              1472.1051
 Red. masses --      3.9873                 1.1166                 1.0433
 Frc consts  --      4.8660                 1.4192                 1.3321
 IR Inten    --      6.6613                 1.7732                13.2199

                     52                     53                     54
                      A                      A                      A
 Frequencies --   1491.1736              1504.0062              1514.3809
 Red. masses --      1.0692                 1.0439                 2.8025
 Frc consts  --      1.4008                 1.3912                 3.7868
 IR Inten    --     24.0250                 5.1863                 0.4176

                     55                     56                     57
                      A                      A                      A
 Frequencies --   1599.7526              1636.6044              1659.2870
 Red. masses --      7.9793                 6.2325                 7.8492
 Frc consts  --     12.0315                 9.8356                12.7326
 IR Inten    --      6.4163                51.4500                63.1028

                     58                     59                     60
                      A                      A                      A
 Frequencies --   1712.9800              1720.1145              2337.1252
 Red. masses --     12.4483                12.1970                12.6795
 Frc consts  --     21.5211                21.2626                40.8052
 IR Inten    --     67.8463               328.2731                23.4648

                     61                     62                     63
                      A                      A                      A
 Frequencies --   3034.9588              3041.6646              3083.2258
 Red. masses --      1.0398                 1.0396                 1.0994
 Frc consts  --      5.6430                 5.6667                 6.1578
 IR Inten    --     11.0776                 5.6205                14.3181

                     64                     65                     66
                      A                      A                      A
 Frequencies --   3085.3983              3142.4520              3149.0767
 Red. masses --      1.0988                 1.0974                 1.0988
 Frc consts  --      6.1628                 6.3848                 6.4202
 IR Inten    --      0.0662                 6.2288                 9.9611

                     67                     68                     69
                      A                      A                      A
 Frequencies --   3193.6052              3207.5067              3208.4731
 Red. masses --      1.0895                 1.0932                 1.0938
 Frc consts  --      6.5468                 6.6262                 6.6341
 IR Inten    --      0.4516                 1.1934                 3.3129

 - Thermochemistry -
 -------------------
 Temperature   298.150 Kelvin.  Pressure   1.00000 Atm.
 Atom     1 has atomic number  6 and mass  12.00000

 Molecular mass:   211.06333 amu.
 Principal axes and moments of inertia in atomic units:
                           1         2         3
     Eigenvalues --  1708.516034987.489796673.85740
           X            0.84158  -0.25968   0.47361
           Y           -0.15465   0.72429   0.67193
           Z           -0.51752  -0.63873   0.56939
 This molecule is an asymmetric top.
 Rotational symmetry number  1.
 Warning -- assumption of classical behavior for rotation
           may cause significant error
 Rotational temperatures (Kelvin)      0.05070     0.01737     0.01298
 Rotational constants (GHZ):           1.05632     0.36185     0.27042
    1 imaginary frequencies ignored.
 Zero-point vibrational energy     486415.9 (Joules/Mol)
                                  116.25618 (Kcal/Mol)
 Warning -- explicit consideration of  21 degrees of freedom as
           vibrations may cause significant error
 Vibrational temperatures:     61.67    98.22   114.88   158.89   171.74
          (Kelvin)            193.75   286.98   367.74   417.76   456.91
                              475.72   505.35   587.06   591.44   612.30
                              613.75   692.92   707.35   795.22   824.60
                              861.57   960.75   990.83  1007.71  1056.02
                             1063.73  1138.18  1250.15  1259.03  1309.08
                             1372.03  1428.18  1450.80  1479.05  1504.41
                             1520.27  1593.29  1632.24  1661.13  1705.09
                             1765.85  1843.85  1881.66  1905.81  1938.37
                             2022.58  2036.53  2070.70  2113.21  2118.03
                             2145.47  2163.93  2178.86  2301.69  2354.71
                             2387.34  2464.60  2474.86  3362.60  4366.63
                             4376.28  4436.07  4439.20  4521.29  4530.82
                             4594.89  4614.89  4616.28

 Zero-point correction=                           0.185266 (Hartree/Particle)
 Thermal correction to Energy=                    0.198598
 Thermal correction to Enthalpy=                  0.199542
 Thermal correction to Gibbs Free Energy=         0.144651
 Sum of electronic and zero-point Energies=           -705.995384
 Sum of electronic and thermal Energies=              -705.982052
 Sum of electronic and thermal Enthalpies=            -705.981108
 Sum of electronic and thermal Free Energies=         -706.035998

                     E (Thermal)             CV                S
                      KCal/Mol        Cal/Mol-Kelvin    Cal/Mol-Kelvin
 Total                  124.622             50.456            115.527
 Electronic               0.000              0.000              0.000
 Translational            0.889              2.981             41.945
 Rotational               0.889              2.981             32.408
 Vibrational            122.844             44.494             41.174
 Vibration     1          0.595              1.980              5.122
 Vibration     2          0.598              1.969              4.203
 Vibration     3          0.600              1.963              3.895
 Vibration     4          0.606              1.941              3.261
 Vibration     5          0.609              1.933              3.111
 Vibration     6          0.613              1.919              2.878
 Vibration     7          0.638              1.841              2.138
 Vibration     8          0.666              1.753              1.692
 Vibration     9          0.686              1.692              1.472
 Vibration    10          0.704              1.640              1.323
 Vibration    11          0.713              1.614              1.257
 Vibration    12          0.728              1.573              1.161
 Vibration    13          0.773              1.453              0.934
 Vibration    14          0.775              1.446              0.923
 Vibration    15          0.787              1.415              0.873
 Vibration    16          0.788              1.412              0.870
 Vibration    17          0.838              1.291              0.706
 Vibration    18          0.847              1.269              0.679
 Vibration    19          0.908              1.134              0.539
 Vibration    20          0.929              1.089              0.498
 Vibration    21          0.957              1.034              0.452

                           ! Non-Optimized Parameters !
 Normal termination of Gaussian 16 at Tue Dec 26 20:32:07 2023.
