 Gaussian 16, Revision A.03,
 Gaussian 16:  ES64L-G16RevA.03 25-Dec-2016

 ----------------------------------------------------------------
 #P UB3LYP/6-311++G(d,p) SCRF=(PCM,Solvent=n,n-DiMethylFormamide)
 ----------------------------------------------------------------

 ------------------
 Radical PCM in DMF
 ------------------
 Symbolic Z-matrix:
 Charge = -1 Multiplicity = 2

                         Standard orientation:
 ---------------------------------------------------------------------
 Center     Atomic      Atomic             Coordinates (Angstroms)
 Number     Number       Type             X           Y           Z
 ---------------------------------------------------------------------
      1          8           0        0.000022    2.836354   -0.000091
      2          6           0        0.000171    1.575535   -0.000072
      3          6           0        1.160334    0.682057   -0.000082
      4          6           0        2.532023    0.976606    0.000005
      5          6           0        3.455571   -0.062621    0.000097
      6          6           0        3.028859   -1.408609    0.000119
      7          6           0        1.666418   -1.716372    0.000015
      8          6           0        0.727366   -0.684393   -0.000085
      9          6           0       -0.727072   -0.685022   -0.000121
     10          6           0       -1.666252   -1.716511   -0.000171
     11          6           0       -3.029014   -1.408099   -0.000022
     12          6           0       -3.455848   -0.062820    0.000194
     13          6           0       -2.531732    0.976703    0.000153
     14          6           0       -1.160748    0.682020   -0.000046
     15          1           0        2.854722    2.013198    0.000003
     16          1           0        4.519644    0.158181    0.000186
     17          1           0        3.764574   -2.207290    0.000243
     18          1           0        1.345788   -2.755135    0.000064
     19          1           0       -1.347092   -2.755602   -0.000289
     20          1           0       -3.764457   -2.207086   -0.000029
     21          1           0       -4.519689    0.158689    0.000352
     22          1           0       -2.854123    2.013370    0.000285
 ---------------------------------------------------------------------

 SCF Done:  E(UB3LYP) =  -575.703622161     A.U. after   18 cycles

 The electronic state is 2-A.
 Alpha  occ. eigenvalues --  -19.06449 -10.20008 -10.16576 -10.16575 -10.16334
 Alpha  occ. eigenvalues --  -10.16301 -10.16299 -10.16298 -10.16233 -10.16231
 Alpha  occ. eigenvalues --  -10.16212 -10.16210 -10.15174 -10.15171  -0.98315
 Alpha  occ. eigenvalues --   -0.86814  -0.83238  -0.78258  -0.74860  -0.73316
 Alpha  occ. eigenvalues --   -0.70143  -0.65033  -0.61602  -0.57711  -0.56209
 Alpha  occ. eigenvalues --   -0.54223  -0.49609  -0.48657  -0.45975  -0.43352
 Alpha  occ. eigenvalues --   -0.43330  -0.41916  -0.41255  -0.40769  -0.40469
 Alpha  occ. eigenvalues --   -0.39212  -0.35499  -0.35369  -0.34959  -0.34746
 Alpha  occ. eigenvalues --   -0.32743  -0.32194  -0.28384  -0.25553  -0.24852
 Alpha  occ. eigenvalues --   -0.22760  -0.20896  -0.12455
 Alpha virt. eigenvalues --   -0.03085  -0.00316   0.00010   0.00579   0.01239
 Alpha virt. eigenvalues --    0.02398   0.02562   0.03138   0.04499   0.04653
 Alpha virt. eigenvalues --    0.04703   0.04867   0.05568   0.06546   0.07159

  Beta  occ. eigenvalues --  -19.05773 -10.19675 -10.16642 -10.16642 -10.16305
  Beta  occ. eigenvalues --  -10.16303 -10.16178 -10.16143 -10.16140 -10.16137
  Beta  occ. eigenvalues --  -10.16051 -10.16051 -10.15128 -10.15125  -0.97064
  Beta  occ. eigenvalues --   -0.86428  -0.83062  -0.77858  -0.74568  -0.73117
  Beta  occ. eigenvalues --   -0.69982  -0.64317  -0.61423  -0.57419  -0.56090
  Beta  occ. eigenvalues --   -0.53917  -0.49271  -0.48535  -0.45784  -0.43177
  Beta  occ. eigenvalues --   -0.43137  -0.41821  -0.41097  -0.40351  -0.39327
  Beta  occ. eigenvalues --   -0.38798  -0.35346  -0.35144  -0.34451  -0.32680
  Beta  occ. eigenvalues --   -0.32397  -0.32040  -0.27376  -0.24224  -0.23850
  Beta  occ. eigenvalues --   -0.22160  -0.20421
  Beta virt. eigenvalues --   -0.06163  -0.02817  -0.00304   0.00579   0.01030
  Beta virt. eigenvalues --    0.01246   0.02402   0.02564   0.03741   0.04641
  Beta virt. eigenvalues --    0.04723   0.04742   0.04877   0.06622   0.06632

 Mulliken charges and spin densities:
               1          2
     1  O   -0.556698   0.244297
     2  C   -0.212075   0.216050
     3  C    0.682478   0.032533
     4  C   -0.233187   0.094145
     5  C   -0.343159  -0.022551
     6  C   -0.341978   0.139053
     7  C   -0.505364  -0.058465
     8  C    0.010857   0.097206
     9  C    0.008941   0.096585
    10  C   -0.506179  -0.058094
    11  C   -0.340704   0.138454
    12  C   -0.343160  -0.022294
    13  C   -0.230454   0.094036
    14  C    0.683948   0.032548
    15  H    0.145315  -0.005415
    16  H    0.166414   0.000094
    17  H    0.176347  -0.010072
    18  H    0.125274   0.003637
    19  H    0.125412   0.003618
    20  H    0.176274  -0.010030
    21  H    0.166440   0.000072
    22  H    0.145259  -0.005407
 Sum of Mulliken charges =  -1.00000   1.00000

 Dipole moment (field-independent basis, Debye):
    X=              0.0015    Y=             -7.5306    Z=              0.0006  Tot=              7.5306
 Quadrupole moment (field-independent basis, Debye-Ang):
   XX=            -89.4830   YY=           -104.6087   ZZ=            -90.9338
   XY=             -0.0007   XZ=              0.0000   YZ=              0.0010

 Normal termination of Gaussian 16 at Sat Jan 13 19:18:13 2024.
