 Gaussian 16, Revision A.03,
 Gaussian 16:  ES64L-G16RevA.03 25-Dec-2016

 ----------------------------------------------------------------
 #P UB3LYP/6-311++G(d,p) SCRF=(PCM,Solvent=n,n-DiMethylFormamide)
 ----------------------------------------------------------------

 ------------------
 Radical PCM in DMF
 ------------------
 Symbolic Z-matrix:
 Charge = -1 Multiplicity = 2

                         Standard orientation:
 ---------------------------------------------------------------------
 Center     Atomic      Atomic             Coordinates (Angstroms)
 Number     Number       Type             X           Y           Z
 ---------------------------------------------------------------------
      1          6           0        1.001261   -0.978386   -1.083513
      2          6           0       -0.427921   -0.985997   -1.336483
      3          6           0       -1.354802   -0.993270   -0.330727
      4          6           0       -1.000921   -0.979097    1.083258
      5          6           0        0.428230   -0.986859    1.336227
      6          6           0        1.355113   -0.993566    0.330473
      7          8           0        1.836460   -0.938879   -2.015511
      8          8           0       -1.836093   -0.940133    2.015305
      9         16           0        3.095599   -1.058283    0.810452
     10          6           0        3.839555    0.462630    0.159959
     11          6           0        4.323043    0.493309   -1.145917
     12          6           0        3.944343    1.566243    1.003724
     13          6           0        4.541696    2.730718    0.524748
     14          6           0        4.921392    1.662523   -1.611694
     15          6           0        5.030009    2.778031   -0.781038
     16          8           0        3.760510   -2.196196    0.164279
     17          8           0        3.145557   -0.938158    2.280331
     18          1           0        4.204437   -0.376498   -1.776681
     19          1           0        3.573432    1.497900    2.018732
     20          1           0        5.298566    1.702013   -2.627669
     21          1           0        4.630004    3.596152    1.172461
     22          1           0        5.494102    3.685897   -1.152127
     23         16           0       -3.095333   -1.058200   -0.810626
     24          6           0       -3.839787    0.462441   -0.159974
     25          6           0       -3.946058    1.565833   -1.003879
     26          6           0       -4.322258    0.493149    1.146297
     27          6           0       -4.920724    1.662173    1.612397
     28          6           0       -4.543522    2.730119   -0.524565
     29          6           0       -5.030583    2.777508    0.781680
     30          1           0       -0.741374   -0.982910   -2.373452
     31          1           0        0.741693   -0.984306    2.373192
     32          1           0       -3.576283    1.497583   -2.019315
     33          1           0       -4.202701   -0.376435    1.777176
     34          1           0       -5.297011    1.701630    2.628703
     35          1           0       -4.632883    3.595357   -1.172397
     36          1           0       -5.494693    3.685251    1.153050
     37          8           0       -3.759901   -2.196346   -0.164503
     38          8           0       -3.145275   -0.938153   -2.280491
 ---------------------------------------------------------------------

 SCF Done:  E(UB3LYP) =  -1941.24002048     A.U. after   20 cycles

 The electronic state is 2-A.
 Alpha  occ. eigenvalues --  -89.05930 -89.05930 -19.12629 -19.12628 -19.12440
 Alpha  occ. eigenvalues --  -19.12440 -19.10380 -19.10379 -10.25609 -10.25607
 Alpha  occ. eigenvalues --  -10.21890 -10.21888 -10.21670 -10.21669 -10.20096
 Alpha  occ. eigenvalues --  -10.20094 -10.19757 -10.19756 -10.19480 -10.19480
 Alpha  occ. eigenvalues --  -10.19226 -10.19226 -10.19049 -10.19049 -10.18967
 Alpha  occ. eigenvalues --  -10.18967  -8.12316  -8.12315  -6.08599  -6.08599
 Alpha  occ. eigenvalues --   -6.08486  -6.08486  -6.08413  -6.08413  -1.11872
 Alpha  occ. eigenvalues --   -1.11862  -1.03261  -1.03039  -1.01463  -1.01446
 Alpha  occ. eigenvalues --   -0.88056  -0.88049  -0.86379  -0.80776  -0.78457
 Alpha  occ. eigenvalues --   -0.77714  -0.76691  -0.76689  -0.72543  -0.71154
 Alpha  occ. eigenvalues --   -0.66980  -0.63388  -0.62633  -0.62594  -0.62132
 Alpha  occ. eigenvalues --   -0.60180  -0.57673  -0.55041  -0.54156  -0.51603
 Alpha  occ. eigenvalues --   -0.51245  -0.51173  -0.49003  -0.48711  -0.48152
 Alpha  occ. eigenvalues --   -0.47856  -0.46371  -0.45946  -0.45863  -0.45715
 Alpha  occ. eigenvalues --   -0.45583  -0.44259  -0.44216  -0.43872  -0.43436
 Alpha  occ. eigenvalues --   -0.43087  -0.40653  -0.40105  -0.38973  -0.38916
 Alpha  occ. eigenvalues --   -0.38455  -0.38381  -0.36385  -0.36368  -0.35161
 Alpha  occ. eigenvalues --   -0.35021  -0.33707  -0.33657  -0.32367  -0.32188
 Alpha  occ. eigenvalues --   -0.31319  -0.31263  -0.30877  -0.29969  -0.28099
 Alpha  occ. eigenvalues --   -0.27675  -0.27475  -0.27407  -0.26619  -0.25842
 Alpha  occ. eigenvalues --   -0.19243
 Alpha virt. eigenvalues --   -0.07053  -0.04508  -0.03209  -0.02859  -0.02852
 Alpha virt. eigenvalues --   -0.00714  -0.00638  -0.00083   0.00941   0.01186
 Alpha virt. eigenvalues --    0.01690   0.01866   0.02457   0.02759   0.03363

  Beta  occ. eigenvalues --  -89.05931 -89.05931 -19.12625 -19.12624 -19.12444
  Beta  occ. eigenvalues --  -19.12444 -19.09656 -19.09655 -10.25530 -10.25528
  Beta  occ. eigenvalues --  -10.21834 -10.21833 -10.21671 -10.21669 -10.19893
  Beta  occ. eigenvalues --  -10.19892 -10.19755 -10.19754 -10.19479 -10.19479
  Beta  occ. eigenvalues --  -10.19224 -10.19224 -10.19050 -10.19050 -10.18967
  Beta  occ. eigenvalues --  -10.18967  -8.12317  -8.12317  -6.08599  -6.08599
  Beta  occ. eigenvalues --   -6.08488  -6.08488  -6.08415  -6.08415  -1.11864
  Beta  occ. eigenvalues --   -1.11856  -1.02059  -1.01858  -1.01437  -1.01365
  Beta  occ. eigenvalues --   -0.88049  -0.88046  -0.85784  -0.80585  -0.78433
  Beta  occ. eigenvalues --   -0.77635  -0.76688  -0.76686  -0.71646  -0.71005
  Beta  occ. eigenvalues --   -0.66774  -0.63254  -0.62631  -0.62586  -0.61720
  Beta  occ. eigenvalues --   -0.60123  -0.57566  -0.54997  -0.54037  -0.51438
  Beta  occ. eigenvalues --   -0.51096  -0.50952  -0.48962  -0.48690  -0.48136
  Beta  occ. eigenvalues --   -0.47836  -0.46149  -0.45928  -0.45800  -0.45641
  Beta  occ. eigenvalues --   -0.45557  -0.44179  -0.44169  -0.43226  -0.42477
  Beta  occ. eigenvalues --   -0.42060  -0.39794  -0.39392  -0.38882  -0.38470
  Beta  occ. eigenvalues --   -0.38316  -0.37387  -0.36377  -0.36354  -0.35105
  Beta  occ. eigenvalues --   -0.34933  -0.33650  -0.33586  -0.32213  -0.31994
  Beta  occ. eigenvalues --   -0.31195  -0.30848  -0.29464  -0.28472  -0.27827
  Beta  occ. eigenvalues --   -0.27509  -0.27226  -0.27149  -0.26087  -0.25305
  Beta virt. eigenvalues --   -0.12026  -0.06128  -0.04410  -0.02845  -0.02830
  Beta virt. eigenvalues --   -0.02551  -0.00638  -0.00080   0.00771   0.00957
  Beta virt. eigenvalues --    0.01528   0.01786   0.01880   0.02554   0.02775

 Mulliken charges and spin densities:
               1          2
     1  C   -0.504024   0.046574
     2  C   -0.394336   0.121117
     3  C    0.371205   0.087599
     4  C   -0.503454   0.046561
     5  C   -0.394371   0.121123
     6  C    0.371721   0.087614
     7  O   -0.351972   0.266617
     8  O   -0.352007   0.266620
     9  S    0.377909  -0.030945
    10  C    0.337236   0.002572
    11  C   -0.236900   0.019618
    12  C    0.113934  -0.000459
    13  C   -0.512128  -0.000724
    14  C   -0.414961  -0.003638
    15  C   -0.308916   0.001230
    16  O   -0.169743   0.005334
    17  O   -0.228776  -0.002607
    18  H    0.278825  -0.001136
    19  H    0.249706   0.000672
    20  H    0.215114  -0.000001
    21  H    0.211165   0.000025
    22  H    0.193818  -0.000089
    23  S    0.378078  -0.030940
    24  C    0.337257   0.002549
    25  C    0.114298  -0.000414
    26  C   -0.237529   0.019596
    27  C   -0.415066  -0.003647
    28  C   -0.511719  -0.000724
    29  C   -0.308911   0.001234
    30  H    0.272148  -0.011761
    31  H    0.272110  -0.011761
    32  H    0.249740   0.000670
    33  H    0.278881  -0.001140
    34  H    0.215117  -0.000001
    35  H    0.211167   0.000025
    36  H    0.193819  -0.000089
    37  O   -0.169733   0.005333
    38  O   -0.228702  -0.002608
 Sum of Mulliken charges =  -1.00000   1.00000

 Dipole moment (field-independent basis, Debye):
    X=             -0.0024    Y=             14.3082    Z=              0.0009  Tot=             14.3082
 Quadrupole moment (field-independent basis, Debye-Ang):
   XX=           -206.7409   YY=           -172.8998   ZZ=           -187.9678
   XY=             -0.0103   XZ=            -13.6239   YZ=              0.0045

 Normal termination of Gaussian 16 at Wed Jan 24 23:03:29 2024.
