 Gaussian 16, Revision A.03,
 Gaussian 16:  ES64L-G16RevA.03 25-Dec-2016

 ----------------------------------------------------------------------
 #P UB3LYP/6-311++G(d,p) nosym opt freq SCRF=(PCM,Solvent=n,n-DiMethylF
 ormamide)
 ----------------------------------------------------------------------

 -------
 Radical
 -------
 Symbolic Z-matrix:
 Charge = -1 Multiplicity = 2

 SCF Done:  E(UB3LYP) =  -841.350937363     A.U. after   19 cycles
 SCF Done:  E(UB3LYP) =  -841.351087615     A.U. after   14 cycles
 SCF Done:  E(UB3LYP) =  -841.351109859     A.U. after   12 cycles
 Optimization completed.
    -- Stationary point found.
 Normal termination of Gaussian 16 at Sat Feb 10 10:03:34 2024.

 ----------------------------------------------------------------------
 #P Geom=AllCheck Guess=TCheck SCRF=Check GenChk UB3LYP/6-311++G(d,p) F
 req
 ----------------------------------------------------------------------

 Structure from the checkpoint file:  "003-rad.chk"
 -------
 Radical
 -------
 Charge = -1 Multiplicity = 2

                          Input orientation:
 ---------------------------------------------------------------------
 Center     Atomic      Atomic             Coordinates (Angstroms)
 Number     Number       Type             X           Y           Z
 ---------------------------------------------------------------------
      1         17           0        3.099405   -0.166473    0.032550
      2          6           0        1.331209   -0.063956    0.013677
      3          6           0        0.737011    1.166255    0.011540
      4          6           0       -0.703440    1.306832   -0.002990
      5          8           0       -1.260438    2.445705   -0.005375
      6          6           0       -1.457926    0.072042   -0.014640
      7          6           0       -0.845161   -1.148855   -0.012526
      8          6           0        0.593999   -1.316696    0.001389
      9          8           0        1.144301   -2.452772    0.002375
     10          1           0        1.332194    2.071820    0.020737
     11          1           0       -2.540579    0.149072   -0.025279
     12          1           0       -1.430578   -2.062972   -0.021459
 ---------------------------------------------------------------------

 SCF Done:  E(UB3LYP) =  -841.351109859     A.U. after    2 cycles

 Alpha  occ. eigenvalues -- -101.55010 -19.08635 -19.08432 -10.23383 -10.22892
 Alpha  occ. eigenvalues --  -10.22842 -10.17541 -10.17259 -10.17032  -9.46460
 Alpha  occ. eigenvalues --   -7.22883  -7.21984  -7.21916  -1.00900  -1.00269
 Alpha  occ. eigenvalues --   -0.87203  -0.81674  -0.74052  -0.68930  -0.60721
 Alpha  occ. eigenvalues --   -0.57281  -0.48780  -0.47847  -0.45313  -0.42685
 Alpha  occ. eigenvalues --   -0.42323  -0.41307  -0.38845  -0.38378  -0.37173
 Alpha  occ. eigenvalues --   -0.34730  -0.31411  -0.28709  -0.25869  -0.25259
 Alpha  occ. eigenvalues --   -0.24778  -0.17200
 Alpha virt. eigenvalues --   -0.01926   0.00236   0.01004   0.01696   0.02016
 Alpha virt. eigenvalues --    0.02481   0.04910   0.05483   0.05584   0.06329
 Alpha virt. eigenvalues --    0.08250   0.08538   0.08757   0.09123   0.11065

  Beta  occ. eigenvalues -- -101.55008 -19.07924 -19.07702 -10.23244 -10.22776
  Beta  occ. eigenvalues --  -10.22720 -10.17420 -10.17172 -10.16917  -9.46458
  Beta  occ. eigenvalues --   -7.22888  -7.21969  -7.21915  -0.99672  -0.98984
  Beta  occ. eigenvalues --   -0.86924  -0.81199  -0.73769  -0.67858  -0.60290
  Beta  occ. eigenvalues --   -0.56863  -0.48550  -0.47389  -0.44986  -0.42595
  Beta  occ. eigenvalues --   -0.40619  -0.40606  -0.38381  -0.36951  -0.35674
  Beta  occ. eigenvalues --   -0.33674  -0.31365  -0.25619  -0.24919  -0.24591
  Beta  occ. eigenvalues --   -0.24112
  Beta virt. eigenvalues --   -0.09872  -0.00496   0.00271   0.01085   0.01722
  Beta virt. eigenvalues --    0.02534   0.04138   0.04965   0.05532   0.05985
  Beta virt. eigenvalues --    0.06402   0.08382   0.08715   0.08804   0.09150

 Mulliken charges and spin densities:
               1          2
     1  Cl   0.168114   0.004524
     2  C    1.089181   0.083137
     3  C   -0.417427   0.069801
     4  C   -0.601312   0.112692
     5  O   -0.499409   0.253754
     6  C    0.068026   0.081211
     7  C   -0.027966   0.073446
     8  C   -0.909784   0.088163
     9  O   -0.456690   0.252616
    10  H    0.194967  -0.007321
    11  H    0.194461  -0.006367
    12  H    0.197840  -0.005656
 Sum of Mulliken charges =  -1.00000   1.00000

 Dipole moment (field-independent basis, Debye):
    X=             -2.2872    Y=              0.0511    Z=             -0.0196  Tot=              2.2878
 Quadrupole moment (field-independent basis, Debye-Ang):
   XX=            -73.9489   YY=            -92.2244   ZZ=            -62.3194
   XY=             18.2141   XZ=             -0.0601   YZ=              0.0828

  Exact polarizability: 176.439 -43.172 204.496   0.960   0.014  70.472
 Approx polarizability: 187.344 -54.274 236.244   0.949  -0.020  78.633

                      1                      2                      3
                      A                      A                      A
 Frequencies --    112.6723               173.8999               232.4638
 Red. masses --      7.9148                 7.2750                16.6238
 Frc consts  --      0.0592                 0.1296                 0.5293
 IR Inten    --     18.7671                 3.4289                 1.1369

                      4                      5                      6
                      A                      A                      A
 Frequencies --    321.4774               336.2123               422.1810
 Red. masses --      5.9268                19.3949                 3.4655
 Frc consts  --      0.3609                 1.2917                 0.3639
 IR Inten    --      0.0267                 2.6350                 2.4526

                      7                      8                      9
                      A                      A                      A
 Frequencies --    431.7585               480.7122               555.2360
 Red. masses --      8.9587                11.5503                 5.3598
 Frc consts  --      0.9840                 1.5726                 0.9735
 IR Inten    --     22.2848                 6.4853                13.2112

                     10                     11                     12
                      A                      A                      A
 Frequencies --    601.3846               665.2661               737.5971
 Red. masses --      2.6128                 7.7704                 3.6532
 Frc consts  --      0.5568                 2.0262                 1.1710
 IR Inten    --      6.6167                16.2823                 0.0144

                     13                     14                     15
                      A                      A                      A
 Frequencies --    809.0650               814.0750               869.7920
 Red. masses --      5.8068                 1.7525                 1.6501
 Frc consts  --      2.2395                 0.6843                 0.7355
 IR Inten    --    105.9111                24.8957                77.0104

                     16                     17                     18
                      A                      A                      A
 Frequencies --    876.7918               955.9418               992.2652
 Red. masses --      6.6118                 1.2674                 3.0828
 Frc consts  --      2.9948                 0.6824                 1.7884
 IR Inten    --     68.8154                 0.2231               223.3854

                     19                     20                     21
                      A                      A                      A
 Frequencies --   1106.8193              1205.8441              1239.5852
 Red. masses --      1.7106                 1.9007                 1.7437
 Frc consts  --      1.2347                 1.6284                 1.5786
 IR Inten    --      1.9980                17.4136                11.2635

                     22                     23                     24
                      A                      A                      A
 Frequencies --   1338.7964              1421.1381              1487.0972
 Red. masses --      2.0779                 4.0728                10.2206
 Frc consts  --      2.1943                 4.8464                13.3170
 IR Inten    --     41.4807               161.9937                80.1853

                     25                     26                     27
                      A                      A                      A
 Frequencies --   1491.9524              1514.4048              1634.9569
 Red. masses --      6.2466                 5.9262                 7.1627
 Frc consts  --      8.1923                 8.0078                11.2808
 IR Inten    --      9.3970              1267.0693                30.5975

                     28                     29                     30
                      A                      A                      A
 Frequencies --   3154.1146              3172.2840              3183.5488
 Red. masses --      1.0862                 1.0954                 1.0916
 Frc consts  --      6.3665                 6.4949                 6.5181
 IR Inten    --     24.1593                26.3386                 5.5726

 - Thermochemistry -
 -------------------
 Temperature   298.150 Kelvin.  Pressure   1.00000 Atm.
 Atom     1 has atomic number 17 and mass  34.96885

 Molecular mass:   141.98216 amu.
 Principal axes and moments of inertia in atomic units:
                           1         2         3
     Eigenvalues --   767.864281622.987862390.85185
           X            0.86606   0.49982  -0.01062
           Y           -0.49988   0.86609  -0.00355
           Z            0.00743   0.00838   0.99994
 This molecule is an asymmetric top.
 Rotational symmetry number  1.
 Warning -- assumption of classical behavior for rotation
           may cause significant error
 Rotational temperatures (Kelvin)      0.11280     0.05337     0.03623
 Rotational constants (GHZ):           2.35034     1.11199     0.75485
 Zero-point vibrational energy     193432.2 (Joules/Mol)
                                   46.23140 (Kcal/Mol)
 Warning -- explicit consideration of  10 degrees of freedom as
           vibrations may cause significant error
 Vibrational temperatures:    162.11   250.20   334.46   462.53   483.73
          (Kelvin)            607.42   621.20   691.64   798.86   865.26
                              957.17  1061.24  1164.06  1171.27  1251.44
                             1261.51  1375.39  1427.65  1592.47  1734.94
                             1783.49  1926.23  2044.70  2139.60  2146.59
                             2178.89  2352.34  4538.07  4564.21  4580.42

 Zero-point correction=                           0.073674 (Hartree/Particle)
 Thermal correction to Energy=                    0.080921
 Thermal correction to Enthalpy=                  0.081866
 Thermal correction to Gibbs Free Energy=         0.040624
 Sum of electronic and zero-point Energies=           -841.277435
 Sum of electronic and thermal Energies=              -841.270188
 Sum of electronic and thermal Enthalpies=            -841.269244
 Sum of electronic and thermal Free Energies=         -841.310486

                     E (Thermal)             CV                S
                      KCal/Mol        Cal/Mol-Kelvin    Cal/Mol-Kelvin
 Total                   50.779             27.041             86.800
 Electronic               0.000              0.000              1.377
 Translational            0.889              2.981             40.763
 Rotational               0.889              2.981             29.478
 Vibrational             49.001             21.080             15.182
 Vibration     1          0.607              1.939              3.222
 Vibration     2          0.627              1.875              2.393
 Vibration     3          0.653              1.791              1.860
 Vibration     4          0.707              1.632              1.303
 Vibration     5          0.717              1.603              1.230
 Vibration     6          0.785              1.422              0.885
 Vibration     7          0.793              1.401              0.853
 Vibration     8          0.837              1.293              0.708
 Vibration     9          0.911              1.128              0.533
 Vibration    10          0.960              1.029              0.447

 Optimization completed.
    -- Stationary point found.
 Normal termination of Gaussian 16 at Sat Feb 10 10:06:57 2024.
