 Gaussian 16, Revision A.03,
 Gaussian 16:  ES64L-G16RevA.03 25-Dec-2016

 --------------------------------------
 #P UB3LYP/6-311++G(d,p) nosym opt freq
 --------------------------------------

 -------
 Reduced
 -------
 Symbolic Z-matrix:
 Charge = -2 Multiplicity = 1

 SCF Done:  E(UB3LYP) =  -728.244923502     A.U. after   30 cycles
 SCF Done:  E(UB3LYP) =  -728.244923557     A.U. after   21 cycles
 SCF Done:  E(UB3LYP) =  -728.244923588     A.U. after   21 cycles
 Optimization completed.
    -- Stationary point found.
 Normal termination of Gaussian 16 at Wed Dec 27 20:10:43 2023.

 ----------------------------------------------------------------------
 #P Geom=AllCheck Guess=TCheck SCRF=Check GenChk UB3LYP/6-311++G(d,p) F
 req
 ----------------------------------------------------------------------

 Structure from the checkpoint file:  "123-an.chk"
 -------
 Reduced
 -------
 Charge = -2 Multiplicity = 1

                          Input orientation:
 ---------------------------------------------------------------------
 Center     Atomic      Atomic             Coordinates (Angstroms)
 Number     Number       Type             X           Y           Z
 ---------------------------------------------------------------------
      1          6           0       -2.884343   -1.925650   -0.139969
      2          6           0       -2.391745   -0.494010   -0.050384
      3          6           0       -3.351416    0.499679    0.049563
      4          6           0       -2.995774    1.874744    0.138071
      5          6           0       -1.667848    2.224130    0.123606
      6          6           0       -0.632206    1.256996    0.023377
      7          6           0        0.728402    1.746054    0.017944
      8          8           0        1.020730    3.001683    0.098936
      9          6           0        1.735560    0.720278   -0.085343
     10          6           0        3.108253    1.084835   -0.100304
     11          6           0        4.119427    0.151986   -0.196845
     12          6           0        3.790477   -1.232610   -0.285641
     13          6           0        2.465388   -1.618626   -0.273685
     14          6           0        1.399356   -0.686797   -0.175611
     15          6           0        0.037244   -1.182167   -0.170480
     16          8           0       -0.209385   -2.447901   -0.253206
     17          6           0       -0.988112   -0.162164   -0.067674
     18          1           0       -3.984307   -1.937775   -0.108889
     19          1           0       -2.486544   -2.539444    0.670934
     20          1           0       -2.536771   -2.414054   -1.052785
     21          1           0       -4.403165    0.214951    0.059889
     22          1           0       -3.772431    2.634671    0.215868
     23          1           0       -1.344871    3.258502    0.188350
     24          1           0        3.321575    2.147536   -0.030953
     25          1           0        5.161926    0.468367   -0.205366
     26          1           0        4.580379   -1.978884   -0.362288
     27          1           0        2.180202   -2.664334   -0.339738
 ---------------------------------------------------------------------

 SCF Done:  E(UB3LYP) =  -728.244923588     A.U. after    1 cycles

 Alpha  occ. eigenvalues --  -18.76558 -18.76371  -9.92934  -9.92758  -9.92379
 Alpha  occ. eigenvalues --   -9.92048  -9.91977  -9.91894  -9.91561  -9.91280
 Alpha  occ. eigenvalues --   -9.91024  -9.90991  -9.90502  -9.89918  -9.89217
 Alpha  occ. eigenvalues --   -9.89163  -9.89139  -0.68406  -0.67822  -0.58797
 Alpha  occ. eigenvalues --   -0.58411  -0.51598  -0.50825  -0.48426  -0.46651
 Alpha  occ. eigenvalues --   -0.43195  -0.39182  -0.36667  -0.35098  -0.31208
 Alpha  occ. eigenvalues --   -0.27990  -0.27098  -0.25405  -0.20749  -0.20059
 Alpha  occ. eigenvalues --   -0.19938  -0.18802  -0.16989  -0.16127  -0.15225
 Alpha  occ. eigenvalues --   -0.14726  -0.13045  -0.12748  -0.12618  -0.11264
 Alpha  occ. eigenvalues --   -0.10278  -0.09545  -0.08169  -0.07471  -0.06875
 Alpha  occ. eigenvalues --   -0.05922  -0.05399   0.00768   0.01823   0.02501
 Alpha  occ. eigenvalues --    0.02854   0.05465   0.06027   0.14331
 Alpha virt. eigenvalues --    0.16411   0.16546   0.17673   0.18248   0.19558
 Alpha virt. eigenvalues --    0.21034   0.21176   0.21245   0.22135   0.22770
 Alpha virt. eigenvalues --    0.23039   0.23511   0.25597   0.26053   0.26460

  Beta  occ. eigenvalues --  -18.76558 -18.76371  -9.92934  -9.92758  -9.92379
  Beta  occ. eigenvalues --   -9.92048  -9.91977  -9.91894  -9.91561  -9.91280
  Beta  occ. eigenvalues --   -9.91024  -9.90991  -9.90502  -9.89918  -9.89217
  Beta  occ. eigenvalues --   -9.89163  -9.89139  -0.68406  -0.67822  -0.58797
  Beta  occ. eigenvalues --   -0.58411  -0.51598  -0.50825  -0.48426  -0.46651
  Beta  occ. eigenvalues --   -0.43195  -0.39182  -0.36667  -0.35098  -0.31208
  Beta  occ. eigenvalues --   -0.27990  -0.27098  -0.25405  -0.20749  -0.20059
  Beta  occ. eigenvalues --   -0.19938  -0.18802  -0.16989  -0.16127  -0.15225
  Beta  occ. eigenvalues --   -0.14726  -0.13045  -0.12748  -0.12618  -0.11264
  Beta  occ. eigenvalues --   -0.10278  -0.09545  -0.08169  -0.07471  -0.06875
  Beta  occ. eigenvalues --   -0.05922  -0.05399   0.00768   0.01823   0.02501
  Beta  occ. eigenvalues --    0.02854   0.05465   0.06027   0.14331
  Beta virt. eigenvalues --    0.16411   0.16546   0.17673   0.18248   0.19558
  Beta virt. eigenvalues --    0.21034   0.21176   0.21245   0.22135   0.22770
  Beta virt. eigenvalues --    0.23039   0.23511   0.25597   0.26053   0.26460

 Mulliken charges and spin densities:
               1          2
     1  C   -0.627527   0.000000
     2  C    0.911893   0.000000
     3  C   -0.495421   0.000000
     4  C   -0.381825   0.000000
     5  C   -0.075431   0.000000
     6  C    0.556322  -0.000000
     7  C   -0.929606  -0.000000
     8  O   -0.516592   0.000000
     9  C    0.316874  -0.000000
    10  C   -0.057032  -0.000000
    11  C   -0.419186   0.000000
    12  C   -0.498752  -0.000000
    13  C    0.034161   0.000000
    14  C    0.274869   0.000000
    15  C   -0.926068  -0.000000
    16  O   -0.492310   0.000000
    17  C    0.365802   0.000000
    18  H    0.054643  -0.000000
    19  H    0.149339  -0.000000
    20  H    0.149281  -0.000000
    21  H    0.011600   0.000000
    22  H    0.083247  -0.000000
    23  H    0.121992   0.000000
    24  H    0.122163   0.000000
    25  H    0.066982  -0.000000
    26  H    0.066825  -0.000000
    27  H    0.133755  -0.000000
 Sum of Mulliken charges =  -2.00000   0.00000

 Dipole moment (field-independent basis, Debye):
    X=             -3.1214    Y=             -2.8797    Z=              0.7036  Tot=              4.3047
 Quadrupole moment (field-independent basis, Debye-Ang):
   XX=           -158.5031   YY=           -161.5704   ZZ=           -113.8800
   XY=             -3.5708   XZ=              1.3446   YZ=             -3.0736

  Exact polarizability: 426.589 -29.005 269.104 -10.427   9.421 149.386
 Approx polarizability: 732.824 -62.245 491.977 -20.192  22.342 206.815

                      1                      2                      3
                      A                      A                      A
 Frequencies --     48.9942                65.5730               125.4207
 Red. masses --      5.6886                 4.3119                 4.2760
 Frc consts  --      0.0080                 0.0109                 0.0396
 IR Inten    --      6.5250                 0.1235                 0.0398

                      4                      5                      6
                      A                      A                      A
 Frequencies --    161.5591               173.1517               218.7320
 Red. masses --      2.1266                 1.9898                 4.3756
 Frc consts  --      0.0327                 0.0351                 0.1233
 IR Inten    --      4.7116                 0.0898                 6.6958

                      7                      8                      9
                      A                      A                      A
 Frequencies --    219.2694               252.6441               309.9955
 Red. masses --      2.5247                 4.5094                 6.3166
 Frc consts  --      0.0715                 0.1696                 0.3576
 IR Inten    --      0.9904                 0.5750                 2.0626

                     10                     11                     12
                      A                      A                      A
 Frequencies --    342.4532               373.7558               385.2279
 Red. masses --      4.8571                11.9652                 6.3966
 Frc consts  --      0.3356                 0.9848                 0.5593
 IR Inten    --      3.0882                 1.1683                 0.6091

                     13                     14                     15
                      A                      A                      A
 Frequencies --    386.1475               435.8157               447.3744
 Red. masses --      7.9348                 3.3627                 4.4135
 Frc consts  --      0.6971                 0.3763                 0.5204
 IR Inten    --      0.4125                 0.1653                 1.9028

                     16                     17                     18
                      A                      A                      A
 Frequencies --    490.1849               496.4717               525.8193
 Red. masses --      4.1097                10.3298                 3.5823
 Frc consts  --      0.5818                 1.5001                 0.5836
 IR Inten    --      0.3561                 0.2552                 9.0256

                     19                     20                     21
                      A                      A                      A
 Frequencies --    545.5396               603.0112               620.3775
 Red. masses --      5.2331                 6.3516                 4.2907
 Frc consts  --      0.9176                 1.3608                 0.9729
 IR Inten    --      3.6538                25.9039                 2.0189

                     22                     23                     24
                      A                      A                      A
 Frequencies --    654.3671               671.5004               689.1706
 Red. masses --      6.3281                 1.6284                 6.9721
 Frc consts  --      1.5965                 0.4326                 1.9511
 IR Inten    --      1.7417               113.0568                 1.0541

                     25                     26                     27
                      A                      A                      A
 Frequencies --    706.2421               720.7739               755.5734
 Red. masses --      2.1128                 1.6121                 2.6161
 Frc consts  --      0.6209                 0.4934                 0.8799
 IR Inten    --      1.5892                 4.5902                26.0811

                     28                     29                     30
                      A                      A                      A
 Frequencies --    765.4787               782.6930               792.7239
 Red. masses --      1.6970                 1.4345                 5.8923
 Frc consts  --      0.5859                 0.5178                 2.1816
 IR Inten    --      0.4549                 0.0020                 7.3585

                     31                     32                     33
                      A                      A                      A
 Frequencies --    831.6950               856.8058               928.4123
 Red. masses --      5.0958                 6.3816                 5.3848
 Frc consts  --      2.0768                 2.7602                 2.7347
 IR Inten    --      0.0881                14.5903                 0.6333

                     34                     35                     36
                      A                      A                      A
 Frequencies --    949.2855               954.5169               958.2578
 Red. masses --      1.2442                 1.2953                 1.3514
 Frc consts  --      0.6606                 0.6953                 0.7311
 IR Inten    --      0.0781                 0.1724                 4.8025

                     37                     38                     39
                      A                      A                      A
 Frequencies --    970.8510              1007.4044              1022.4537
 Red. masses --      2.8433                 2.0841                 2.3470
 Frc consts  --      1.5790                 1.2461                 1.4456
 IR Inten    --      7.6918               129.6880                48.5579

                     40                     41                     42
                      A                      A                      A
 Frequencies --   1045.5267              1078.1912              1091.9572
 Red. masses --      1.4991                 1.8898                 2.1123
 Frc consts  --      0.9655                 1.2943                 1.4839
 IR Inten    --      0.4385               123.5196                72.1102

                     43                     44                     45
                      A                      A                      A
 Frequencies --   1109.9329              1146.9466              1165.2648
 Red. masses --      1.4839                 1.2400                 2.9510
 Frc consts  --      1.0771                 0.9611                 2.3608
 IR Inten    --    175.1183                16.5541                60.5947

                     46                     47                     48
                      A                      A                      A
 Frequencies --   1188.3416              1213.7732              1225.1271
 Red. masses --      2.0795                 2.6943                 2.5617
 Frc consts  --      1.7301                 2.3386                 2.2654
 IR Inten    --     63.9369               181.1019                28.6916

                     49                     50                     51
                      A                      A                      A
 Frequencies --   1236.9465              1307.9920              1345.4431
 Red. masses --      2.3793                 5.5951                 6.5869
 Frc consts  --      2.1448                 5.6398                 7.0252
 IR Inten    --    154.6672                93.1316               382.2180

                     52                     53                     54
                      A                      A                      A
 Frequencies --   1349.3125              1363.3284              1400.8543
 Red. masses --      2.5719                 2.6960                 1.3732
 Frc consts  --      2.7588                 2.9523                 1.5877
 IR Inten    --    254.2350               683.3565                22.6225

                     55                     56                     57
                      A                      A                      A
 Frequencies --   1407.7262              1442.4438              1452.6216
 Red. masses --      2.2731                 1.0482                 3.0904
 Frc consts  --      2.6540                 1.2849                 3.8421
 IR Inten    --     91.0084                 1.5033                 2.5057

                     58                     59                     60
                      A                      A                      A
 Frequencies --   1466.3502              1474.4605              1477.9024
 Red. masses --      2.3532                 3.4778                 2.5379
 Frc consts  --      2.9811                 4.4547                 3.2660
 IR Inten    --      9.7036               140.7270               264.2059

                     61                     62                     63
                      A                      A                      A
 Frequencies --   1481.6237              1529.8380              1574.0850
 Red. masses --      2.3380                 5.7801                 4.9005
 Frc consts  --      3.0240                 7.9703                 7.1540
 IR Inten    --      2.6731               104.7798                 1.5153

                     64                     65                     66
                      A                      A                      A
 Frequencies --   1579.3768              1584.1711              2958.8404
 Red. masses --      6.7608                 5.5401                 1.0555
 Frc consts  --      9.9362                 8.1916                 5.4444
 IR Inten    --      0.4041                 3.9866               210.1055

                     67                     68                     69
                      A                      A                      A
 Frequencies --   3068.3763              3079.1942              3080.6722
 Red. masses --      1.0778                 1.0990                 1.0825
 Frc consts  --      5.9786                 6.1393                 6.0532
 IR Inten    --     15.6966                11.4461                73.4354

                     70                     71                     72
                      A                      A                      A
 Frequencies --   3081.9679              3105.9462              3106.8303
 Red. masses --      1.0822                 1.0910                 1.0903
 Frc consts  --      6.0567                 6.2009                 6.2004
 IR Inten    --     36.0139               236.5292                53.9209

                     73                     74                     75
                      A                      A                      A
 Frequencies --   3152.7474              3155.8013              3158.3956
 Red. masses --      1.0901                 1.0909                 1.0909
 Frc consts  --      6.3842                 6.4009                 6.4114
 IR Inten    --     31.2071                66.5975                25.9366

 - Thermochemistry -
 -------------------
 Temperature   298.150 Kelvin.  Pressure   1.00000 Atm.
 Atom     1 has atomic number  6 and mass  12.00000

 Molecular mass:   222.06808 amu.
 Principal axes and moments of inertia in atomic units:
                           1         2         3
     Eigenvalues --  2094.492834416.416646500.14952
           X            0.99678   0.07460   0.02947
           Y           -0.07234   0.99482  -0.07136
           Z           -0.03464   0.06900   0.99702
 This molecule is an asymmetric top.
 Rotational symmetry number  1.
 Warning -- assumption of classical behavior for rotation
           may cause significant error
 Rotational temperatures (Kelvin)      0.04135     0.01961     0.01332
 Rotational constants (GHZ):           0.86166     0.40864     0.27765
 Zero-point vibrational energy     525962.3 (Joules/Mol)
                                  125.70801 (Kcal/Mol)
 Warning -- explicit consideration of  21 degrees of freedom as
           vibrations may cause significant error
 Vibrational temperatures:     70.49    94.34   180.45   232.45   249.13
          (Kelvin)            314.71   315.48   363.50   446.01   492.71
                              537.75   554.26   555.58   627.04   643.67
                              705.27   714.31   756.54   784.91   867.60
                              892.58   941.49   966.14   991.56  1016.12
                             1037.03  1087.10  1101.35  1126.12  1140.55
                             1196.62  1232.75  1335.78  1365.81  1373.34
                             1378.72  1396.84  1449.43  1471.08  1504.28
                             1551.28  1571.08  1596.95  1650.20  1676.56
                             1709.76  1746.35  1762.68  1779.69  1881.91
                             1935.79  1941.36  1961.53  2015.52  2025.40
                             2075.35  2090.00  2109.75  2121.42  2126.37
                             2131.73  2201.10  2264.76  2272.37  2279.27
                             4257.11  4414.71  4430.27  4432.40  4434.26
                             4468.76  4470.04  4536.10  4540.49  4544.23

 Zero-point correction=                           0.200328 (Hartree/Particle)
 Thermal correction to Energy=                    0.213398
 Thermal correction to Enthalpy=                  0.214343
 Thermal correction to Gibbs Free Energy=         0.160963
 Sum of electronic and zero-point Energies=           -728.044595
 Sum of electronic and thermal Energies=              -728.031525
 Sum of electronic and thermal Enthalpies=            -728.030581
 Sum of electronic and thermal Free Energies=         -728.083961

                     E (Thermal)             CV                S
                      KCal/Mol        Cal/Mol-Kelvin    Cal/Mol-Kelvin
 Total                  133.909             53.400            112.347
 Electronic               0.000              0.000              0.000
 Translational            0.889              2.981             42.096
 Rotational               0.889              2.981             32.464
 Vibrational            132.132             47.438             37.787
 Vibration     1          0.595              1.978              4.858
 Vibration     2          0.597              1.971              4.282
 Vibration     3          0.610              1.928              3.015
 Vibration     4          0.622              1.890              2.531
 Vibration     5          0.627              1.876              2.401
 Vibration     6          0.646              1.813              1.970
 Vibration     7          0.647              1.812              1.965
 Vibration     8          0.664              1.758              1.712
 Vibration     9          0.699              1.655              1.362
 Vibration    10          0.722              1.591              1.201
 Vibration    11          0.745              1.526              1.064
 Vibration    12          0.754              1.502              1.019
 Vibration    13          0.755              1.500              1.015
 Vibration    14          0.796              1.392              0.840
 Vibration    15          0.807              1.367              0.804
 Vibration    16          0.846              1.272              0.683
 Vibration    17          0.852              1.258              0.667
 Vibration    18          0.881              1.193              0.597
 Vibration    19          0.901              1.149              0.553
 Vibration    20          0.961              1.025              0.445
 Vibration    21          0.980              0.989              0.416

 Optimization completed.
    -- Stationary point found.
 Normal termination of Gaussian 16 at Wed Dec 27 21:06:04 2023.
