 Q-Chem 5.4, Q-Chem, Inc., Pleasanton, CA (2021)
 Q-Chem 5.4.0 for Intel X86 EM64T Linux

User input:
--------------------------------------------------------------
$molecule
-2 1
C                 -2.8843430000     -1.9256500000     -0.1399690000
C                 -2.3917450000     -0.4940100000     -0.0503840000
C                 -3.3514160000      0.4996790000      0.0495630000
C                 -2.9957740000      1.8747440000      0.1380710000
C                 -1.6678480000      2.2241300000      0.1236060000
C                 -0.6322060000      1.2569960000      0.0233770000
C                  0.7284020000      1.7460540000      0.0179440000
O                  1.0207300000      3.0016830000      0.0989360000
C                  1.7355600000      0.7202780000     -0.0853430000
C                  3.1082530000      1.0848350000     -0.1003040000
C                  4.1194270000      0.1519860000     -0.1968450000
C                  3.7904770000     -1.2326100000     -0.2856410000
C                  2.4653880000     -1.6186260000     -0.2736850000
C                  1.3993560000     -0.6867970000     -0.1756110000
C                  0.0372440000     -1.1821670000     -0.1704800000
O                 -0.2093850000     -2.4479010000     -0.2532060000
C                 -0.9881120000     -0.1621640000     -0.0676740000
H                 -3.9843070000     -1.9377750000     -0.1088890000
H                 -2.4865440000     -2.5394440000      0.6709340000
H                 -2.5367710000     -2.4140540000     -1.0527850000
H                 -4.4031650000      0.2149510000      0.0598890000
H                 -3.7724310000      2.6346710000      0.2158680000
H                 -1.3448710000      3.2585020000      0.1883500000
H                  3.3215750000      2.1475360000     -0.0309530000
H                  5.1619260000      0.4683670000     -0.2053660000
H                  4.5803790000     -1.9788840000     -0.3622880000
H                  2.1802020000     -2.6643340000     -0.3397380000
$end

$rem
BASIS  =  6-311++G(d,p)
GUI  =  2
JOB_TYPE  =  SP
METHOD  =  B3LYP
SCF_CONVERGENCE  = 8
SOLVENT_METHOD = sm12
$end

$smx
solvent dimethylformamide
charges CM5
$end

--------------------------------------------------------------

             Standard Nuclear Orientation (Angstroms)
    I     Atom           X                Y                Z
 ----------------------------------------------------------------
    1      C      -2.8843430000    -1.9256500000    -0.1399690000
    2      C      -2.3917450000    -0.4940100000    -0.0503840000
    3      C      -3.3514160000     0.4996790000     0.0495630000
    4      C      -2.9957740000     1.8747440000     0.1380710000
    5      C      -1.6678480000     2.2241300000     0.1236060000
    6      C      -0.6322060000     1.2569960000     0.0233770000
    7      C       0.7284020000     1.7460540000     0.0179440000
    8      O       1.0207300000     3.0016830000     0.0989360000
    9      C       1.7355600000     0.7202780000    -0.0853430000
   10      C       3.1082530000     1.0848350000    -0.1003040000
   11      C       4.1194270000     0.1519860000    -0.1968450000
   12      C       3.7904770000    -1.2326100000    -0.2856410000
   13      C       2.4653880000    -1.6186260000    -0.2736850000
   14      C       1.3993560000    -0.6867970000    -0.1756110000
   15      C       0.0372440000    -1.1821670000    -0.1704800000
   16      O      -0.2093850000    -2.4479010000    -0.2532060000
   17      C      -0.9881120000    -0.1621640000    -0.0676740000
   18      H      -3.9843070000    -1.9377750000    -0.1088890000
   19      H      -2.4865440000    -2.5394440000     0.6709340000
   20      H      -2.5367710000    -2.4140540000    -1.0527850000
   21      H      -4.4031650000     0.2149510000     0.0598890000
   22      H      -3.7724310000     2.6346710000     0.2158680000
   23      H      -1.3448710000     3.2585020000     0.1883500000
   24      H       3.3215750000     2.1475360000    -0.0309530000
   25      H       5.1619260000     0.4683670000    -0.2053660000
   26      H       4.5803790000    -1.9788840000    -0.3622880000
   27      H       2.1802020000    -2.6643340000    -0.3397380000
 ----------------------------------------------------------------

   18    -728.2375554710      3.16e-09  Convergence criterion met
 Total energy in the final basis set =     -728.5222976573

                    Orbital Energies (a.u.)
 --------------------------------------------------------------

 Alpha MOs
 -- Occupied --
-19.0285 -19.0285 -10.1930 -10.1872 -10.1834 -10.1755 -10.1742 -10.1716
-10.1699 -10.1696 -10.1669 -10.1644 -10.1642 -10.1616 -10.1556 -10.1553
-10.1549  -0.9470  -0.9427  -0.8459  -0.8430  -0.7735  -0.7655  -0.7438
 -0.7250  -0.6844  -0.6516  -0.6244  -0.6092  -0.5703  -0.5386  -0.5274
 -0.5104  -0.4621  -0.4573  -0.4532  -0.4467  -0.4207  -0.4181  -0.4076
 -0.3966  -0.3900  -0.3891  -0.3810  -0.3664  -0.3638  -0.3535  -0.3386
 -0.3337  -0.3320  -0.3171  -0.3154  -0.2521  -0.2409  -0.2372  -0.2334
 -0.2075  -0.2015  -0.1196

          Ground-State Mulliken Net Atomic Charges

     Atom                 Charge (a.u.)
  ----------------------------------------
      1 C                     1.242045
      2 C                    -0.173954
      3 C                     2.018931
      4 C                     1.554960
      5 C                    -0.141153
      6 C                    -1.843779
      7 C                    -3.102833
      8 O                    -0.326724
      9 C                    -1.688299
     10 C                    -0.317610
     11 C                     1.811688
     12 C                     1.598123
     13 C                     0.047060
     14 C                    -1.348387
     15 C                    -2.726135
     16 O                    -0.248312
     17 C                    -0.776927
     18 H                     0.314518
     19 H                     0.120860
     20 H                     0.120950
     21 H                     0.278299
     22 H                     0.415169
     23 H                     0.101424
     24 H                     0.112935
     25 H                     0.410042
     26 H                     0.407732
     27 H                     0.139376
  ----------------------------------------
  Sum of atomic charges =    -2.000000

                    Cartesian Multipole Moments
 -----------------------------------------------------------------
    Charge (ESU x 10^10)
                -9.6064
    Dipole Moment (Debye)
         X      -3.4964      Y      -3.5289      Z       0.6666
       Tot       5.0122
    Quadrupole Moments (Debye-Ang)
        XX    -144.8234     XY      -5.1690     YY    -160.8157
        XZ       0.8346     YZ      -2.8466     ZZ    -114.6366

 Total job time:  708.19s(wall), 5370.49s(cpu)
        *  Thank you very much for using Q-Chem.  Have a nice day.  *
