 Gaussian 16, Revision A.03,
 Gaussian 16:  ES64L-G16RevA.03 25-Dec-2016

 ----------------------------------------------------------------
 #P UB3LYP/6-311++G(d,p) SCRF=(PCM,Solvent=n,n-DiMethylFormamide)
 ----------------------------------------------------------------

 ------------------
 Radical PCM in DMF
 ------------------
 Symbolic Z-matrix:
 Charge = -1 Multiplicity = 2

                         Standard orientation:
 ---------------------------------------------------------------------
 Center     Atomic      Atomic             Coordinates (Angstroms)
 Number     Number       Type             X           Y           Z
 ---------------------------------------------------------------------
      1          6           0       -2.756632   -0.927638    0.498166
      2          8           0       -1.700465   -1.117504   -0.441174
      3          6           0       -0.537612   -0.404528   -0.199283
      4          6           0        0.638668   -1.105527   -0.147555
      5          6           0        1.926901   -0.467404    0.027515
      6          8           0        3.006971   -1.123213    0.074925
      7          6           0        1.885267    0.975706    0.156298
      8          6           0        0.709005    1.676200    0.102388
      9          6           0       -0.580202    1.053346   -0.098098
     10          8           0       -1.653197    1.720867   -0.191843
     11          1           0       -3.054808    0.120942    0.543606
     12          1           0       -3.587815   -1.545841    0.149982
     13          1           0       -2.448967   -1.272919    1.495507
     14          1           0        0.619191   -2.186103   -0.246880
     15          1           0        2.836244    1.482349    0.295925
     16          1           0        0.697309    2.759447    0.190004
 ---------------------------------------------------------------------

 SCF Done:  E(UB3LYP) =  -496.278534347     A.U. after   18 cycles

 The electronic state is 2-A.
 Alpha  occ. eigenvalues --  -19.13921 -19.08009 -19.07769 -10.22300 -10.22215
 Alpha  occ. eigenvalues --  -10.22192 -10.20551 -10.16532 -10.16343 -10.15909
 Alpha  occ. eigenvalues --   -1.05235  -0.99814  -0.99644  -0.82211  -0.74958
 Alpha  occ. eigenvalues --   -0.69434  -0.67022  -0.60013  -0.56676  -0.49488
 Alpha  occ. eigenvalues --   -0.48715  -0.46585  -0.45762  -0.43437  -0.42392
 Alpha  occ. eigenvalues --   -0.40678  -0.40263  -0.38210  -0.37495  -0.36682
 Alpha  occ. eigenvalues --   -0.34915  -0.30006  -0.28029  -0.24755  -0.24165
 Alpha  occ. eigenvalues --   -0.23603  -0.16428
 Alpha virt. eigenvalues --   -0.00774   0.00101   0.01167   0.01658   0.02442
 Alpha virt. eigenvalues --    0.03433   0.03812   0.04225   0.04724   0.06548
 Alpha virt. eigenvalues --    0.06598   0.07409   0.08754   0.09416   0.09911

  Beta  occ. eigenvalues --  -19.13899 -19.07290 -19.07091 -10.22134 -10.22094
  Beta  occ. eigenvalues --  -10.22071 -10.20548 -10.16445 -10.16190 -10.15842
  Beta  occ. eigenvalues --   -1.05113  -0.98627  -0.98397  -0.81601  -0.74721
  Beta  occ. eigenvalues --   -0.68932  -0.66292  -0.59606  -0.56330  -0.49293
  Beta  occ. eigenvalues --   -0.48456  -0.46177  -0.45462  -0.43264  -0.42152
  Beta  occ. eigenvalues --   -0.40047  -0.38616  -0.37681  -0.36476  -0.34770
  Beta  occ. eigenvalues --   -0.34447  -0.29576  -0.25006  -0.23914  -0.23521
  Beta  occ. eigenvalues --   -0.22969
  Beta virt. eigenvalues --   -0.09128   0.00050   0.00654   0.01256   0.01694
  Beta virt. eigenvalues --    0.03032   0.03752   0.04212   0.04776   0.05081
  Beta virt. eigenvalues --    0.06634   0.06887   0.07537   0.08860   0.09472

 Mulliken charges and spin densities:
               1          2
     1  C   -0.289698   0.005818
     2  O   -0.227550   0.001748
     3  C   -0.349192   0.113523
     4  C    0.581860   0.013604
     5  C   -0.571567   0.122710
     6  O   -0.514511   0.235105
     7  C    0.126600   0.107189
     8  C   -0.044479   0.081402
     9  C   -0.248845   0.080402
    10  O   -0.500370   0.258898
    11  H    0.176848  -0.001215
    12  H    0.146718   0.000482
    13  H    0.133167   0.000396
    14  H    0.205372  -0.005708
    15  H    0.184935  -0.008079
    16  H    0.190712  -0.006276
 Sum of Mulliken charges =  -1.00000   1.00000

 Dipole moment (field-independent basis, Debye):
    X=             -3.8763    Y=             -0.2582    Z=              1.6626  Tot=              4.2257
 Quadrupole moment (field-independent basis, Debye-Ang):
   XX=            -89.5345   YY=            -72.1327   ZZ=            -62.9637
   XY=             17.7927   XZ=             -4.3729   YZ=             -0.0325

 Normal termination of Gaussian 16 at Wed Jan 24 22:49:06 2024.
