 Gaussian 16, Revision A.03,
 Gaussian 16:  ES64L-G16RevA.03 25-Dec-2016

 ----------------------------------------------------------------
 #P UB3LYP/6-311++G(d,p) SCRF=(PCM,Solvent=n,n-DiMethylFormamide)
 ----------------------------------------------------------------

 ------------------
 Radical PCM in DMF
 ------------------
 Symbolic Z-matrix:
 Charge = -1 Multiplicity = 2

                         Standard orientation:
 ---------------------------------------------------------------------
 Center     Atomic      Atomic             Coordinates (Angstroms)
 Number     Number       Type             X           Y           Z
 ---------------------------------------------------------------------
      1          6           0        3.293963   -1.484049   -0.000068
      2          6           0        1.994835   -0.711379   -0.000048
      3          6           0        0.782035   -1.382165    0.000003
      4          6           0       -0.453513   -0.708845    0.000041
      5          6           0       -1.712520   -1.479417    0.000041
      6          8           0       -1.721261   -2.741315    0.000050
      7          6           0       -2.913332   -0.689666   -0.000016
      8          6           0       -2.913303    0.689724   -0.000034
      9          6           0       -1.712456    1.479440   -0.000003
     10          8           0       -1.721168    2.741334   -0.000001
     11          6           0       -0.453486    0.708849    0.000006
     12          6           0        0.782079    1.382150   -0.000043
     13          6           0        1.994851    0.711331   -0.000013
     14          6           0        3.293974    1.484006    0.000076
     15          1           0        3.101930   -2.559365   -0.001405
     16          1           0        3.909116   -1.253375   -0.878799
     17          1           0        3.907878   -1.255373    0.880066
     18          1           0        0.750915   -2.467188   -0.000056
     19          1           0       -3.849589   -1.241616   -0.000044
     20          1           0       -3.849544    1.241690   -0.000077
     21          1           0        0.751016    2.467182   -0.000086
     22          1           0        3.908779    1.254057   -0.879094
     23          1           0        3.101913    2.559306   -0.000331
     24          1           0        3.908250    1.254642    0.879784
 ---------------------------------------------------------------------

 SCF Done:  E(UB3LYP) =  -614.065987691     A.U. after   17 cycles

 The electronic state is 2-A.
 Alpha  occ. eigenvalues --  -19.07456 -19.07455 -10.21903 -10.21902 -10.17896
 Alpha  occ. eigenvalues --  -10.17852 -10.16825 -10.16779 -10.16367 -10.16366
 Alpha  occ. eigenvalues --  -10.16329 -10.16329 -10.16041 -10.15981  -0.99788
 Alpha  occ. eigenvalues --   -0.99552  -0.86046  -0.80838  -0.76269  -0.76017
 Alpha  occ. eigenvalues --   -0.70477  -0.67770  -0.66287  -0.60063  -0.58818
 Alpha  occ. eigenvalues --   -0.55614  -0.49135  -0.48480  -0.47482  -0.43717
 Alpha  occ. eigenvalues --   -0.43305  -0.42465  -0.42448  -0.40944  -0.40857
 Alpha  occ. eigenvalues --   -0.39736  -0.38652  -0.38283  -0.38048  -0.37466
 Alpha  occ. eigenvalues --   -0.37269  -0.33988  -0.33480  -0.33068  -0.27499
 Alpha  occ. eigenvalues --   -0.24930  -0.24253  -0.23816  -0.23565  -0.15206
 Alpha virt. eigenvalues --   -0.02837  -0.01234  -0.00436   0.00672   0.01203
 Alpha virt. eigenvalues --    0.02464   0.02780   0.03360   0.04052   0.04863
 Alpha virt. eigenvalues --    0.04972   0.05341   0.05771   0.05790   0.06623

  Beta  occ. eigenvalues --  -19.06829 -19.06828 -10.21749 -10.21747 -10.17873
  Beta  occ. eigenvalues --  -10.17828 -10.16791 -10.16745 -10.16354 -10.16353
  Beta  occ. eigenvalues --  -10.16331 -10.16330 -10.15870 -10.15809  -0.98694
  Beta  occ. eigenvalues --   -0.98432  -0.85904  -0.80337  -0.76162  -0.75778
  Beta  occ. eigenvalues --   -0.70214  -0.67642  -0.65402  -0.59978  -0.58530
  Beta  occ. eigenvalues --   -0.55300  -0.49008  -0.48228  -0.47108  -0.43594
  Beta  occ. eigenvalues --   -0.43178  -0.42378  -0.42248  -0.40359  -0.39694
  Beta  occ. eigenvalues --   -0.39333  -0.38537  -0.38162  -0.37904  -0.37078
  Beta  occ. eigenvalues --   -0.34819  -0.33848  -0.32974  -0.32644  -0.24602
  Beta  occ. eigenvalues --   -0.24301  -0.23667  -0.23278  -0.22997
  Beta virt. eigenvalues --   -0.08428  -0.02097  -0.00428  -0.00139   0.00694
  Beta virt. eigenvalues --    0.01216   0.02481   0.02803   0.03449   0.04061
  Beta virt. eigenvalues --    0.04873   0.05447   0.05799   0.05903   0.06402

 Mulliken charges and spin densities:
               1          2
     1  C   -0.519841  -0.000931
     2  C    0.586111   0.016667
     3  C   -0.301055   0.039457
     4  C    0.028409   0.011333
     5  C   -0.646434   0.078627
     6  O   -0.493979   0.225957
     7  C    0.060468   0.141032
     8  C    0.060524   0.141059
     9  C   -0.646452   0.078618
    10  O   -0.493975   0.225957
    11  C    0.028261   0.011328
    12  C   -0.301107   0.039456
    13  C    0.586085   0.016658
    14  C   -0.519794  -0.000931
    15  H    0.167732   0.000039
    16  H    0.158052   0.001120
    17  H    0.158264   0.001123
    18  H    0.125711  -0.002839
    19  H    0.176631  -0.011587
    20  H    0.176633  -0.011588
    21  H    0.125710  -0.002839
    22  H    0.158123   0.001121
    23  H    0.167733   0.000039
    24  H    0.158191   0.001122
 Sum of Mulliken charges =  -1.00000   1.00000

 Dipole moment (field-independent basis, Debye):
    X=              9.4464    Y=              0.0000    Z=              0.0000  Tot=              9.4464
 Quadrupole moment (field-independent basis, Debye-Ang):
   XX=            -92.6065   YY=           -124.2969   ZZ=            -87.8863
   XY=             -0.0005   XZ=              0.0009   YZ=              0.0004

 Normal termination of Gaussian 16 at Sun Jan 21 08:23:00 2024.
