 Gaussian 16, Revision A.03,
 Gaussian 16:  ES64L-G16RevA.03 25-Dec-2016

 ----------------------------------------------------------------
 #P UB3LYP/6-311++G(d,p) SCRF=(PCM,Solvent=n,n-DiMethylFormamide)
 ----------------------------------------------------------------

 ------------------
 Quinone PCM in DMF
 ------------------
 Symbolic Z-matrix:
 Charge =  0 Multiplicity = 1

                         Standard orientation:
 ---------------------------------------------------------------------
 Center     Atomic      Atomic             Coordinates (Angstroms)
 Number     Number       Type             X           Y           Z
 ---------------------------------------------------------------------
      1          6           0       -0.775051    0.933550   -0.556095
      2          6           0       -2.067480    1.599345   -0.204916
      3          6           0       -3.089527    0.867805    0.290439
      4          6           0       -2.931929   -0.604041    0.464276
      5          6           0       -1.619988   -1.297860    0.135679
      6          6           0       -0.601732   -0.520848   -0.289683
      7          8           0        0.123320    1.585861   -1.059968
      8          8           0       -3.863703   -1.265047    0.887535
      9         16           0        1.038176   -1.224029   -0.744844
     10          6           0        2.275408   -0.173653    0.042385
     11          6           0        2.969202    0.758545   -0.723356
     12          6           0        2.560618   -0.377952    1.391048
     13          6           0        3.555355    0.391180    1.990709
     14          6           0        3.971352    1.509603   -0.115289
     15          6           0        4.259098    1.330929    1.238086
     16          8           0        1.173819   -1.119457   -2.198385
     17          8           0        1.133070   -2.532192   -0.085409
     18          1           0        2.719910    0.885886   -1.767897
     19          1           0        2.031257   -1.137989    1.951886
     20          1           0        4.525963    2.235315   -0.698571
     21          1           0        3.789888    0.244719    3.038608
     22          6           0       -4.437887    1.397001    0.689496
     23          6           0       -2.086005    3.078091   -0.464763
     24          1           0        5.038205    1.921881    1.706340
     25          1           0       -4.498656    2.479989    0.617434
     26          1           0       -4.670604    1.098737    1.714644
     27          1           0       -5.219046    0.958382    0.062058
     28          1           0       -1.790622    3.279936   -1.496973
     29          1           0       -1.348706    3.584122    0.165492
     30          1           0       -3.062297    3.520786   -0.284323
     31          6           0       -1.619860   -2.784834    0.339949
     32          1           0       -2.631251   -3.116918    0.562707
     33          1           0       -0.959536   -3.059391    1.165417
     34          1           0       -1.236805   -3.305478   -0.537296
 ---------------------------------------------------------------------

 SCF Done:  E(UB3LYP) =  -1279.30100342     A.U. after   18 cycles

 The electronic state is 1-A.
 Alpha  occ. eigenvalues --  -89.07140 -19.15073 -19.14617 -19.13738 -19.13365
 Alpha  occ. eigenvalues --  -10.29761 -10.29548 -10.24710 -10.24260 -10.22451
 Alpha  occ. eigenvalues --  -10.22194 -10.22034 -10.20481 -10.20248 -10.19735
 Alpha  occ. eigenvalues --  -10.19553 -10.19484 -10.17931 -10.17901 -10.17854
 Alpha  occ. eigenvalues --   -8.13503  -6.09769  -6.09691  -6.09606  -1.13174
 Alpha  occ. eigenvalues --   -1.08451  -1.08190  -1.02797  -0.88755  -0.88112
 Alpha  occ. eigenvalues --   -0.83949  -0.79331  -0.77358  -0.75989  -0.75261
 Alpha  occ. eigenvalues --   -0.71889  -0.67913  -0.67005  -0.63266  -0.62577
 Alpha  occ. eigenvalues --   -0.59382  -0.58940  -0.55790  -0.55018  -0.51965
 Alpha  occ. eigenvalues --   -0.49698  -0.48953  -0.48743  -0.47640  -0.47325
 Alpha  occ. eigenvalues --   -0.46632  -0.46385  -0.44806  -0.44527  -0.44258
 Alpha  occ. eigenvalues --   -0.43414  -0.43331  -0.41908  -0.41208  -0.40422
 Alpha  occ. eigenvalues --   -0.40174  -0.40055  -0.39422  -0.38929  -0.38415
 Alpha  occ. eigenvalues --   -0.37072  -0.35985  -0.34912  -0.33184  -0.32040
 Alpha  occ. eigenvalues --   -0.31386  -0.30400  -0.29065  -0.28246  -0.27982
 Alpha  occ. eigenvalues --   -0.27461
 Alpha virt. eigenvalues --   -0.14104  -0.06039  -0.03925  -0.03178  -0.01345
 Alpha virt. eigenvalues --   -0.01130  -0.00223   0.00401   0.01226   0.01713
 Alpha virt. eigenvalues --    0.02114   0.02716   0.02809   0.03183   0.03554

  Beta  occ. eigenvalues --  -89.07140 -19.15073 -19.14617 -19.13738 -19.13365
  Beta  occ. eigenvalues --  -10.29761 -10.29548 -10.24710 -10.24260 -10.22451
  Beta  occ. eigenvalues --  -10.22194 -10.22034 -10.20481 -10.20248 -10.19735
  Beta  occ. eigenvalues --  -10.19553 -10.19484 -10.17931 -10.17901 -10.17854
  Beta  occ. eigenvalues --   -8.13503  -6.09769  -6.09691  -6.09606  -1.13174
  Beta  occ. eigenvalues --   -1.08451  -1.08190  -1.02797  -0.88755  -0.88112
  Beta  occ. eigenvalues --   -0.83949  -0.79331  -0.77358  -0.75989  -0.75261
  Beta  occ. eigenvalues --   -0.71889  -0.67913  -0.67005  -0.63266  -0.62577
  Beta  occ. eigenvalues --   -0.59382  -0.58940  -0.55790  -0.55018  -0.51965
  Beta  occ. eigenvalues --   -0.49698  -0.48953  -0.48743  -0.47640  -0.47325
  Beta  occ. eigenvalues --   -0.46632  -0.46385  -0.44806  -0.44527  -0.44258
  Beta  occ. eigenvalues --   -0.43414  -0.43331  -0.41908  -0.41208  -0.40422
  Beta  occ. eigenvalues --   -0.40174  -0.40055  -0.39422  -0.38929  -0.38415
  Beta  occ. eigenvalues --   -0.37072  -0.35985  -0.34912  -0.33184  -0.32040
  Beta  occ. eigenvalues --   -0.31386  -0.30400  -0.29065  -0.28246  -0.27982
  Beta  occ. eigenvalues --   -0.27461
  Beta virt. eigenvalues --   -0.14104  -0.06039  -0.03925  -0.03178  -0.01345
  Beta virt. eigenvalues --   -0.01130  -0.00223   0.00401   0.01226   0.01713
  Beta virt. eigenvalues --    0.02114   0.02716   0.02809   0.03183   0.03554

 Mulliken charges and spin densities:
               1          2
     1  C   -0.595328   0.000000
     2  C    0.214644   0.000000
     3  C    0.557258  -0.000000
     4  C   -1.174995  -0.000000
     5  C    0.878473  -0.000000
     6  C    0.020355   0.000000
     7  O   -0.188671  -0.000000
     8  O   -0.214416  -0.000000
     9  S    0.522110  -0.000000
    10  C    0.378159   0.000000
    11  C   -0.329695  -0.000000
    12  C    0.126332   0.000000
    13  C   -0.506550  -0.000000
    14  C   -0.384444  -0.000000
    15  C   -0.316875   0.000000
    16  O   -0.134926  -0.000000
    17  O   -0.149127   0.000000
    18  H    0.261601  -0.000000
    19  H    0.240317  -0.000000
    20  H    0.221013  -0.000000
    21  H    0.220645   0.000000
    22  C   -0.457016   0.000000
    23  C   -0.559490  -0.000000
    24  H    0.199163  -0.000000
    25  H    0.134344  -0.000000
    26  H    0.190428  -0.000000
    27  H    0.195515   0.000000
    28  H    0.195965  -0.000000
    29  H    0.197025   0.000000
    30  H    0.135958  -0.000000
    31  C   -0.500868  -0.000000
    32  H    0.187385  -0.000000
    33  H    0.223136   0.000000
    34  H    0.212574  -0.000000
 Sum of Mulliken charges =  -0.00000   0.00000

 Dipole moment (field-independent basis, Debye):
    X=             -1.2921    Y=              5.5393    Z=              4.3482  Tot=              7.1596
 Quadrupole moment (field-independent basis, Debye-Ang):
   XX=           -112.1816   YY=           -125.9447   ZZ=           -126.8461
   XY=              0.8760   XZ=             11.7061   YZ=             -1.8076

 Normal termination of Gaussian 16 at Wed Jan 24 22:57:20 2024.
