 Gaussian 16, Revision A.03,
 Gaussian 16:  ES64L-G16RevA.03 25-Dec-2016

 ----------------------------------------------------------------
 #P UB3LYP/6-311++G(d,p) SCRF=(PCM,Solvent=n,n-DiMethylFormamide)
 ----------------------------------------------------------------

 -------
 Reduced
 -------
 Symbolic Z-matrix:
 Charge = -2 Multiplicity = 1

                         Standard orientation:
 ---------------------------------------------------------------------
 Center     Atomic      Atomic             Coordinates (Angstroms)
 Number     Number       Type             X           Y           Z
 ---------------------------------------------------------------------
      1          6           0       -2.667166    1.164993    0.000036
      2          6           0       -1.289000    0.553623   -0.000076
      3          6           0       -0.143879    1.366424   -0.000056
      4          6           0        1.198810    0.880092    0.000016
      5          8           0        2.256224    1.651854    0.000024
      6          6           0        1.289008   -0.553613    0.000075
      7          6           0        0.143873   -1.366425    0.000055
      8          6           0       -1.198804   -0.880101   -0.000017
      9          8           0       -2.256228   -1.651842   -0.000022
     10          6           0        2.667162   -1.165002   -0.000037
     11          1           0       -2.612899    2.262495   -0.000012
     12          1           0       -3.254427    0.842020    0.874452
     13          1           0       -3.254668    0.841938   -0.874186
     14          1           0       -0.264546    2.453096   -0.000089
     15          1           0        0.264562   -2.453095    0.000078
     16          1           0        3.254663   -0.842004    0.874212
     17          1           0        2.612871   -2.262503   -0.000035
     18          1           0        3.254454   -0.841998   -0.874421
 ---------------------------------------------------------------------

 SCF Done:  E(UB3LYP) =  -460.477867290     A.U. after   15 cycles

 The electronic state is 1-A.
 Alpha  occ. eigenvalues --  -19.00664 -19.00664 -10.15536 -10.15535 -10.13691
 Alpha  occ. eigenvalues --  -10.13691 -10.12054 -10.12052 -10.11196 -10.11194
 Alpha  occ. eigenvalues --   -0.91422  -0.91068  -0.77569  -0.73470  -0.67706
 Alpha  occ. eigenvalues --   -0.64860  -0.59862  -0.54296  -0.49405  -0.43649
 Alpha  occ. eigenvalues --   -0.41033  -0.39119  -0.39064  -0.38215  -0.37162
 Alpha  occ. eigenvalues --   -0.35431  -0.34433  -0.33455  -0.32285  -0.30793
 Alpha  occ. eigenvalues --   -0.30042  -0.29488  -0.21343  -0.19499  -0.18694
 Alpha  occ. eigenvalues --   -0.18417  -0.10950
 Alpha virt. eigenvalues --    0.00163   0.01076   0.01920   0.02359   0.03367
 Alpha virt. eigenvalues --    0.04082   0.04854   0.05050   0.06176   0.06405
 Alpha virt. eigenvalues --    0.06881   0.07300   0.08410   0.08775   0.10166

  Beta  occ. eigenvalues --  -19.00664 -19.00664 -10.15536 -10.15535 -10.13691
  Beta  occ. eigenvalues --  -10.13691 -10.12054 -10.12052 -10.11196 -10.11194
  Beta  occ. eigenvalues --   -0.91422  -0.91068  -0.77569  -0.73470  -0.67706
  Beta  occ. eigenvalues --   -0.64860  -0.59862  -0.54296  -0.49405  -0.43649
  Beta  occ. eigenvalues --   -0.41033  -0.39119  -0.39064  -0.38215  -0.37162
  Beta  occ. eigenvalues --   -0.35431  -0.34433  -0.33455  -0.32285  -0.30793
  Beta  occ. eigenvalues --   -0.30042  -0.29488  -0.21343  -0.19499  -0.18694
  Beta  occ. eigenvalues --   -0.18417  -0.10950
  Beta virt. eigenvalues --    0.00163   0.01076   0.01920   0.02359   0.03367
  Beta virt. eigenvalues --    0.04082   0.04854   0.05050   0.06176   0.06405
  Beta virt. eigenvalues --    0.06881   0.07300   0.08410   0.08775   0.10166

 Mulliken charges and spin densities:
               1          2
     1  C   -0.452879   0.000000
     2  C    1.062223   0.000000
     3  C   -0.589744  -0.000000
     4  C   -0.751114  -0.000000
     5  O   -0.752884   0.000000
     6  C    1.062253   0.000000
     7  C   -0.589714  -0.000000
     8  C   -0.751079   0.000000
     9  O   -0.752877   0.000000
    10  C   -0.452890  -0.000000
    11  H    0.125939   0.000000
    12  H    0.134534   0.000000
    13  H    0.134528   0.000000
    14  H    0.089354  -0.000000
    15  H    0.089349  -0.000000
    16  H    0.134526   0.000000
    17  H    0.125940  -0.000000
    18  H    0.134533   0.000000
 Sum of Mulliken charges =  -2.00000  -0.00000

 Dipole moment (field-independent basis, Debye):
    X=             -0.0002    Y=             -0.0000    Z=             -0.0000  Tot=              0.0002
 Quadrupole moment (field-independent basis, Debye-Ang):
   XX=           -113.2127   YY=            -93.6130   ZZ=            -69.5911
   XY=            -29.7389   XZ=             -0.0007   YZ=             -0.0000

 Normal termination of Gaussian 16 at Sun Jan 21 07:41:36 2024.
