 Q-Chem 5.4, Q-Chem, Inc., Pleasanton, CA (2021)
 Q-Chem 5.4.0 for Intel X86 EM64T Linux

User input:
--------------------------------------------------------------
$molecule
0 1
C                  4.2739220000     -0.0121140000     -0.1603950000
S                  3.0368350000     -1.3405030000     -0.3046120000
C                  1.5329830000     -0.4541930000     -0.1262220000
C                  1.3938550000      0.8782950000      0.0675020000
C                  0.0860020000      1.5324470000      0.2058110000
O                  0.0071690000      2.7411870000      0.3799470000
C                 -1.1330370000      0.6725140000      0.1261790000
C                 -2.3984990000      1.2470140000      0.2512260000
C                 -3.5357800000      0.4482340000      0.1771870000
C                 -3.4156230000     -0.9291500000     -0.0221830000
C                 -2.1577640000     -1.5091770000     -0.1476870000
C                 -1.0118500000     -0.7121700000     -0.0742050000
C                  0.3264550000     -1.3493350000     -0.2106570000
O                  0.4611330000     -2.5466130000     -0.3843450000
H                  4.1611090000      0.7240050000     -0.9573270000
H                  5.2407680000     -0.5044650000     -0.2648130000
H                  4.2245580000      0.4725690000      0.8154880000
H                  2.2397380000      1.5504950000      0.1332400000
H                 -2.4684160000      2.3168170000      0.4052380000
H                 -4.5177710000      0.8971080000      0.2746180000
H                 -4.3036050000     -1.5481880000     -0.0793960000
H                 -2.0421810000     -2.5747790000     -0.3027340000
$end
$rem
MAX_SCF_CYCLES=200
BASIS  =  6-311++G(d,p)
GUI  =  2
JOB_TYPE  =  SP
METHOD  =  B3LYP
SOLVENT_METHOD = PCM
$end
$pcm
theory = CPCM
$end
$solvent
dielectric 37.219
opticaldielectric 1.43
$end

--------------------------------------------------------------

             Standard Nuclear Orientation (Angstroms)
    I     Atom           X                Y                Z
 ----------------------------------------------------------------
    1      C       4.2739220000    -0.0121140000    -0.1603950000
    2      S       3.0368350000    -1.3405030000    -0.3046120000
    3      C       1.5329830000    -0.4541930000    -0.1262220000
    4      C       1.3938550000     0.8782950000     0.0675020000
    5      C       0.0860020000     1.5324470000     0.2058110000
    6      O       0.0071690000     2.7411870000     0.3799470000
    7      C      -1.1330370000     0.6725140000     0.1261790000
    8      C      -2.3984990000     1.2470140000     0.2512260000
    9      C      -3.5357800000     0.4482340000     0.1771870000
   10      C      -3.4156230000    -0.9291500000    -0.0221830000
   11      C      -2.1577640000    -1.5091770000    -0.1476870000
   12      C      -1.0118500000    -0.7121700000    -0.0742050000
   13      C       0.3264550000    -1.3493350000    -0.2106570000
   14      O       0.4611330000    -2.5466130000    -0.3843450000
   15      H       4.1611090000     0.7240050000    -0.9573270000
   16      H       5.2407680000    -0.5044650000    -0.2648130000
   17      H       4.2245580000     0.4725690000     0.8154880000
   18      H       2.2397380000     1.5504950000     0.1332400000
   19      H      -2.4684160000     2.3168170000     0.4052380000
   20      H      -4.5177710000     0.8971080000     0.2746180000
   21      H      -4.3036050000    -1.5481880000    -0.0793960000
   22      H      -2.0421810000    -2.5747790000    -0.3027340000
 ----------------------------------------------------------------

    9    -972.8176221413      4.63e-06  Convergence criterion met
 Total energy in the final basis set =     -972.8176221413

                    Orbital Energies (a.u.)
 --------------------------------------------------------------

 Alpha MOs
 -- Occupied --
-88.8788 -19.1436 -19.1309 -10.2950 -10.2815 -10.2447 -10.2099 -10.2081
-10.2020 -10.2020 -10.1988 -10.1978 -10.1968 -10.1965  -7.9644  -5.9280
 -5.9239  -5.9193  -1.0797  -1.0634  -0.8923  -0.8605  -0.8042  -0.7792
 -0.7643  -0.7110  -0.6706  -0.6489  -0.6150  -0.5891  -0.5474  -0.5293
 -0.5035  -0.4861  -0.4663  -0.4598  -0.4592  -0.4515  -0.4415  -0.4374
 -0.4265  -0.4225  -0.4039  -0.3833  -0.3811  -0.3704  -0.3508  -0.3326
 -0.2948  -0.2857  -0.2794  -0.2783  -0.2459

          Ground-State Mulliken Net Atomic Charges

     Atom                 Charge (a.u.)
  ----------------------------------------
      1 C                    -0.504745
      2 S                    -0.561017
      3 C                     0.926948
      4 C                     0.784498
      5 C                    -0.422549
      6 O                    -0.320462
      7 C                     0.483925
      8 C                     0.302706
      9 C                    -0.376910
     10 C                    -0.433106
     11 C                     0.399792
     12 C                    -0.145142
     13 C                    -1.650919
     14 O                    -0.237391
     15 H                     0.212467
     16 H                     0.224944
     17 H                     0.212707
     18 H                     0.260684
     19 H                     0.191814
     20 H                     0.227797
     21 H                     0.221823
     22 H                     0.202137
  ----------------------------------------
  Sum of atomic charges =     0.000000

                    Cartesian Multipole Moments
 -----------------------------------------------------------------
    Charge (ESU x 10^10)
                 0.0000
    Dipole Moment (Debye)
         X      -0.1067      Y       0.3303      Z       0.0452
       Tot       0.3500
    Quadrupole Moments (Debye-Ang)
        XX     -54.7823     XY       6.7695     YY    -107.9739
        XZ      -0.2772     YZ      -2.7438     ZZ     -90.6129

 Total job time:  34.95s(wall), 217.20s(cpu)
        *  Thank you very much for using Q-Chem.  Have a nice day.  *
