 Q-Chem 5.4, Q-Chem, Inc., Pleasanton, CA (2021)
 Q-Chem 5.4.0 for Intel X86 EM64T Linux

User input:
--------------------------------------------------------------
$molecule
-1 2
C                 -1.6585850000      0.5088360000      1.4754590000
C                 -2.8221720000      1.0662450000      0.7609450000
C                 -2.7871990000      0.9454800000     -0.6091980000
C                 -1.6594900000      0.4370040000     -1.3955270000
C                 -0.4162640000      0.0815690000     -0.6860790000
C                 -0.5004430000      0.0775920000      0.6872600000
O                 -1.7671730000      0.3172960000     -2.6393240000
O                 -1.6406070000      0.4014210000      2.7248960000
Cl                 0.7941800000     -0.5097140000      1.7591100000
Cl                -4.1533840000      1.3512750000     -1.6762800000
C                  0.7944790000     -0.2706170000     -1.6001980000
C                  1.0398970000      0.9085440000     -2.5824810000
C                  2.1548630000     -0.5007560000     -0.9047510000
C                  0.4787830000     -1.5655900000     -2.3912330000
C                 -3.9319260000      1.6746340000      1.6685600000
C                 -3.2904410000      2.7444900000      2.5956780000
C                 -5.0943190000      2.4056550000      0.9602050000
C                 -4.5718590000      0.5480800000      2.5191770000
H                  0.1606870000      1.1224290000     -3.1842790000
H                  1.8730360000      0.6568080000     -3.2489040000
H                  1.3192920000      1.8092200000     -2.0255420000
H                  2.4534710000      0.3432580000     -0.2809950000
H                  2.9076490000     -0.6191970000     -1.6926350000
H                  2.1713000000     -1.3992690000     -0.2906260000
H                  0.3447660000     -2.4053820000     -1.7016220000
H                  1.3182530000     -1.8069290000     -3.0547720000
H                 -0.4232850000     -1.4499660000     -2.9886420000
H                 -2.4916140000      2.3265460000      3.2024000000
H                 -4.0600630000      3.1570780000      3.2582860000
H                 -2.8899000000      3.5691090000      1.9964780000
H                 -4.7463990000      3.1977290000      0.2952040000
H                 -5.7115540000      2.8679070000      1.7391800000
H                 -5.7304920000      1.7350350000      0.3855190000
H                 -3.8236870000      0.0422370000      3.1261370000
H                 -5.0587280000     -0.1855260000      1.8683730000
H                 -5.3387720000      0.9731730000      3.1782900000
$end

$rem
BASIS  =  6-311++G(d,p)
GUI  =  2
JOB_TYPE  =  SP
METHOD  =  B3LYP
SCF_CONVERGENCE  = 8
SOLVENT_METHOD = sm12
$end

$smx
solvent dimethylformamide
charges CM5
$end

--------------------------------------------------------------

             Standard Nuclear Orientation (Angstroms)
    I     Atom           X                Y                Z
 ----------------------------------------------------------------
    1      C      -1.6585850000     0.5088360000     1.4754590000
    2      C      -2.8221720000     1.0662450000     0.7609450000
    3      C      -2.7871990000     0.9454800000    -0.6091980000
    4      C      -1.6594900000     0.4370040000    -1.3955270000
    5      C      -0.4162640000     0.0815690000    -0.6860790000
    6      C      -0.5004430000     0.0775920000     0.6872600000
    7      O      -1.7671730000     0.3172960000    -2.6393240000
    8      O      -1.6406070000     0.4014210000     2.7248960000
    9      Cl      0.7941800000    -0.5097140000     1.7591100000
   10      Cl     -4.1533840000     1.3512750000    -1.6762800000
   11      C       0.7944790000    -0.2706170000    -1.6001980000
   12      C       1.0398970000     0.9085440000    -2.5824810000
   13      C       2.1548630000    -0.5007560000    -0.9047510000
   14      C       0.4787830000    -1.5655900000    -2.3912330000
   15      C      -3.9319260000     1.6746340000     1.6685600000
   16      C      -3.2904410000     2.7444900000     2.5956780000
   17      C      -5.0943190000     2.4056550000     0.9602050000
   18      C      -4.5718590000     0.5480800000     2.5191770000
   19      H       0.1606870000     1.1224290000    -3.1842790000
   20      H       1.8730360000     0.6568080000    -3.2489040000
   21      H       1.3192920000     1.8092200000    -2.0255420000
   22      H       2.4534710000     0.3432580000    -0.2809950000
   23      H       2.9076490000    -0.6191970000    -1.6926350000
   24      H       2.1713000000    -1.3992690000    -0.2906260000
   25      H       0.3447660000    -2.4053820000    -1.7016220000
   26      H       1.3182530000    -1.8069290000    -3.0547720000
   27      H      -0.4232850000    -1.4499660000    -2.9886420000
   28      H      -2.4916140000     2.3265460000     3.2024000000
   29      H      -4.0600630000     3.1570780000     3.2582860000
   30      H      -2.8899000000     3.5691090000     1.9964780000
   31      H      -4.7463990000     3.1977290000     0.2952040000
   32      H      -5.7115540000     2.8679070000     1.7391800000
   33      H      -5.7304920000     1.7350350000     0.3855190000
   34      H      -3.8236870000     0.0422370000     3.1261370000
   35      H      -5.0587280000    -0.1855260000     1.8683730000
   36      H      -5.3387720000     0.9731730000     3.1782900000
 ----------------------------------------------------------------

   17   -1615.4550995818      3.57e-09  Convergence criterion met
 Total energy in the final basis set =    -1615.5235485227

                    Orbital Energies (a.u.)
 --------------------------------------------------------------

 Alpha MOs
 -- Occupied --
********-101.5356 -19.0756 -19.0756 -10.2313 -10.2313 -10.2250 -10.2250
-10.1986 -10.1986 -10.1892 -10.1891 -10.1575 -10.1574 -10.1565 -10.1565
-10.1553 -10.1552  -9.4503  -9.4503  -7.2148  -7.2147  -7.2057  -7.2056
 -7.2043  -7.2043  -1.0106  -1.0078  -0.8682  -0.8582  -0.8197  -0.8158
 -0.7861  -0.7248  -0.6871  -0.6870  -0.6822  -0.6822  -0.6681  -0.6204
 -0.5594  -0.5561  -0.5346  -0.5038  -0.4704  -0.4688  -0.4441  -0.4402
 -0.4367  -0.4344  -0.4311  -0.4246  -0.4220  -0.4079  -0.4029  -0.3928
 -0.3833  -0.3818  -0.3759  -0.3673  -0.3653  -0.3647  -0.3524  -0.3514
 -0.3407  -0.3377  -0.3318  -0.3297  -0.3279  -0.3225  -0.2892  -0.2871
 -0.2697  -0.2433  -0.2406  -0.2349  -0.1608

 Beta MOs
 -- Occupied --
********-101.5356 -19.0688 -19.0688 -10.2301 -10.2300 -10.2236 -10.2236
-10.1986 -10.1986 -10.1881 -10.1881 -10.1575 -10.1574 -10.1564 -10.1564
-10.1552 -10.1552  -9.4503  -9.4503  -7.2148  -7.2148  -7.2055  -7.2055
 -7.2043  -7.2043  -0.9992  -0.9960  -0.8644  -0.8570  -0.8190  -0.8148
 -0.7831  -0.7223  -0.6869  -0.6868  -0.6822  -0.6821  -0.6588  -0.6176
 -0.5552  -0.5552  -0.5326  -0.5018  -0.4696  -0.4671  -0.4413  -0.4396
 -0.4362  -0.4325  -0.4248  -0.4211  -0.4175  -0.4009  -0.3971  -0.3918
 -0.3805  -0.3794  -0.3709  -0.3656  -0.3635  -0.3579  -0.3510  -0.3506
 -0.3391  -0.3371  -0.3314  -0.3274  -0.3187  -0.3113  -0.2888  -0.2864
 -0.2444  -0.2372  -0.2342  -0.2289

          Ground-State Mulliken Net Atomic Charges

     Atom                 Charge (a.u.)    Spin (a.u.)
  --------------------------------------------------------
      1 C                    -1.766326       0.072663
      2 C                    -0.197912       0.113646
      3 C                    -0.593076       0.060125
      4 C                    -1.765545       0.072893
      5 C                    -0.192256       0.113693
      6 C                    -0.598835       0.060039
      7 O                    -0.195531       0.251877
      8 O                    -0.194814       0.251947
      9 Cl                    0.798412       0.004912
     10 Cl                    0.798085       0.004855
     11 C                     1.218852      -0.025221
     12 C                    -0.533857       0.011682
     13 C                    -0.034107      -0.003449
     14 C                    -0.517936       0.013914
     15 C                     1.221891      -0.025166
     16 C                    -0.532041       0.011686
     17 C                    -0.031187      -0.003444
     18 C                    -0.518875       0.013869
     19 H                     0.100360      -0.001371
     20 H                     0.223162       0.000186
     21 H                     0.091547       0.000345
     22 H                     0.118051       0.000720
     23 H                     0.216599      -0.000227
     24 H                     0.119919       0.000553
     25 H                     0.102768       0.001085
     26 H                     0.227427       0.000331
     27 H                     0.118334      -0.001864
     28 H                     0.099323      -0.001382
     29 H                     0.223136       0.000172
     30 H                     0.091722       0.000351
     31 H                     0.117813       0.000723
     32 H                     0.216965      -0.000227
     33 H                     0.120114       0.000544
     34 H                     0.117944      -0.001862
     35 H                     0.102222       0.001086
     36 H                     0.227652       0.000316
  --------------------------------------------------------
  Sum of atomic charges =    -1.000000

                    Cartesian Multipole Moments
 -----------------------------------------------------------------
    Charge (ESU x 10^10)
                -4.8032
    Dipole Moment (Debye)
         X       8.0955      Y      -1.9437      Z      -0.1995
       Tot       8.3280
    Quadrupole Moments (Debye-Ang)
        XX    -156.8096     XY       7.9318     YY    -133.6532
        XZ      -4.2228     YZ       0.8779     ZZ    -164.3931

 Total job time:  1356.97s(wall), 10528.58s(cpu)
        *  Thank you very much for using Q-Chem.  Have a nice day.  *
