 Gaussian 16, Revision A.03,
 Gaussian 16:  ES64L-G16RevA.03 25-Dec-2016

 ----------------------------------------------------------------------
 #P UB3LYP/6-311++G(d,p) nosym opt freq SCRF=(PCM,Solvent=n,n-DiMethylF
 ormamide)
 ----------------------------------------------------------------------

 -------
 Reduced
 -------
 Symbolic Z-matrix:
 Charge = -2 Multiplicity = 1

 SCF Done:  E(UB3LYP) =  -460.477778101     A.U. after   16 cycles
 SCF Done:  E(UB3LYP) =  -460.478558321     A.U. after   12 cycles
 SCF Done:  E(UB3LYP) =  -460.478676038     A.U. after   12 cycles
 SCF Done:  E(UB3LYP) =  -460.478678512     A.U. after   11 cycles
 SCF Done:  E(UB3LYP) =  -460.478681086     A.U. after   10 cycles
 Optimization completed.
    -- Stationary point found.
 Normal termination of Gaussian 16 at Sat Feb 10 10:10:35 2024.

 ----------------------------------------------------------------------
 #P Geom=AllCheck Guess=TCheck SCRF=Check GenChk UB3LYP/6-311++G(d,p) F
 req
 ----------------------------------------------------------------------

 Structure from the checkpoint file:  "039-an.chk"
 -------
 Reduced
 -------
 Charge = -2 Multiplicity = 1

                          Input orientation:
 ---------------------------------------------------------------------
 Center     Atomic      Atomic             Coordinates (Angstroms)
 Number     Number       Type             X           Y           Z
 ---------------------------------------------------------------------
      1          6           0       -2.585174   -0.651459   -0.211558
      2          6           0       -1.214554   -0.039312   -0.042343
      3          6           0       -1.095388    1.324008    0.273078
      4          6           0        0.148840    1.986852    0.456260
      5          8           0        0.245204    3.273179    0.749071
      6          6           0        1.280760    1.142186    0.295722
      7          6           0        1.196376   -0.223135   -0.021313
      8          6           0        2.458272   -1.039345   -0.173176
      9          6           0       -0.063970   -0.870196   -0.208330
     10          8           0       -0.157130   -2.153149   -0.512261
     11          1           0       -2.759439   -1.470662    0.497802
     12          1           0       -3.371465    0.094681   -0.061280
     13          1           0       -2.719669   -1.087080   -1.209550
     14          1           0       -2.005434    1.914695    0.387147
     15          1           0        2.266975    1.589145    0.427347
     16          1           0        3.348776   -0.424726   -0.008909
     17          1           0        2.536211   -1.487455   -1.171627
     18          1           0        2.490811   -1.878223    0.533922
 ---------------------------------------------------------------------

 SCF Done:  E(UB3LYP) =  -460.478681086     A.U. after    1 cycles

 Alpha  occ. eigenvalues --  -19.00559 -19.00448 -10.15755 -10.15254 -10.13701
 Alpha  occ. eigenvalues --  -10.13688 -10.12328 -10.12321 -10.11067 -10.11064
 Alpha  occ. eigenvalues --   -0.90828  -0.90398  -0.77712  -0.73683  -0.68284
 Alpha  occ. eigenvalues --   -0.63446  -0.61904  -0.52788  -0.50855  -0.43603
 Alpha  occ. eigenvalues --   -0.41477  -0.39420  -0.38567  -0.38224  -0.36985
 Alpha  occ. eigenvalues --   -0.35660  -0.34092  -0.33919  -0.32627  -0.30417
 Alpha  occ. eigenvalues --   -0.30231  -0.28995  -0.21128  -0.19702  -0.18604
 Alpha  occ. eigenvalues --   -0.18338  -0.11118
 Alpha virt. eigenvalues --    0.00066   0.01332   0.01799   0.02855   0.03530
 Alpha virt. eigenvalues --    0.03598   0.03942   0.06068   0.06079   0.06389
 Alpha virt. eigenvalues --    0.06518   0.07046   0.08882   0.09166   0.10241

  Beta  occ. eigenvalues --  -19.00559 -19.00448 -10.15755 -10.15254 -10.13701
  Beta  occ. eigenvalues --  -10.13688 -10.12328 -10.12321 -10.11067 -10.11064
  Beta  occ. eigenvalues --   -0.90828  -0.90398  -0.77712  -0.73683  -0.68284
  Beta  occ. eigenvalues --   -0.63446  -0.61904  -0.52788  -0.50855  -0.43603
  Beta  occ. eigenvalues --   -0.41477  -0.39420  -0.38567  -0.38224  -0.36985
  Beta  occ. eigenvalues --   -0.35660  -0.34092  -0.33919  -0.32627  -0.30417
  Beta  occ. eigenvalues --   -0.30231  -0.28995  -0.21128  -0.19702  -0.18604
  Beta  occ. eigenvalues --   -0.18338  -0.11118
  Beta virt. eigenvalues --    0.00066   0.01332   0.01799   0.02855   0.03530
  Beta virt. eigenvalues --    0.03598   0.03942   0.06068   0.06079   0.06389
  Beta virt. eigenvalues --    0.06518   0.07046   0.08882   0.09166   0.10241

 Mulliken charges and spin densities:
               1          2
     1  C   -0.414321   0.000000
     2  C    1.233862   0.000000
     3  C   -0.498508  -0.000000
     4  C   -0.422754   0.000000
     5  O   -0.779113   0.000000
     6  C   -0.499552   0.000000
     7  C    1.228997   0.000000
     8  C   -0.413404  -0.000000
     9  C   -1.660459  -0.000000
    10  O   -0.746696   0.000000
    11  H    0.134086   0.000000
    12  H    0.126748  -0.000000
    13  H    0.133864   0.000000
    14  H    0.091316   0.000000
    15  H    0.091573  -0.000000
    16  H    0.126366   0.000000
    17  H    0.133810  -0.000000
    18  H    0.134186  -0.000000
 Sum of Mulliken charges =  -2.00000   0.00000

 Dipole moment (field-independent basis, Debye):
    X=             -0.4598    Y=             -5.9965    Z=             -1.2975  Tot=              6.1525
 Quadrupole moment (field-independent basis, Debye-Ang):
   XX=            -71.5458   YY=           -135.6537   ZZ=            -73.0685
   XY=             -4.7792   XZ=             -1.1560   YZ=            -15.3182

  Exact polarizability: 202.956   1.195 221.816   2.579  24.664 120.562
 Approx polarizability: 212.817   1.706 238.303   2.823  27.012 127.424

                      1                      2                      3
                      A                      A                      A
 Frequencies --    112.3699               143.2527               170.3952
 Red. masses --      2.9345                 1.1778                 1.4332
 Frc consts  --      0.0218                 0.0142                 0.0245
 IR Inten    --     27.8087                 2.7972                 0.6730

                      4                      5                      6
                      A                      A                      A
 Frequencies --    178.6342               234.0010               282.8622
 Red. masses --      2.1904                 2.9982                 2.5551
 Frc consts  --      0.0412                 0.0967                 0.1205
 IR Inten    --      2.0418                 0.0304                17.3313

                      7                      8                      9
                      A                      A                      A
 Frequencies --    298.1511               351.3309               353.3368
 Red. masses --      3.6274                 8.1159                 7.8309
 Frc consts  --      0.1900                 0.5902                 0.5760
 IR Inten    --      1.9636                 8.3737                 7.0708

                     10                     11                     12
                      A                      A                      A
 Frequencies --    472.0989               489.9987               514.9879
 Red. masses --      8.5025                 3.4542                 4.9592
 Frc consts  --      1.1165                 0.4886                 0.7749
 IR Inten    --      0.4972                 0.0225                 0.6308

                     13                     14                     15
                      A                      A                      A
 Frequencies --    576.5196               620.4524               623.1101
 Red. masses --      5.3611                 2.3842                 3.3279
 Frc consts  --      1.0499                 0.5408                 0.7613
 IR Inten    --     30.8589                 7.2033                 3.4230

                     16                     17                     18
                      A                      A                      A
 Frequencies --    746.0858               792.0300               813.3038
 Red. masses --      4.7094                 4.7392                 1.2912
 Frc consts  --      1.5445                 1.7516                 0.5032
 IR Inten    --     14.2036               181.5805                 1.9336

                     19                     20                     21
                      A                      A                      A
 Frequencies --    829.8141               947.5272               959.5046
 Red. masses --      1.9008                 2.8475                 2.3802
 Frc consts  --      0.7712                 1.5062                 1.2911
 IR Inten    --     85.5575                32.4301                14.2427

                     22                     23                     24
                      A                      A                      A
 Frequencies --   1018.6945              1027.5262              1037.7027
 Red. masses --      2.0205                 1.8858                 1.5062
 Frc consts  --      1.2354                 1.1731                 0.9556
 IR Inten    --     50.7291               107.8694                 4.0183

                     25                     26                     27
                      A                      A                      A
 Frequencies --   1039.8558              1162.0244              1212.9955
 Red. masses --      1.4665                 2.0917                 3.2970
 Frc consts  --      0.9343                 1.6641                 2.8582
 IR Inten    --      3.1090               302.1908                72.7194

                     28                     29                     30
                      A                      A                      A
 Frequencies --   1239.0918              1270.0439              1327.1085
 Red. masses --      1.7783                 4.4719                 9.4056
 Frc consts  --      1.6087                 4.2499                 9.7600
 IR Inten    --     77.7323               821.7674               130.4051

                     31                     32                     33
                      A                      A                      A
 Frequencies --   1387.6366              1390.0497              1405.0862
 Red. masses --      1.4596                 1.2755                 3.9525
 Frc consts  --      1.6559                 1.4521                 4.5976
 IR Inten    --     63.8732                 0.9894                79.4423

                     34                     35                     36
                      A                      A                      A
 Frequencies --   1422.1689              1457.3375              1458.3527
 Red. masses --      2.3712                 1.0502                 1.0504
 Frc consts  --      2.8257                 1.3142                 1.3163
 IR Inten    --    878.3379                11.2544                 2.3637

                     37                     38                     39
                      A                      A                      A
 Frequencies --   1482.0060              1487.6851              1520.5878
 Red. masses --      1.1268                 1.1151                 6.7992
 Frc consts  --      1.4581                 1.4540                 9.2625
 IR Inten    --    160.4123                47.2813                 1.2914

                     40                     41                     42
                      A                      A                      A
 Frequencies --   1604.3358              2983.4325              2986.0503
 Red. masses --      5.9528                 1.0383                 1.0379
 Frc consts  --      9.0274                 5.4452                 5.4523
 IR Inten    --     39.1242               212.6620               117.9748

                     43                     44                     45
                      A                      A                      A
 Frequencies --   3014.2576              3015.4428              3062.1410
 Red. masses --      1.0978                 1.0986                 1.0986
 Frc consts  --      5.8767                 5.8857                 6.0693
 IR Inten    --    116.4364                62.9164                37.1036

                     46                     47                     48
                      A                      A                      A
 Frequencies --   3062.6909              3084.5205              3089.2826
 Red. masses --      1.0983                 1.0880                 1.0864
 Frc consts  --      6.0697                 6.0992                 6.1085
 IR Inten    --     57.2850               176.0112               106.9989

 - Thermochemistry -
 -------------------
 Temperature   298.150 Kelvin.  Pressure   1.00000 Atm.
 Atom     1 has atomic number  6 and mass  12.00000

 Molecular mass:   136.05243 amu.
 Principal axes and moments of inertia in atomic units:
                           1         2         3
     Eigenvalues --  1020.980511381.215842380.11503
           X            0.07109   0.99716  -0.02497
           Y            0.97178  -0.07489  -0.22371
           Z            0.22494   0.00836   0.97434
 This molecule is an asymmetric top.
 Rotational symmetry number  1.
 Warning -- assumption of classical behavior for rotation
           may cause significant error
 Rotational temperatures (Kelvin)      0.08483     0.06271     0.03639
 Rotational constants (GHZ):           1.76765     1.30663     0.75826
 Zero-point vibrational energy     357431.5 (Joules/Mol)
                                   85.42817 (Kcal/Mol)
 Warning -- explicit consideration of  14 degrees of freedom as
           vibrations may cause significant error
 Vibrational temperatures:    161.68   206.11   245.16   257.01   336.68
          (Kelvin)            406.98   428.97   505.49   508.37   679.25
                              705.00   740.95   829.48   892.69   896.52
                             1073.45  1139.55  1170.16  1193.92  1363.28
                             1380.51  1465.67  1478.38  1493.02  1496.12
                             1671.89  1745.23  1782.78  1827.31  1909.41
                             1996.50  1999.97  2021.61  2046.18  2096.78
                             2098.24  2132.28  2140.45  2187.79  2308.28
                             4292.49  4296.26  4336.84  4338.55  4405.74
                             4406.53  4437.94  4444.79

 Zero-point correction=                           0.136138 (Hartree/Particle)
 Thermal correction to Energy=                    0.145465
 Thermal correction to Enthalpy=                  0.146409
 Thermal correction to Gibbs Free Energy=         0.102135
 Sum of electronic and zero-point Energies=           -460.342543
 Sum of electronic and thermal Energies=              -460.333216
 Sum of electronic and thermal Enthalpies=            -460.332272
 Sum of electronic and thermal Free Energies=         -460.376546

                     E (Thermal)             CV                S
                      KCal/Mol        Cal/Mol-Kelvin    Cal/Mol-Kelvin
 Total                   91.280             35.389             93.181
 Electronic               0.000              0.000              0.000
 Translational            0.889              2.981             40.636
 Rotational               0.889              2.981             29.597
 Vibrational             89.503             29.427             22.949
 Vibration     1          0.607              1.939              3.228
 Vibration     2          0.616              1.910              2.760
 Vibration     3          0.625              1.879              2.431
 Vibration     4          0.629              1.869              2.343
 Vibration     5          0.654              1.789              1.848
 Vibration     6          0.682              1.705              1.516
 Vibration     7          0.691              1.677              1.427
 Vibration     8          0.728              1.573              1.160
 Vibration     9          0.730              1.568              1.151
 Vibration    10          0.829              1.312              0.732
 Vibration    11          0.846              1.272              0.684
 Vibration    12          0.870              1.217              0.622
 Vibration    13          0.933              1.082              0.492
 Vibration    14          0.981              0.989              0.416

                           ! Non-Optimized Parameters !
 Normal termination of Gaussian 16 at Sat Feb 10 10:19:51 2024.
