 Gaussian 16, Revision A.03,
 Gaussian 16:  ES64L-G16RevA.03 25-Dec-2016

 --------------------------------------
 #P UB3LYP/6-311++G(d,p) nosym opt freq
 --------------------------------------

 -------
 Reduced
 -------
 Symbolic Z-matrix:
 Charge = -2 Multiplicity = 1

 SCF Done:  E(UB3LYP) =  -1451.33290618     A.U. after   19 cycles
 SCF Done:  E(UB3LYP) =  -1451.33290658     A.U. after   12 cycles
 Optimization completed.
    -- Stationary point found.
 Normal termination of Gaussian 16 at Wed Jan 10 17:51:31 2024.

 ----------------------------------------------------------------------
 #P Geom=AllCheck Guess=TCheck SCRF=Check GenChk UB3LYP/6-311++G(d,p) F
 req
 ----------------------------------------------------------------------

 Structure from the checkpoint file:  "112-an.chk"
 -------
 Reduced
 -------
 Charge = -2 Multiplicity = 1

                          Input orientation:
 ---------------------------------------------------------------------
 Center     Atomic      Atomic             Coordinates (Angstroms)
 Number     Number       Type             X           Y           Z
 ---------------------------------------------------------------------
      1          8           0        2.551626   -1.023398   -0.255148
      2          6           0        1.292603   -0.466302   -0.125210
      3          6           0        1.051102    0.901020   -0.001421
      4         17           0        2.446791    2.028617   -0.008586
      5          6           0       -0.251414    1.443126    0.130293
      6          8           0       -0.605542    2.699621    0.252823
      7          6           0       -1.292962    0.466120    0.125083
      8          6           0       -1.051347   -0.900881    0.001328
      9         17           0       -2.446887   -2.028861    0.008825
     10          6           0        0.251477   -1.443146   -0.130588
     11          8           0        0.605026   -2.699720   -0.253263
     12          8           0       -2.551461    1.023631    0.255400
     13          1           0        2.276171   -1.976362   -0.311511
     14          1           0       -2.275183    1.976537    0.311974
 ---------------------------------------------------------------------

 SCF Done:  E(UB3LYP) =  -1451.33290658     A.U. after    2 cycles

 Alpha  occ. eigenvalues -- -101.28089-101.28088 -18.86011 -18.86010 -18.77269
 Alpha  occ. eigenvalues --  -18.77262  -9.93326  -9.93324  -9.93212  -9.93207
 Alpha  occ. eigenvalues --   -9.92482  -9.92480  -9.19501  -9.19499  -6.95898
 Alpha  occ. eigenvalues --   -6.95896  -6.95045  -6.95044  -6.94982  -6.94981
 Alpha  occ. eigenvalues --   -0.77313  -0.77124  -0.67387  -0.67330  -0.58875
 Alpha  occ. eigenvalues --   -0.57971  -0.51510  -0.42425  -0.39839  -0.31066
 Alpha  occ. eigenvalues --   -0.29590  -0.26036  -0.21390  -0.20199  -0.17389
 Alpha  occ. eigenvalues --   -0.16018  -0.15104  -0.11392  -0.11270  -0.10913
 Alpha  occ. eigenvalues --   -0.09409  -0.08973  -0.06999  -0.06883  -0.04440
 Alpha  occ. eigenvalues --   -0.04233  -0.04027  -0.03427   0.03409   0.03620
 Alpha  occ. eigenvalues --    0.04167   0.06667   0.13587
 Alpha virt. eigenvalues --    0.20845   0.21653   0.22295   0.23183   0.27545
 Alpha virt. eigenvalues --    0.27591   0.27899   0.28401   0.28495   0.29535
 Alpha virt. eigenvalues --    0.29577   0.29997   0.30454   0.32092   0.32380

  Beta  occ. eigenvalues -- -101.28089-101.28088 -18.86011 -18.86010 -18.77269
  Beta  occ. eigenvalues --  -18.77262  -9.93326  -9.93324  -9.93212  -9.93207
  Beta  occ. eigenvalues --   -9.92482  -9.92480  -9.19501  -9.19499  -6.95898
  Beta  occ. eigenvalues --   -6.95896  -6.95045  -6.95044  -6.94982  -6.94981
  Beta  occ. eigenvalues --   -0.77313  -0.77124  -0.67387  -0.67330  -0.58875
  Beta  occ. eigenvalues --   -0.57971  -0.51510  -0.42425  -0.39839  -0.31066
  Beta  occ. eigenvalues --   -0.29590  -0.26036  -0.21390  -0.20199  -0.17389
  Beta  occ. eigenvalues --   -0.16018  -0.15104  -0.11392  -0.11270  -0.10913
  Beta  occ. eigenvalues --   -0.09409  -0.08973  -0.06999  -0.06883  -0.04440
  Beta  occ. eigenvalues --   -0.04233  -0.04027  -0.03427   0.03409   0.03620
  Beta  occ. eigenvalues --    0.04167   0.06667   0.13587
  Beta virt. eigenvalues --    0.20845   0.21653   0.22295   0.23183   0.27545
  Beta virt. eigenvalues --    0.27591   0.27899   0.28401   0.28495   0.29535
  Beta virt. eigenvalues --    0.29577   0.29997   0.30454   0.32092   0.32380

 Mulliken charges and spin densities:
               1          2
     1  O   -0.273550   0.000000
     2  C   -1.653408  -0.000000
     3  C    2.726939   0.000000
     4  Cl   0.005769  -0.000000
     5  C   -1.472063   0.000000
     6  O   -0.567596  -0.000000
     7  C   -1.654233  -0.000000
     8  C    2.726441  -0.000000
     9  Cl   0.005849   0.000000
    10  C   -1.470485   0.000000
    11  O   -0.567661   0.000000
    12  O   -0.273533  -0.000000
    13  H    0.233721  -0.000000
    14  H    0.233811  -0.000000
 Sum of Mulliken charges =  -2.00000   0.00000

 Dipole moment (field-independent basis, Debye):
    X=              0.0012    Y=              0.0021    Z=              0.0013  Tot=              0.0028
 Quadrupole moment (field-independent basis, Debye-Ang):
   XX=           -126.1599   YY=           -143.0105   ZZ=            -90.5320
   XY=             -3.3650   XZ=              2.2057   YZ=             -3.9139

  Exact polarizability: 165.453  12.820 169.094  -5.110   6.397  77.215
 Approx polarizability: 248.239   2.299 268.039  -9.207  12.130 112.936

                      1                      2                      3
                      A                      A                      A
 Frequencies --     80.3065               148.0485               149.1733
 Red. masses --     20.5831                14.0036                14.3653
 Frc consts  --      0.0782                 0.1808                 0.1883
 IR Inten    --      1.8182                 3.2522                 0.0058

                      4                      5                      6
                      A                      A                      A
 Frequencies --    186.5203               189.0721               203.7044
 Red. masses --     20.7717                 8.8108                14.5417
 Frc consts  --      0.4258                 0.1856                 0.3555
 IR Inten    --      4.1587                 1.5410                 0.0000

                      7                      8                      9
                      A                      A                      A
 Frequencies --    220.4776               294.8434               307.1032
 Red. masses --      9.0350                18.1905                 8.7591
 Frc consts  --      0.2588                 0.9317                 0.4867
 IR Inten    --      0.0001                 0.0000                13.5134

                     10                     11                     12
                      A                      A                      A
 Frequencies --    345.1477               356.1523               369.7541
 Red. masses --      8.3160                 8.4024                12.1235
 Frc consts  --      0.5837                 0.6280                 0.9766
 IR Inten    --     25.1954                 0.0020                 0.0000

                     13                     14                     15
                      A                      A                      A
 Frequencies --    466.5160               499.7572               522.4897
 Red. masses --     12.2736                16.2912                12.0061
 Frc consts  --      1.5738                 2.3973                 1.9311
 IR Inten    --      0.0000                 3.0314                 0.0000

                     16                     17                     18
                      A                      A                      A
 Frequencies --    542.8562               689.6990               713.0517
 Red. masses --      6.9616                11.6827                11.8622
 Frc consts  --      1.2087                 3.2743                 3.5535
 IR Inten    --      5.6300                 0.2059                 0.0000

                     19                     20                     21
                      A                      A                      A
 Frequencies --    769.4618               775.5754               780.5511
 Red. masses --      1.0988                 8.9637                 1.7378
 Frc consts  --      0.3833                 3.1768                 0.6238
 IR Inten    --      0.4797                 0.0098               185.8588

                     22                     23                     24
                      A                      A                      A
 Frequencies --    780.7352               878.6939               994.7100
 Red. masses --      2.6277                12.7646                12.4632
 Frc consts  --      0.9437                 5.8067                 7.2656
 IR Inten    --    222.1405                 0.0014               406.8237

                     25                     26                     27
                      A                      A                      A
 Frequencies --   1129.9606              1147.5129              1184.9586
 Red. masses --     11.1743                 6.0727                 9.5553
 Frc consts  --      8.4061                 4.7114                 7.9050
 IR Inten    --      0.0049               156.8937               178.0434

                     28                     29                     30
                      A                      A                      A
 Frequencies --   1338.7795              1417.7029              1426.3686
 Red. masses --      2.1989                 3.5889                 9.1897
 Frc consts  --      2.3220                 4.2499                11.0157
 IR Inten    --      0.0201               192.4023                 0.4717

                     31                     32                     33
                      A                      A                      A
 Frequencies --   1436.1198              1539.5796              1549.3209
 Red. masses --      5.6362                 2.0959                 2.6373
 Frc consts  --      6.8489                 2.9270                 3.7298
 IR Inten    --   1003.4599               112.2432                 0.0823

                     34                     35                     36
                      A                      A                      A
 Frequencies --   1631.2878              3284.8783              3289.0019
 Red. masses --      6.1627                 1.0636                 1.0635
 Frc consts  --      9.6624                 6.7617                 6.7780
 IR Inten    --      0.0013               299.9131                53.6311

 - Thermochemistry -
 -------------------
 Temperature   298.150 Kelvin.  Pressure   1.00000 Atm.
 Atom     1 has atomic number  8 and mass  15.99491

 Molecular mass:   207.93301 amu.
 Principal axes and moments of inertia in atomic units:
                           1         2         3
     Eigenvalues --  1701.594343153.180134854.77442
           X            0.77320  -0.63048   0.06820
           Y            0.63415   0.76927  -0.07798
           Z           -0.00330   0.10355   0.99462
 This molecule is an asymmetric top.
 Rotational symmetry number  1.
 Warning -- assumption of classical behavior for rotation
           may cause significant error
 Rotational temperatures (Kelvin)      0.05090     0.02747     0.01784
 Rotational constants (GHZ):           1.06062     0.57236     0.37175
 Zero-point vibrational energy     189248.5 (Joules/Mol)
                                   45.23147 (Kcal/Mol)
 Warning -- explicit consideration of  16 degrees of freedom as
           vibrations may cause significant error
 Vibrational temperatures:    115.54   213.01   214.63   268.36   272.03
          (Kelvin)            293.09   317.22   424.21   441.85   496.59
                              512.42   531.99   671.21   719.04   751.75
                              781.05   992.32  1025.92  1107.08  1115.88
                             1123.04  1123.30  1264.24  1431.17  1625.76
                             1651.02  1704.89  1926.21  2039.76  2052.23
                             2066.26  2215.11  2229.13  2347.06  4726.21
                             4732.14

 Zero-point correction=                           0.072081 (Hartree/Particle)
 Thermal correction to Energy=                    0.082762
 Thermal correction to Enthalpy=                  0.083706
 Thermal correction to Gibbs Free Energy=         0.035164
 Sum of electronic and zero-point Energies=          -1451.260826
 Sum of electronic and thermal Energies=             -1451.250145
 Sum of electronic and thermal Enthalpies=           -1451.249201
 Sum of electronic and thermal Free Energies=        -1451.297743

                     E (Thermal)             CV                S
                      KCal/Mol        Cal/Mol-Kelvin    Cal/Mol-Kelvin
 Total                   51.934             38.680            102.165
 Electronic               0.000              0.000              0.000
 Translational            0.889              2.981             41.900
 Rotational               0.889              2.981             31.633
 Vibrational             50.156             32.719             28.632
 Vibration     1          0.600              1.963              3.883
 Vibration     2          0.617              1.905              2.697
 Vibration     3          0.618              1.904              2.683
 Vibration     4          0.632              1.858              2.262
 Vibration     5          0.633              1.855              2.237
 Vibration     6          0.639              1.835              2.099
 Vibration     7          0.647              1.810              1.955
 Vibration     8          0.689              1.683              1.446
 Vibration     9          0.697              1.660              1.378
 Vibration    10          0.724              1.585              1.188
 Vibration    11          0.732              1.563              1.139
 Vibration    12          0.742              1.534              1.081
 Vibration    13          0.824              1.324              0.747
 Vibration    14          0.855              1.251              0.659
 Vibration    15          0.877              1.200              0.604
 Vibration    16          0.898              1.155              0.559

 Optimization completed.
    -- Stationary point found.
 Normal termination of Gaussian 16 at Wed Jan 10 17:56:24 2024.
