 Q-Chem 5.4, Q-Chem, Inc., Pleasanton, CA (2021)
 Q-Chem 5.4.0 for Intel X86 EM64T Linux

User input:
--------------------------------------------------------------
$molecule
-2 1
O                  2.5516260000     -1.0233980000     -0.2551480000
C                  1.2926030000     -0.4663020000     -0.1252100000
C                  1.0511020000      0.9010200000     -0.0014210000
Cl                 2.4467910000      2.0286170000     -0.0085860000
C                 -0.2514140000      1.4431260000      0.1302930000
O                 -0.6055420000      2.6996210000      0.2528230000
C                 -1.2929620000      0.4661200000      0.1250830000
C                 -1.0513470000     -0.9008810000      0.0013280000
Cl                -2.4468870000     -2.0288610000      0.0088250000
C                  0.2514770000     -1.4431460000     -0.1305880000
O                  0.6050260000     -2.6997200000     -0.2532630000
O                 -2.5514610000      1.0236310000      0.2554000000
H                  2.2761710000     -1.9763620000     -0.3115110000
H                 -2.2751830000      1.9765370000      0.3119740000
$end

$rem
BASIS  =  6-311++G(d,p)
GUI  =  2
JOB_TYPE  =  SP
METHOD  =  B3LYP
SCF_CONVERGENCE  = 8
SOLVENT_METHOD = sm12
$end

$smx
solvent dimethylformamide
charges CM5
$end

--------------------------------------------------------------

             Standard Nuclear Orientation (Angstroms)
    I     Atom           X                Y                Z
 ----------------------------------------------------------------
    1      O       2.5516260000    -1.0233980000    -0.2551480000
    2      C       1.2926030000    -0.4663020000    -0.1252100000
    3      C       1.0511020000     0.9010200000    -0.0014210000
    4      Cl      2.4467910000     2.0286170000    -0.0085860000
    5      C      -0.2514140000     1.4431260000     0.1302930000
    6      O      -0.6055420000     2.6996210000     0.2528230000
    7      C      -1.2929620000     0.4661200000     0.1250830000
    8      C      -1.0513470000    -0.9008810000     0.0013280000
    9      Cl     -2.4468870000    -2.0288610000     0.0088250000
   10      C       0.2514770000    -1.4431460000    -0.1305880000
   11      O       0.6050260000    -2.6997200000    -0.2532630000
   12      O      -2.5514610000     1.0236310000     0.2554000000
   13      H       2.2761710000    -1.9763620000    -0.3115110000
   14      H      -2.2751830000     1.9765370000     0.3119740000
 ----------------------------------------------------------------

   15   -1451.3305780347      5.84e-09  Convergence criterion met
 Total energy in the final basis set =    -1451.5968144284

                    Orbital Energies (a.u.)
 --------------------------------------------------------------

 Alpha MOs
 -- Occupied --
********-101.5251 -19.1105 -19.1105 -19.0264 -19.0263 -10.1849 -10.1848
-10.1838 -10.1838 -10.1782 -10.1782  -9.4382  -9.4381  -7.2024  -7.2024
 -7.1936  -7.1936  -7.1928  -7.1928  -1.0235  -1.0220  -0.9272  -0.9269
 -0.8366  -0.8262  -0.7652  -0.6743  -0.6509  -0.5620  -0.5466  -0.5117
 -0.4653  -0.4530  -0.4207  -0.4055  -0.4038  -0.3665  -0.3631  -0.3601
 -0.3445  -0.3360  -0.3188  -0.3130  -0.2887  -0.2849  -0.2832  -0.2825
 -0.2173  -0.2163  -0.2103  -0.1845  -0.1180

          Ground-State Mulliken Net Atomic Charges

     Atom                 Charge (a.u.)
  ----------------------------------------
      1 O                    -0.142911
      2 C                    -1.825409
      3 C                     2.500526
      4 Cl                    0.534989
      5 C                    -1.852869
      6 O                    -0.471705
      7 C                    -1.825818
      8 C                     2.499163
      9 Cl                    0.534917
     10 C                    -1.852167
     11 O                    -0.471823
     12 O                    -0.142867
     13 H                     0.257955
     14 H                     0.258020
  ----------------------------------------
  Sum of atomic charges =    -2.000000

                    Cartesian Multipole Moments
 -----------------------------------------------------------------
    Charge (ESU x 10^10)
                -9.6064
    Dipole Moment (Debye)
         X       0.0014      Y       0.0024      Z       0.0014
       Tot       0.0031
    Quadrupole Moments (Debye-Ang)
        XX    -123.5876     XY      -1.8957     YY    -141.5440
        XZ       2.1247     YZ      -3.8689     ZZ     -90.8626

 Total job time:  119.74s(wall), 876.32s(cpu)
        *  Thank you very much for using Q-Chem.  Have a nice day.  *
