 Q-Chem 5.4, Q-Chem, Inc., Pleasanton, CA (2021)
 Q-Chem 5.4.0 for Intel X86 EM64T Linux

User input:
--------------------------------------------------------------
$molecule
-2 1
C                 -1.8796210000     -3.6834530000      1.3027530000
C                 -0.5136360000     -3.8799830000      1.0630230000
C                  0.3463560000     -2.8422910000      0.6089170000
C                 -0.1028270000     -1.5193980000      0.3177220000
C                 -1.5212030000     -1.3134620000      0.5737230000
C                 -2.3238670000     -2.3425300000      1.0161940000
O                 -2.7788100000     -4.5176900000      1.7637760000
O                  0.6281680000     -0.5676920000     -0.1415220000
O                 -3.6748520000     -2.1920400000      1.2793900000
C                 -2.0762570000      0.0601690000      0.3041530000
Br                 0.1651620000     -5.6584530000      1.5135630000
Br                 2.2182970000     -3.1972530000      0.1848410000
H                 -1.5227070000      0.8221770000      0.8688300000
H                 -3.1364940000      0.1113810000      0.5676140000
H                 -1.9548590000      0.3350410000     -0.7533040000
H                 -3.8611040000     -3.1196940000      1.5960780000
$end

$rem
BASIS  =  6-311++G(d,p)
GUI  =  2
JOB_TYPE  =  SP
METHOD  =  B3LYP
SCF_CONVERGENCE  = 8
SOLVENT_METHOD = sm12
$end

$smx
solvent dimethylformamide
charges CM5
$end

--------------------------------------------------------------

             Standard Nuclear Orientation (Angstroms)
    I     Atom           X                Y                Z
 ----------------------------------------------------------------
    1      C      -1.8796210000    -3.6834530000     1.3027530000
    2      C      -0.5136360000    -3.8799830000     1.0630230000
    3      C       0.3463560000    -2.8422910000     0.6089170000
    4      C      -0.1028270000    -1.5193980000     0.3177220000
    5      C      -1.5212030000    -1.3134620000     0.5737230000
    6      C      -2.3238670000    -2.3425300000     1.0161940000
    7      O      -2.7788100000    -4.5176900000     1.7637760000
    8      O       0.6281680000    -0.5676920000    -0.1415220000
    9      O      -3.6748520000    -2.1920400000     1.2793900000
   10      C      -2.0762570000     0.0601690000     0.3041530000
   11      Br      0.1651620000    -5.6584530000     1.5135630000
   12      Br      2.2182970000    -3.1972530000     0.1848410000
   13      H      -1.5227070000     0.8221770000     0.8688300000
   14      H      -3.1364940000     0.1113810000     0.5676140000
   15      H      -1.9548590000     0.3350410000    -0.7533040000
   16      H      -3.8611040000    -3.1196940000     1.5960780000
 ----------------------------------------------------------------

   18   -5643.2370756061      2.74e-09  Convergence criterion met
 Total energy in the final basis set =    -5643.5036974745

                    Orbital Energies (a.u.)
 --------------------------------------------------------------

 Alpha MOs
 -- Occupied --
********-482.7953 -62.4519 -62.4476 -56.2723 -56.2688 -56.2685 -56.2679
-56.2645 -56.2642 -19.1156 -19.0292 -19.0164 -10.1902 -10.1857 -10.1840
-10.1792 -10.1754 -10.1644 -10.1411  -8.6602  -8.6559  -6.4909  -6.4865
 -6.4793  -6.4784  -6.4750  -6.4741  -2.6019  -2.5986  -2.5980  -2.5975
 -2.5944  -2.5936  -2.5888  -2.5887  -2.5845  -2.5845  -1.0278  -0.9352
 -0.9299  -0.8135  -0.7721  -0.7559  -0.7182  -0.6532  -0.6391  -0.5484
 -0.5388  -0.4899  -0.4560  -0.4184  -0.4135  -0.3880  -0.3855  -0.3811
 -0.3715  -0.3576  -0.3416  -0.3315  -0.3169  -0.3120  -0.2785  -0.2708
 -0.2650  -0.2437  -0.2197  -0.2154  -0.1947  -0.1925  -0.1231

          Ground-State Mulliken Net Atomic Charges

     Atom                 Charge (a.u.)
  ----------------------------------------
      1 C                    -1.423868
      2 C                     1.823301
      3 C                     0.384459
      4 C                    -2.258601
      5 C                     0.941248
      6 C                    -1.965187
      7 O                    -0.404450
      8 O                    -0.356214
      9 O                    -0.157844
     10 C                     0.361432
     11 Br                    0.214778
     12 Br                    0.152635
     13 H                     0.124459
     14 H                     0.175374
     15 H                     0.107218
     16 H                     0.281261
  ----------------------------------------
  Sum of atomic charges =    -2.000000

                    Cartesian Multipole Moments
 -----------------------------------------------------------------
    Charge (ESU x 10^10)
                -9.6064
    Dipole Moment (Debye)
         X       6.7965      Y      26.1977      Z      -7.4995
       Tot      28.0848
    Quadrupole Moments (Debye-Ang)
        XX    -148.0153     XY     -27.4737     YY    -216.2935
        XZ      16.5621     YZ      34.2998     ZZ    -117.4174

 Total job time:  248.55s(wall), 1693.68s(cpu)
        *  Thank you very much for using Q-Chem.  Have a nice day.  *
