 Q-Chem 5.4, Q-Chem, Inc., Pleasanton, CA (2021)
 Q-Chem 5.4.0 for Intel X86 EM64T Linux

User input:
--------------------------------------------------------------
$molecule
0 1
C                  4.1848950000      1.5888670000      0.2560090000
C                  3.2239290000      0.5106690000      0.6572640000
O                  2.8397170000      0.2564260000      1.7626580000
O                  2.8231790000     -0.2036950000     -0.4567920000
C                  1.7843850000     -1.1070390000     -0.3283390000
C                  2.1230560000     -2.4532910000     -0.4046070000
C                  1.1340000000     -3.4295310000     -0.3555400000
C                 -0.1982760000     -3.0573990000     -0.2303710000
C                 -0.5462040000     -1.7082720000     -0.1612180000
C                 -2.0014990000     -1.3787060000     -0.0423000000
O                 -2.8413980000     -2.2617520000      0.0161260000
C                 -2.3849260000      0.0565460000     -0.0048490000
C                 -3.7368490000      0.4014120000      0.0949260000
C                 -4.1137920000      1.7378820000      0.1278620000
C                 -3.1419130000      2.7407740000      0.0623370000
C                 -1.7971480000      2.4052780000     -0.0352960000
C                 -1.4079560000      1.0620740000     -0.0706000000
C                  0.0491830000      0.7418120000     -0.1673670000
O                  0.8678580000      1.6461950000     -0.2138690000
C                  0.4421380000     -0.6987450000     -0.2103660000
H                  4.9214550000      1.2089880000     -0.4535940000
H                  4.6742670000      1.9889310000      1.1416030000
H                  3.6150050000      2.3788330000     -0.2393440000
H                  3.1696420000     -2.7148030000     -0.5014460000
H                  1.4061230000     -4.4770400000     -0.4118650000
H                 -0.9898590000     -3.7942010000     -0.1872290000
H                 -4.4703060000     -0.3936670000      0.1449850000
H                 -5.1620990000      2.0028150000      0.2052750000
H                 -3.4371140000      3.7835450000      0.0893190000
H                 -1.0294940000      3.1670920000     -0.0833710000
$end

$rem
BASIS  =  6-311++G(d,p)
GUI  =  2
JOB_TYPE  =  SP
METHOD  =  B3LYP
SCF_CONVERGENCE  = 8
SOLVENT_METHOD = sm12
$end

$smx
solvent dimethylformamide
charges CM5
$end

--------------------------------------------------------------

             Standard Nuclear Orientation (Angstroms)
    I     Atom           X                Y                Z
 ----------------------------------------------------------------
    1      C       4.1848950000     1.5888670000     0.2560090000
    2      C       3.2239290000     0.5106690000     0.6572640000
    3      O       2.8397170000     0.2564260000     1.7626580000
    4      O       2.8231790000    -0.2036950000    -0.4567920000
    5      C       1.7843850000    -1.1070390000    -0.3283390000
    6      C       2.1230560000    -2.4532910000    -0.4046070000
    7      C       1.1340000000    -3.4295310000    -0.3555400000
    8      C      -0.1982760000    -3.0573990000    -0.2303710000
    9      C      -0.5462040000    -1.7082720000    -0.1612180000
   10      C      -2.0014990000    -1.3787060000    -0.0423000000
   11      O      -2.8413980000    -2.2617520000     0.0161260000
   12      C      -2.3849260000     0.0565460000    -0.0048490000
   13      C      -3.7368490000     0.4014120000     0.0949260000
   14      C      -4.1137920000     1.7378820000     0.1278620000
   15      C      -3.1419130000     2.7407740000     0.0623370000
   16      C      -1.7971480000     2.4052780000    -0.0352960000
   17      C      -1.4079560000     1.0620740000    -0.0706000000
   18      C       0.0491830000     0.7418120000    -0.1673670000
   19      O       0.8678580000     1.6461950000    -0.2138690000
   20      C       0.4421380000    -0.6987450000    -0.2103660000
   21      H       4.9214550000     1.2089880000    -0.4535940000
   22      H       4.6742670000     1.9889310000     1.1416030000
   23      H       3.6150050000     2.3788330000    -0.2393440000
   24      H       3.1696420000    -2.7148030000    -0.5014460000
   25      H       1.4061230000    -4.4770400000    -0.4118650000
   26      H      -0.9898590000    -3.7942010000    -0.1872290000
   27      H      -4.4703060000    -0.3936670000     0.1449850000
   28      H      -5.1620990000     2.0028150000     0.2052750000
   29      H      -3.4371140000     3.7835450000     0.0893190000
   30      H      -1.0294940000     3.1670920000    -0.0833710000
 ----------------------------------------------------------------

   15    -916.8909319744      9.76e-09  Convergence criterion met
 Total energy in the final basis set =     -916.9162702716

                    Orbital Energies (a.u.)
 --------------------------------------------------------------

 Alpha MOs
 -- Occupied --
-19.1836 -19.1313 -19.1304 -19.1256 -10.3177 -10.2874 -10.2830 -10.2676
-10.2191 -10.2150 -10.2102 -10.2089 -10.2034 -10.2020 -10.1987 -10.1985
-10.1982 -10.1977 -10.1975 -10.1768  -1.1269  -1.0673  -1.0651  -1.0451
 -0.8971  -0.8848  -0.8170  -0.7943  -0.7788  -0.7748  -0.7498  -0.6949
 -0.6742  -0.6536  -0.6413  -0.6043  -0.5723  -0.5659  -0.5495  -0.5099
 -0.5028  -0.5012  -0.4964  -0.4889  -0.4832  -0.4707  -0.4570  -0.4548
 -0.4516  -0.4481  -0.4391  -0.4234  -0.4174  -0.4109  -0.4044  -0.3927
 -0.3864  -0.3846  -0.3786  -0.3691  -0.3675  -0.3370  -0.2983  -0.2925
 -0.2880  -0.2793  -0.2789  -0.2754  -0.2707

          Ground-State Mulliken Net Atomic Charges

     Atom                 Charge (a.u.)
  ----------------------------------------
      1 C                    -0.139261
      2 C                    -0.337512
      3 O                    -0.298363
      4 O                     0.018352
      5 C                    -0.354238
      6 C                     1.055669
      7 C                     0.658765
      8 C                     0.255037
      9 C                    -0.099504
     10 C                    -1.561406
     11 O                    -0.247783
     12 C                    -0.578006
     13 C                     0.114769
     14 C                     0.477150
     15 C                     0.408301
     16 C                     0.198474
     17 C                    -0.509683
     18 C                    -1.139518
     19 O                    -0.215904
     20 C                    -0.244188
     21 H                     0.228890
     22 H                     0.193696
     23 H                     0.210607
     24 H                     0.278432
     25 H                     0.381899
     26 H                     0.203642
     27 H                     0.190851
     28 H                     0.331503
     29 H                     0.327901
     30 H                     0.191427
  ----------------------------------------
  Sum of atomic charges =     0.000000

                    Cartesian Multipole Moments
 -----------------------------------------------------------------
    Charge (ESU x 10^10)
                 0.0000
    Dipole Moment (Debye)
         X       0.1997      Y       0.7698      Z      -1.8148
       Tot       1.9814
    Quadrupole Moments (Debye-Ang)
        XX     -96.7344     XY     -15.9977     YY     -98.7423
        XZ      -5.5389     YZ       2.0315     ZZ    -122.9604

 Total job time:  764.05s(wall), 5986.08s(cpu)
        *  Thank you very much for using Q-Chem.  Have a nice day.  *
