 Q-Chem 5.4, Q-Chem, Inc., Pleasanton, CA (2021)
 Q-Chem 5.4.0 for Intel X86 EM64T Linux

User input:
--------------------------------------------------------------
$molecule
0 1
C                  1.8874550000      3.9282120000      5.5222090000
C                  2.8070090000      3.4602070000      4.4537720000
C                  2.4873110000      2.4500550000      3.6350300000
C                  1.1951290000      1.7366200000      3.7697320000
C                  0.2910980000      2.1630160000      4.8679470000
C                  0.6174600000      3.1543140000      5.7125720000
O                  2.1390800000      4.9227290000      6.1740530000
O                  0.8817270000      0.8320150000      3.0143330000
H                  3.7355180000      4.0135010000      4.3662880000
H                  3.1393230000      2.1128540000      2.8369290000
H                 -0.6390000000      1.6129280000      4.9562230000
C                 -0.2354470000      3.4897270000      6.9013540000
O                  0.1819060000      3.5255170000      8.0291340000
O                 -1.5148510000      3.6986690000      6.5478940000
C                 -2.4249470000      3.9907410000      7.6312910000
H                 -3.3915050000      4.1481120000      7.1593080000
H                 -2.1014210000      4.8866110000      8.1616210000
H                 -2.4648230000      3.1520210000      8.3271480000
$end
$rem
MAX_SCF_CYCLES=200
BASIS  =  6-311++G(d,p)
GUI  =  2
JOB_TYPE  =  SP
METHOD  =  B3LYP
SOLVENT_METHOD = PCM
$end
$pcm
theory = CPCM
$end
$solvent
dielectric 37.219
opticaldielectric 1.43
$end

--------------------------------------------------------------

             Standard Nuclear Orientation (Angstroms)
    I     Atom           X                Y                Z
 ----------------------------------------------------------------
    1      C       1.8874550000     3.9282120000     5.5222090000
    2      C       2.8070090000     3.4602070000     4.4537720000
    3      C       2.4873110000     2.4500550000     3.6350300000
    4      C       1.1951290000     1.7366200000     3.7697320000
    5      C       0.2910980000     2.1630160000     4.8679470000
    6      C       0.6174600000     3.1543140000     5.7125720000
    7      O       2.1390800000     4.9227290000     6.1740530000
    8      O       0.8817270000     0.8320150000     3.0143330000
    9      H       3.7355180000     4.0135010000     4.3662880000
   10      H       3.1393230000     2.1128540000     2.8369290000
   11      H      -0.6390000000     1.6129280000     4.9562230000
   12      C      -0.2354470000     3.4897270000     6.9013540000
   13      O       0.1819060000     3.5255170000     8.0291340000
   14      O      -1.5148510000     3.6986690000     6.5478940000
   15      C      -2.4249470000     3.9907410000     7.6312910000
   16      H      -3.3915050000     4.1481120000     7.1593080000
   17      H      -2.1014210000     4.8866110000     8.1616210000
   18      H      -2.4648230000     3.1520210000     8.3271480000
 ----------------------------------------------------------------

    9    -609.5155377683      6.10e-06  Convergence criterion met
 Total energy in the final basis set =     -609.5155377683

                    Orbital Energies (a.u.)
 --------------------------------------------------------------

 Alpha MOs
 -- Occupied --
-19.1908 -19.1539 -19.1529 -19.1409 -10.3325 -10.3015 -10.2970 -10.2370
-10.2274 -10.2267 -10.2183 -10.2170  -1.1340  -1.0866  -1.0822  -1.0503
 -0.8786  -0.8161  -0.7486  -0.7204  -0.6642  -0.6289  -0.5822  -0.5494
 -0.5362  -0.5135  -0.5040  -0.4956  -0.4857  -0.4617  -0.4605  -0.4465
 -0.4389  -0.4313  -0.4219  -0.4087  -0.3792  -0.3306  -0.3292  -0.3196
 -0.3079  -0.3027  -0.2867

          Ground-State Mulliken Net Atomic Charges

     Atom                 Charge (a.u.)
  ----------------------------------------
      1 C                    -0.811441
      2 C                     0.077407
      3 C                     0.221378
      4 C                    -0.412101
      5 C                    -0.480863
      6 C                     1.216683
      7 O                    -0.259659
      8 O                    -0.284326
      9 H                     0.265410
     10 H                     0.268294
     11 H                     0.265873
     12 C                    -0.011855
     13 O                    -0.285034
     14 O                    -0.063107
     15 C                    -0.287968
     16 H                     0.186288
     17 H                     0.194136
     18 H                     0.200885
  ----------------------------------------
  Sum of atomic charges =     0.000000

                    Cartesian Multipole Moments
 -----------------------------------------------------------------
    Charge (ESU x 10^10)
                 0.0000
    Dipole Moment (Debye)
         X      -1.5607      Y      -0.1709      Z      -1.3567
       Tot       2.0750
    Quadrupole Moments (Debye-Ang)
        XX     -53.9423     XY     -10.0878     YY     -79.3466
        XZ     -23.6500     YZ     -14.3116     ZZ     -93.0707

 Total job time:  16.16s(wall), 118.48s(cpu)
        *  Thank you very much for using Q-Chem.  Have a nice day.  *
