 Q-Chem 5.4, Q-Chem, Inc., Pleasanton, CA (2021)
 Q-Chem 5.4.0 for Intel X86 EM64T Linux

User input:
--------------------------------------------------------------
$molecule
-2 1
C                  1.0436720000      1.5747370000     -1.1233280000
C                 -0.1810110000      0.8561330000     -1.2109960000
C                 -0.4347510000     -0.3705920000     -0.5765290000
C                  0.5629650000     -1.0053590000      0.2508330000
C                  1.8160790000     -0.2826720000      0.3509150000
C                  2.0462270000      0.9338160000     -0.2956770000
C                  3.3720310000      1.6457880000     -0.1585110000
C                  2.8927410000     -0.9161610000      1.2022260000
O                  1.2524310000      2.7009010000     -1.7309840000
O                  0.3762210000     -2.1298520000      0.8612030000
H                 -0.9618630000      1.3067560000     -1.8238190000
H                  3.6009510000      1.9054710000      0.8868960000
H                  3.3269660000      2.5648650000     -0.7482670000
H                  4.2152860000      1.0344510000     -0.5158940000
H                  2.5043570000     -1.8547630000      1.6044500000
H                  3.1964890000     -0.2711700000      2.0414090000
H                  3.8094600000     -1.1277990000      0.6291520000
C                 -1.7651130000     -1.0078810000     -0.8273680000
C                 -1.7601660000     -2.4971570000     -1.1631140000
O                 -2.6476960000     -0.8384310000      0.4068080000
C                 -3.9541160000     -0.7318160000      0.2531010000
C                 -4.6659340000     -0.5073930000      1.5796450000
O                 -4.5656790000     -0.7869150000     -0.8034350000
H                 -2.2912590000     -0.4543090000     -1.6057330000
H                 -2.7805060000     -2.8671660000     -1.3076490000
H                 -1.2430580000     -3.0381530000     -0.3704860000
H                 -1.2058690000     -2.6380820000     -2.0978430000
H                 -3.9756020000     -0.5358470000      2.4213770000
H                 -5.4435590000     -1.2656230000      1.7085290000
H                 -5.1726440000      0.4631230000      1.5525410000
$end
$rem
MAX_SCF_CYCLES=200
BASIS  =  6-311++G(d,p)
GUI  =  2
JOB_TYPE  =  SP
METHOD  =  B3LYP
SOLVENT_METHOD = PCM
$end
$pcm
theory = CPCM
$end
$solvent
dielectric 37.219
opticaldielectric 1.43
$end

--------------------------------------------------------------

             Standard Nuclear Orientation (Angstroms)
    I     Atom           X                Y                Z
 ----------------------------------------------------------------
    1      C       1.0436720000     1.5747370000    -1.1233280000
    2      C      -0.1810110000     0.8561330000    -1.2109960000
    3      C      -0.4347510000    -0.3705920000    -0.5765290000
    4      C       0.5629650000    -1.0053590000     0.2508330000
    5      C       1.8160790000    -0.2826720000     0.3509150000
    6      C       2.0462270000     0.9338160000    -0.2956770000
    7      C       3.3720310000     1.6457880000    -0.1585110000
    8      C       2.8927410000    -0.9161610000     1.2022260000
    9      O       1.2524310000     2.7009010000    -1.7309840000
   10      O       0.3762210000    -2.1298520000     0.8612030000
   11      H      -0.9618630000     1.3067560000    -1.8238190000
   12      H       3.6009510000     1.9054710000     0.8868960000
   13      H       3.3269660000     2.5648650000    -0.7482670000
   14      H       4.2152860000     1.0344510000    -0.5158940000
   15      H       2.5043570000    -1.8547630000     1.6044500000
   16      H       3.1964890000    -0.2711700000     2.0414090000
   17      H       3.8094600000    -1.1277990000     0.6291520000
   18      C      -1.7651130000    -1.0078810000    -0.8273680000
   19      C      -1.7601660000    -2.4971570000    -1.1631140000
   20      O      -2.6476960000    -0.8384310000     0.4068080000
   21      C      -3.9541160000    -0.7318160000     0.2531010000
   22      C      -4.6659340000    -0.5073930000     1.5796450000
   23      O      -4.5656790000    -0.7869150000    -0.8034350000
   24      H      -2.2912590000    -0.4543090000    -1.6057330000
   25      H      -2.7805060000    -2.8671660000    -1.3076490000
   26      H      -1.2430580000    -3.0381530000    -0.3704860000
   27      H      -1.2058690000    -2.6380820000    -2.0978430000
   28      H      -3.9756020000    -0.5358470000     2.4213770000
   29      H      -5.4435590000    -1.2656230000     1.7085290000
   30      H      -5.1726440000     0.4631230000     1.5525410000
 ----------------------------------------------------------------

    9    -767.0851120328      9.38e-06  Convergence criterion met
 Total energy in the final basis set =     -767.0851120328

                    Orbital Energies (a.u.)
 --------------------------------------------------------------

 Alpha MOs
 -- Occupied --
-19.1535 -19.1033 -19.0112 -19.0106 -10.2971 -10.2130 -10.1663 -10.1658
-10.1612 -10.1401 -10.1331 -10.1324 -10.1257 -10.1240 -10.1239 -10.1152
 -1.0924  -1.0078  -0.9293  -0.9243  -0.7929  -0.7730  -0.7328  -0.7116
 -0.6938  -0.6448  -0.6249  -0.6049  -0.5473  -0.5307  -0.5024  -0.4864
 -0.4668  -0.4611  -0.4471  -0.4222  -0.4069  -0.4040  -0.4028  -0.3994
 -0.3817  -0.3767  -0.3698  -0.3597  -0.3572  -0.3526  -0.3507  -0.3452
 -0.3346  -0.3238  -0.3094  -0.3048  -0.3035  -0.2953  -0.2758  -0.2214
 -0.1989  -0.1946  -0.1868  -0.1135

          Ground-State Mulliken Net Atomic Charges

     Atom                 Charge (a.u.)
  ----------------------------------------
      1 C                    -0.648855
      2 C                    -0.254195
      3 C                     0.851259
      4 C                    -0.693148
      5 C                     0.219251
      6 C                     0.507928
      7 C                    -0.437270
      8 C                    -0.567144
      9 O                    -0.762637
     10 O                    -0.708508
     11 H                     0.122981
     12 H                     0.138179
     13 H                     0.163249
     14 H                     0.137815
     15 H                     0.162099
     16 H                     0.135178
     17 H                     0.134786
     18 C                    -0.583337
     19 C                    -0.552922
     20 O                     0.073046
     21 C                     0.307136
     22 C                    -0.594038
     23 O                    -0.393471
     24 H                     0.199981
     25 H                     0.154319
     26 H                     0.197939
     27 H                     0.140129
     28 H                     0.174570
     29 H                     0.187087
     30 H                     0.188595
  ----------------------------------------
  Sum of atomic charges =    -2.000000

                    Cartesian Multipole Moments
 -----------------------------------------------------------------
    Charge (ESU x 10^10)
                -9.6064
    Dipole Moment (Debye)
         X      -3.2684      Y      -2.8513      Z       6.0898
       Tot       7.4765
    Quadrupole Moments (Debye-Ang)
        XX    -133.7286     XY     -14.9219     YY    -151.6034
        XZ      -5.2598     YZ      25.7790     ZZ    -120.7905

 Total job time:  53.81s(wall), 353.06s(cpu)
        *  Thank you very much for using Q-Chem.  Have a nice day.  *
