 Q-Chem 5.4, Q-Chem, Inc., Pleasanton, CA (2021)
 Q-Chem 5.4.0 for Intel X86 EM64T Linux

User input:
--------------------------------------------------------------
$molecule
-1 2
C                  0.3340570000      1.7775860000     -1.8654940000
C                 -1.0874170000      2.0713450000     -2.0421520000
C                 -2.0322850000      1.1075180000     -2.1902860000
C                 -1.6955950000     -0.3115260000     -2.1916310000
C                 -0.3003690000     -0.6112420000     -2.0301080000
C                  0.6864170000      0.3556600000     -1.8591960000
O                  1.1597240000      2.7123160000     -1.7433310000
O                 -2.5804550000     -1.2026760000     -2.3260720000
C                  3.2002380000      0.7887470000     -1.2502830000
C                  4.2804860000      0.9703370000     -2.1178090000
C                  3.2570010000      1.3175250000      0.0519210000
C                  4.4003000000      2.0271660000      0.4312770000
C                  5.3987150000      1.7055530000     -1.7347500000
C                  5.4603960000      2.2363220000     -0.4490150000
H                 -1.3467350000      3.1263110000     -2.0490060000
H                 -3.0821280000      1.3586640000     -2.3166930000
H                 -0.0112970000     -1.6561220000     -2.0376560000
H                  4.2322130000      0.5284330000     -3.1066190000
H                  4.4557000000      2.4289180000      1.4392010000
H                  6.2178540000      1.8529470000     -2.4312480000
H                  6.3287850000      2.8031700000     -0.1283760000
C                  2.0807190000     -0.1153810000     -1.7280280000
O                  2.4004310000     -1.2725750000     -2.0068080000
C                  2.1243800000      1.1481370000      1.0350210000
H                  1.7243880000      0.1314690000      1.0292970000
H                  1.3029990000      1.8248110000      0.7840660000
H                  2.4586060000      1.3773450000      2.0505870000
$end
$rem
MAX_SCF_CYCLES=200
BASIS  =  6-311++G(d,p)
GUI  =  2
JOB_TYPE  =  SP
METHOD  =  B3LYP
SOLVENT_METHOD = COSMO
$end
$solvent
dielectric 37.219
opticaldielectric 1.43
$end

--------------------------------------------------------------

             Standard Nuclear Orientation (Angstroms)
    I     Atom           X                Y                Z
 ----------------------------------------------------------------
    1      C      -1.0781338530    -1.0149016267     0.6538172843
    2      C      -2.3923885921    -1.6471373152     0.7591892288
    3      C      -3.5445801038    -1.0317540956     0.3884603272
    4      C      -3.5593588191     0.3263560992    -0.1429210116
    5      C      -2.2747879663     0.9611727123    -0.2401863353
    6      C      -1.0770218686     0.3478518574     0.1162556702
    7      O      -0.0513211394    -1.6318572778     1.0217729097
    8      O      -4.6346975306     0.8910069588    -0.4893542477
    9      C       1.5389750149     0.5190160347     0.0462660941
   10      C       2.4005303733     0.9953167914     1.0379172343
   11      C       2.0180348521    -0.3909782524    -0.9134086106
   12      C       3.3516032103    -0.8025692463    -0.8308119112
   13      C       3.7172757189     0.5521363000     1.1244366403
   14      C       4.1976308773    -0.3522979158     0.1810955364
   15      H      -2.3917288946    -2.6567864898     1.1602555233
   16      H      -4.5062863262    -1.5303597154     0.4764202353
   17      H      -2.2483276898     1.9760934855    -0.6204881703
   18      H       2.0224222114     1.7204308158     1.7496745759
   19      H       3.7314634345    -1.4967527808    -1.5752580475
   20      H       4.3638986265     0.9183897266     1.9153604036
   21      H       5.2245872847    -0.7010139561     0.2256279896
   22      C       0.1595182640     1.1445794303    -0.0228716459
   23      O       0.1257800103     2.3639558303    -0.1989822087
   24      C       1.1366565110    -0.9349035047    -2.0112819066
   25      H       0.5195398586    -0.1563876591    -2.4659469503
   26      H       0.4614806435    -1.6958537470    -1.6105012458
   27      H       1.7411384158    -1.3939273810    -2.7983755061
 ----------------------------------------------------------------

    9    -765.4443592713      7.95e-06  Convergence criterion met
 Total energy in the final basis set =     -765.4443592713
    4    -765.5300106018      8.88e-06  Convergence criterion met
 Total energy in the final basis set =     -765.5300106018

                    Orbital Energies (a.u.)
 --------------------------------------------------------------

 Alpha MOs
 -- Occupied --
-19.1130 -19.0930 -19.0906 -10.2640 -10.2401 -10.2321 -10.1856 -10.1817
-10.1804 -10.1773 -10.1770 -10.1749 -10.1740 -10.1736 -10.1716 -10.1705
-10.1597  -1.0440  -1.0170  -1.0130  -0.8622  -0.8345  -0.7772  -0.7658
 -0.7534  -0.7001  -0.6863  -0.6479  -0.6069  -0.5924  -0.5896  -0.5431
 -0.5030  -0.4856  -0.4805  -0.4723  -0.4625  -0.4454  -0.4348  -0.4266
 -0.4252  -0.4186  -0.4167  -0.4098  -0.3945  -0.3892  -0.3864  -0.3773
 -0.3705  -0.3583  -0.3515  -0.3409  -0.2936  -0.2784  -0.2715  -0.2579
 -0.2515  -0.2497  -0.2365  -0.1789

 Beta MOs
 -- Occupied --
-19.1122 -19.0854 -19.0850 -10.2637 -10.2395 -10.2311 -10.1856 -10.1817
-10.1795 -10.1768 -10.1744 -10.1740 -10.1740 -10.1736 -10.1716 -10.1705
-10.1597  -1.0425  -1.0072  -0.9997  -0.8621  -0.8283  -0.7766  -0.7642
 -0.7523  -0.6917  -0.6843  -0.6452  -0.6051  -0.5921  -0.5859  -0.5416
 -0.5011  -0.4838  -0.4777  -0.4708  -0.4607  -0.4438  -0.4332  -0.4250
 -0.4205  -0.4114  -0.4111  -0.4068  -0.3874  -0.3859  -0.3770  -0.3682
 -0.3607  -0.3556  -0.3512  -0.3406  -0.2765  -0.2649  -0.2597  -0.2526
 -0.2506  -0.2467  -0.2336

          Ground-State Mulliken Net Atomic Charges

     Atom                 Charge (a.u.)    Spin (a.u.)
  --------------------------------------------------------
      1 C                    -1.279705       0.024618
      2 C                    -0.273137       0.098603
      3 C                     0.065398       0.006148
      4 C                    -0.544853       0.132696
      5 C                     0.300424       0.141789
      6 C                     1.441542       0.089561
      7 O                    -0.368544       0.204261
      8 O                    -0.512756       0.262529
      9 C                     0.566539      -0.002216
     10 C                    -0.077456       0.001044
     11 C                     0.715247       0.001594
     12 C                    -0.340741      -0.000518
     13 C                    -0.521152       0.002381
     14 C                    -0.256334      -0.000219
     15 H                     0.222078      -0.006257
     16 H                     0.224229      -0.002413
     17 H                     0.234095      -0.015441
     18 H                     0.229355      -0.000494
     19 H                     0.190635       0.000192
     20 H                     0.204241       0.000078
     21 H                     0.205146      -0.000061
     22 C                    -0.917375       0.034793
     23 O                    -0.323581       0.029040
     24 C                    -0.726068      -0.001226
     25 H                     0.180870      -0.000238
     26 H                     0.191966      -0.000615
     27 H                     0.169938       0.000370
  --------------------------------------------------------
  Sum of atomic charges =    -1.000000

                    Cartesian Multipole Moments
 -----------------------------------------------------------------
    Charge (ESU x 10^10)
                -4.8032
    Dipole Moment (Debye)
         X       9.2070      Y      -4.0007      Z      -0.6109
       Tot      10.0572
    Quadrupole Moments (Debye-Ang)
        XX    -146.0417     XY      11.8825     YY    -119.2581
        XZ      -6.5402     YZ       9.3691     ZZ    -101.5162

 Total job time:  78.83s(wall), 598.48s(cpu)
        *  Thank you very much for using Q-Chem.  Have a nice day.  *
