 Gaussian 16, Revision A.03,
 Gaussian 16:  ES64L-G16RevA.03 25-Dec-2016

 ----------------------------------------------------------------
 #P UB3LYP/6-311++G(d,p) SCRF=(PCM,Solvent=n,n-DiMethylFormamide)
 ----------------------------------------------------------------

 -------
 Reduced
 -------
 Symbolic Z-matrix:
 Charge = -2 Multiplicity = 1

                         Standard orientation:
 ---------------------------------------------------------------------
 Center     Atomic      Atomic             Coordinates (Angstroms)
 Number     Number       Type             X           Y           Z
 ---------------------------------------------------------------------
      1          6           0       -0.729189    1.117140    0.000001
      2          6           0        0.599175    1.677896   -0.000008
      3          6           0        1.760616    0.922453   -0.000012
      4          6           0        1.796209   -0.522722   -0.000000
      5          6           0        0.503090   -1.095749   -0.000013
      6          6           0       -0.710608   -0.329912    0.000031
      7          8           0       -1.790953    1.841839   -0.000005
      8          8           0        2.913710   -1.191545   -0.000007
      9          6           0       -1.938682   -1.033953    0.000106
     10          7           0       -2.925878   -1.660729   -0.000083
     11          1           0        0.655545    2.767296   -0.000001
     12          1           0        2.729587    1.426273   -0.000021
     13          1           0        0.430275   -2.181743    0.000071
 ---------------------------------------------------------------------

 SCF Done:  E(UB3LYP) =  -474.122765112     A.U. after   16 cycles

 The electronic state is 1-A.
 Alpha  occ. eigenvalues --  -19.03195 -19.01815 -14.28686 -10.19346 -10.19319
 Alpha  occ. eigenvalues --  -10.17737 -10.15877 -10.14114 -10.13736 -10.13470
 Alpha  occ. eigenvalues --   -0.94823  -0.92755  -0.88575  -0.79296  -0.72695
 Alpha  occ. eigenvalues --   -0.66488  -0.60014  -0.55325  -0.47045  -0.44242
 Alpha  occ. eigenvalues --   -0.43433  -0.39344  -0.37827  -0.36696  -0.35977
 Alpha  occ. eigenvalues --   -0.34306  -0.33462  -0.33245  -0.31796  -0.31131
 Alpha  occ. eigenvalues --   -0.23368  -0.22530  -0.20922  -0.19908  -0.13184
 Alpha virt. eigenvalues --   -0.01543   0.00528   0.01877   0.02216   0.04151
 Alpha virt. eigenvalues --    0.04420   0.04645   0.05051   0.06429   0.06757
 Alpha virt. eigenvalues --    0.07804   0.08571   0.08999   0.09046   0.10154

  Beta  occ. eigenvalues --  -19.03195 -19.01815 -14.28686 -10.19346 -10.19319
  Beta  occ. eigenvalues --  -10.17737 -10.15877 -10.14114 -10.13736 -10.13470
  Beta  occ. eigenvalues --   -0.94823  -0.92755  -0.88575  -0.79296  -0.72695
  Beta  occ. eigenvalues --   -0.66488  -0.60014  -0.55325  -0.47045  -0.44242
  Beta  occ. eigenvalues --   -0.43433  -0.39344  -0.37827  -0.36696  -0.35977
  Beta  occ. eigenvalues --   -0.34306  -0.33462  -0.33245  -0.31796  -0.31131
  Beta  occ. eigenvalues --   -0.23368  -0.22530  -0.20922  -0.19908  -0.13184
  Beta virt. eigenvalues --   -0.01543   0.00528   0.01877   0.02216   0.04151
  Beta virt. eigenvalues --    0.04420   0.04645   0.05051   0.06429   0.06757
  Beta virt. eigenvalues --    0.07804   0.08571   0.08999   0.09046   0.10154

 Mulliken charges and spin densities:
               1          2
     1  C   -1.024034  -0.000000
     2  C    0.096182  -0.000000
     3  C    0.006075  -0.000000
     4  C   -0.380394   0.000000
     5  C   -0.402672   0.000000
     6  C    1.988487  -0.000000
     7  O   -0.670926   0.000000
     8  O   -0.739090   0.000000
     9  C   -0.891025   0.000000
    10  N   -0.432121  -0.000000
    11  H    0.154122  -0.000000
    12  H    0.153133   0.000000
    13  H    0.142262   0.000000
 Sum of Mulliken charges =  -2.00000  -0.00000

 Dipole moment (field-independent basis, Debye):
    X=              1.0429    Y=              1.9432    Z=              0.0004  Tot=              2.2054
 Quadrupole moment (field-independent basis, Debye-Ang):
   XX=           -130.5596   YY=            -87.9703   ZZ=            -65.2558
   XY=             14.1722   XZ=             -0.0007   YZ=             -0.0006

 Normal termination of Gaussian 16 at Sun Jan 21 07:26:18 2024.
