 Gaussian 16, Revision A.03,
 Gaussian 16:  ES64L-G16RevA.03 25-Dec-2016

 ----------------------------------------------------------------
 #P UB3LYP/6-311++G(d,p) SCRF=(PCM,Solvent=n,n-DiMethylFormamide)
 ----------------------------------------------------------------

 ------------------
 Radical PCM in DMF
 ------------------
 Symbolic Z-matrix:
 Charge = -3 Multiplicity = 2

                         Standard orientation:
 ---------------------------------------------------------------------
 Center     Atomic      Atomic             Coordinates (Angstroms)
 Number     Number       Type             X           Y           Z
 ---------------------------------------------------------------------
      1          8           0        6.003513   -0.365491   -1.236873
      2         16           0        5.314287   -0.847485    0.000244
      3          8           0        5.031726   -2.309035   -0.008214
      4          8           0        5.995586   -0.378407    1.246633
      5          6           0        3.691216   -0.007538   -0.000875
      6          6           0        3.680265    1.406636   -0.000755
      7          6           0        2.481965    2.085470   -0.000433
      8          6           0        1.240923    1.403032   -0.000205
      9          6           0       -0.000016    2.174374    0.000062
     10          8           0       -0.000083    3.441776    0.000233
     11          6           0       -1.240918    1.402972    0.000165
     12          6           0       -2.481957    2.085409    0.000318
     13          6           0       -3.680265    1.406595    0.000369
     14          6           0       -3.691177   -0.007555    0.000284
     15          6           0       -2.497589   -0.701825    0.000145
     16          6           0       -1.250976   -0.022954    0.000077
     17          6           0        0.000061   -0.799064   -0.000164
     18          8           0        0.000093   -2.053372   -0.000239
     19          6           0        1.251038   -0.022896   -0.000338
     20          6           0        2.497639   -0.701783   -0.000613
     21         16           0       -5.314307   -0.847479   -0.000012
     22          8           0       -5.998767   -0.372913   -1.242619
     23          8           0       -5.031857   -2.309064    0.001340
     24          8           0       -6.000338   -0.370909    1.240935
     25          1           0        4.623612    1.941400   -0.001354
     26          1           0        2.450601    3.169745   -0.000436
     27          1           0       -2.450536    3.169682    0.000433
     28          1           0       -4.623608    1.941376    0.000547
     29          1           0       -2.497091   -1.784361    0.000093
     30          1           0        2.497105   -1.784317   -0.000801
 ---------------------------------------------------------------------

 SCF Done:  E(UB3LYP) =  -1936.02897251     A.U. after   20 cycles

 The electronic state is 2-A.
 Alpha  occ. eigenvalues --  -89.03912 -89.03912 -19.08555 -19.08555 -19.08317
 Alpha  occ. eigenvalues --  -19.08316 -19.08315 -19.08314 -19.07846 -19.07570
 Alpha  occ. eigenvalues --  -10.22923 -10.22425 -10.19382 -10.19381 -10.17806
 Alpha  occ. eigenvalues --  -10.17805 -10.17771 -10.17771 -10.17730 -10.17730
 Alpha  occ. eigenvalues --  -10.17583 -10.17582 -10.17252 -10.17252  -8.09788
 Alpha  occ. eigenvalues --   -8.09788  -6.06065  -6.06065  -6.06053  -6.06053
 Alpha  occ. eigenvalues --   -6.05955  -6.05955  -1.09954  -1.09953  -1.00507
 Alpha  occ. eigenvalues --   -0.99668  -0.96562  -0.96562  -0.96073  -0.96072
 Alpha  occ. eigenvalues --   -0.86522  -0.85627  -0.79244  -0.75584  -0.75571
 Alpha  occ. eigenvalues --   -0.74700  -0.67669  -0.65472  -0.63928  -0.60099
 Alpha  occ. eigenvalues --   -0.59128  -0.57244  -0.55799  -0.52225  -0.52057
 Alpha  occ. eigenvalues --   -0.48809  -0.47907  -0.47533  -0.45996  -0.44591
 Alpha  occ. eigenvalues --   -0.44566  -0.44469  -0.44152  -0.42928  -0.42743
 Alpha  occ. eigenvalues --   -0.42230  -0.42199  -0.41739  -0.41149  -0.39486
 Alpha  occ. eigenvalues --   -0.38003  -0.37563  -0.37335  -0.34969  -0.34939
 Alpha  occ. eigenvalues --   -0.33929  -0.32738  -0.32690  -0.32688  -0.32687
 Alpha  occ. eigenvalues --   -0.29765  -0.29543  -0.28933  -0.28926  -0.28611
 Alpha  occ. eigenvalues --   -0.28459  -0.26313  -0.26015  -0.25563  -0.24879
 Alpha  occ. eigenvalues --   -0.24871  -0.24692  -0.24413  -0.23828  -0.14458
 Alpha virt. eigenvalues --   -0.05629  -0.03074  -0.00623   0.00124   0.00995
 Alpha virt. eigenvalues --    0.01730   0.02579   0.02975   0.03723   0.04409
 Alpha virt. eigenvalues --    0.04548   0.04608   0.05060   0.05234   0.06007

  Beta  occ. eigenvalues --  -89.03913 -89.03913 -19.08553 -19.08553 -19.08314
  Beta  occ. eigenvalues --  -19.08312 -19.08312 -19.08311 -19.07309 -19.06979
  Beta  occ. eigenvalues --  -10.22777 -10.22241 -10.19322 -10.19322 -10.17762
  Beta  occ. eigenvalues --  -10.17762 -10.17725 -10.17725 -10.17701 -10.17700
  Beta  occ. eigenvalues --  -10.17504 -10.17503 -10.17248 -10.17247  -8.09789
  Beta  occ. eigenvalues --   -8.09789  -6.06066  -6.06066  -6.06053  -6.06053
  Beta  occ. eigenvalues --   -6.05957  -6.05957  -1.09949  -1.09948  -0.99569
  Beta  occ. eigenvalues --   -0.98621  -0.96557  -0.96557  -0.96065  -0.96065
  Beta  occ. eigenvalues --   -0.86266  -0.85513  -0.78843  -0.75450  -0.75315
  Beta  occ. eigenvalues --   -0.74534  -0.67064  -0.65200  -0.63760  -0.59981
  Beta  occ. eigenvalues --   -0.58997  -0.57164  -0.55543  -0.52126  -0.51883
  Beta  occ. eigenvalues --   -0.48689  -0.47818  -0.47315  -0.45901  -0.44556
  Beta  occ. eigenvalues --   -0.44542  -0.44431  -0.44087  -0.42895  -0.42683
  Beta  occ. eigenvalues --   -0.42000  -0.41630  -0.40981  -0.40671  -0.39189
  Beta  occ. eigenvalues --   -0.37430  -0.37024  -0.35655  -0.34903  -0.33994
  Beta  occ. eigenvalues --   -0.33757  -0.32727  -0.32675  -0.32674  -0.32625
  Beta  occ. eigenvalues --   -0.29644  -0.28929  -0.28922  -0.28849  -0.28567
  Beta  occ. eigenvalues --   -0.28400  -0.25674  -0.24920  -0.24863  -0.24830
  Beta  occ. eigenvalues --   -0.24297  -0.24178  -0.23944  -0.23311
  Beta virt. eigenvalues --   -0.08573  -0.04731  -0.02044  -0.00405   0.00142
  Beta virt. eigenvalues --    0.00996   0.01742   0.02599   0.02972   0.04295
  Beta virt. eigenvalues --    0.04574   0.04610   0.04690   0.05080   0.05240

 Mulliken charges and spin densities:
               1          2
     1  O   -0.372912  -0.000383
     2  S    0.821894   0.001361
     3  O   -0.402630   0.000333
     4  O   -0.371627  -0.000350
     5  C   -1.075437   0.032075
     6  C   -0.543220   0.037697
     7  C   -0.240779   0.032706
     8  C    0.619756   0.036532
     9  C   -0.371230   0.100578
    10  O   -0.451104   0.219916
    11  C    0.619777   0.036518
    12  C   -0.240785   0.032708
    13  C   -0.543351   0.037686
    14  C   -1.075408   0.032069
    15  C    0.113713   0.005432
    16  C    0.456476   0.060052
    17  C   -0.941840   0.080734
    18  O   -0.429291   0.198360
    19  C    0.456395   0.060059
    20  C    0.113683   0.005427
    21  S    0.821884   0.001362
    22  O   -0.372189  -0.000364
    23  O   -0.402637   0.000332
    24  O   -0.372353  -0.000370
    25  H    0.217223  -0.003110
    26  H    0.166024  -0.001540
    27  H    0.166025  -0.001541
    28  H    0.217234  -0.003109
    29  H    0.208353  -0.000586
    30  H    0.208357  -0.000586
 Sum of Mulliken charges =  -3.00000   1.00000

 Dipole moment (field-independent basis, Debye):
    X=              0.0003    Y=              8.7766    Z=             -0.0032  Tot=              8.7766
 Quadrupole moment (field-independent basis, Debye-Ang):
   XX=           -518.8912   YY=           -217.2941   ZZ=           -178.4729
   XY=              0.0004   XZ=             -0.0267   YZ=             -0.0026

 Normal termination of Gaussian 16 at Tue Jan 16 20:50:53 2024.
