 Q-Chem 5.4, Q-Chem, Inc., Pleasanton, CA (2021)
 Q-Chem 5.4.0 for Intel X86 EM64T Linux

User input:
--------------------------------------------------------------
$molecule
-2 1
I                 -3.3421870000     -1.0833870000     -0.1471560000
C                 -1.3232230000     -0.3817450000     -0.0109160000
C                 -0.9753400000      0.9694990000     -0.0728630000
I                 -2.4146760000      2.5555600000     -0.0628780000
C                  0.3772150000      1.4691210000     -0.0422180000
O                  0.6913480000      2.7004660000     -0.0212710000
C                  1.3232300000      0.3817350000      0.0111800000
C                  0.9753450000     -0.9694910000      0.0731520000
I                  2.4146690000     -2.5555580000      0.0635390000
C                 -0.3772310000     -1.4691210000      0.0424130000
O                 -0.6913320000     -2.7004770000      0.0216410000
I                  3.3421790000      1.0834000000      0.1473770000
$end
$rem
MAX_SCF_CYCLES=200
BASIS  =  6-311++G(d,p)
GUI  =  2
JOB_TYPE  =  SP
METHOD  =  B3LYP
SOLVENT_METHOD = PCM
$end
$pcm
theory = CPCM
$end
$solvent
dielectric 37.219
opticaldielectric 1.43
$end

--------------------------------------------------------------

             Standard Nuclear Orientation (Angstroms)
    I     Atom           X                Y                Z
 ----------------------------------------------------------------
    1      I      -3.3421870000    -1.0833870000    -0.1471560000
    2      C      -1.3232230000    -0.3817450000    -0.0109160000
    3      C      -0.9753400000     0.9694990000    -0.0728630000
    4      I      -2.4146760000     2.5555600000    -0.0628780000
    5      C       0.3772150000     1.4691210000    -0.0422180000
    6      O       0.6913480000     2.7004660000    -0.0212710000
    7      C       1.3232300000     0.3817350000     0.0111800000
    8      C       0.9753450000    -0.9694910000     0.0731520000
    9      I       2.4146690000    -2.5555580000     0.0635390000
   10      C      -0.3772310000    -1.4691210000     0.0424130000
   11      O      -0.6913320000    -2.7004770000     0.0216410000
   12      I       3.3421790000     1.0834000000     0.1473770000
 ----------------------------------------------------------------

    9  -28057.5108309696      7.26e-06  Convergence criterion met
 Total energy in the final basis set =   -28057.5108309696

                    Orbital Energies (a.u.)
 --------------------------------------------------------------

 Alpha MOs
 -- Occupied --
***********************************-176.2808-176.2808-176.2806-176.2806
********-165.6843-165.6842-165.6842-165.6825-165.6825-165.6824-165.6824
********-165.6824-165.6822-165.6822 -35.7772 -35.7772 -35.7771 -35.7771
-31.2699 -31.2699 -31.2698 -31.2698 -31.2648 -31.2648 -31.2647 -31.2647
-31.2644 -31.2644 -31.2643 -31.2643 -22.9206 -22.9206 -22.9205 -22.9205
-22.9194 -22.9194 -22.9193 -22.9193 -22.9191 -22.9191 -22.9190 -22.9190
-22.9156 -22.9156 -22.9156 -22.9156 -22.9155 -22.9155 -22.9155 -22.9155
-19.0413 -19.0413 -10.2115 -10.2115 -10.1982 -10.1982 -10.1977 -10.1977
 -6.3266  -6.3266  -6.3264  -6.3264  -4.7377  -4.7377  -4.7375  -4.7375
 -4.7253  -4.7253  -4.7251  -4.7251  -4.7243  -4.7243  -4.7242  -4.7242
 -2.0038  -2.0038  -2.0037  -2.0037  -1.9998  -1.9998  -1.9996  -1.9996
 -1.9991  -1.9991  -1.9989  -1.9989  -1.9885  -1.9885  -1.9884  -1.9884
 -1.9883  -1.9883  -1.9882  -1.9882  -0.9706  -0.9673  -0.8233  -0.7548
 -0.6968  -0.6632  -0.6454  -0.6113  -0.6033  -0.5385  -0.5281  -0.4784
 -0.4209  -0.3999  -0.3940  -0.3600  -0.3565  -0.3536  -0.3507  -0.3176
 -0.3104  -0.2777  -0.2728  -0.2676  -0.2632  -0.2559  -0.2500  -0.2403
 -0.2358  -0.2226  -0.2149  -0.2047  -0.1458

          Ground-State Mulliken Net Atomic Charges

     Atom                 Charge (a.u.)
  ----------------------------------------
      1 I                    -0.079902
      2 C                     0.674851
      3 C                     0.649150
      4 I                    -0.076636
      5 C                    -1.675034
      6 O                    -0.492536
      7 C                     0.674831
      8 C                     0.648826
      9 I                    -0.076620
     10 C                    -1.674493
     11 O                    -0.492546
     12 I                    -0.079891
  ----------------------------------------
  Sum of atomic charges =    -2.000000

                    Cartesian Multipole Moments
 -----------------------------------------------------------------
    Charge (ESU x 10^10)
                -9.6064
    Dipole Moment (Debye)
         X       0.0003      Y      -0.0000      Z      -0.0018
       Tot       0.0018
    Quadrupole Moments (Debye-Ang)
        XX    -197.0795     XY      -8.1892     YY    -226.8278
        XZ      -0.7968     YZ       0.6672     ZZ    -168.9328

 Total job time:  23.78s(wall), 177.22s(cpu)
        *  Thank you very much for using Q-Chem.  Have a nice day.  *
