 Q-Chem 5.4, Q-Chem, Inc., Pleasanton, CA (2021)
 Q-Chem 5.4.0 for Intel X86 EM64T Linux

User input:
--------------------------------------------------------------
$molecule
-1 2
C                  7.1948680000      1.1919300000      0.2117650000
C                  8.2930470000      1.0332210000      1.1542310000
C                  8.8927830000     -0.1911630000      1.3524900000
C                  8.4566550000     -1.3789550000      0.6289200000
C                  7.3533050000     -1.2215710000     -0.3129030000
C                  6.7646260000      0.0075160000     -0.5161460000
O                  6.6292380000      2.3132660000      0.0259940000
O                  9.0131260000     -2.5043750000      0.8109340000
C                  5.6239550000      0.2094210000     -1.5002500000
C                  6.9012480000     -2.4631790000     -1.0457170000
C                  8.7438160000      2.2628230000      1.9041260000
C                 10.0296850000     -0.3579390000      2.3311270000
C                  4.2730140000      0.1063330000     -0.8384850000
H                  5.7107380000     -0.4843620000     -2.3387150000
H                  5.7188230000      1.2284180000     -1.8931080000
H                  7.4380670000     -3.3249600000     -0.6482730000
H                  7.1109140000     -2.4013780000     -2.1219750000
H                  5.8245050000     -2.6300740000     -0.9355230000
H                  8.1456150000      3.1178900000      1.5879600000
H                  9.8026430000      2.4855020000      1.7199290000
H                  8.6338890000      2.1400880000      2.9894610000
H                  9.7339600000     -0.0722990000      3.3488200000
H                 10.8888100000      0.2720270000      2.0664160000
H                 10.3501570000     -1.3999560000      2.3387900000
C                  3.2058570000     -0.6242270000     -1.1934220000
C                  3.1588640000     -1.5418410000     -2.3930410000
C                  1.9345820000     -0.5685770000     -0.3686290000
C                  0.7309670000      0.0763210000     -1.0840090000
C                 -0.5209710000      0.1340700000     -0.1994050000
C                 -1.7991470000      0.6590900000     -0.8841360000
C                 -3.0177080000      0.4552040000      0.0387640000
C                 -4.3870350000      0.7178110000     -0.6028910000
C                 -5.5542870000      0.4063020000      0.3435420000
C                 -6.9635670000      0.5435620000     -0.2675370000
C                 -8.0189270000     -0.0213340000      0.7046950000
C                 -9.4378110000     -0.1590890000      0.1363210000
C                 -1.6515440000      2.1242000000     -1.3227340000
C                -10.4098600000     -0.8200650000      1.1225580000
C                -11.8307530000     -1.0733260000      0.5833570000
C                -12.5774270000      0.2278610000      0.2550800000
C                -12.6405400000     -1.9206100000      1.5752490000
H                  4.1852610000      0.7293240000      0.0495740000
H                  4.1360080000     -1.6661920000     -2.8589740000
H                  2.4719830000     -1.1682210000     -3.1628840000
H                  2.7954790000     -2.5369580000     -2.1052740000
H                  2.1334340000     -0.0142440000      0.5545360000
H                  1.6507090000     -1.5881280000     -0.0654490000
H                  0.4961730000     -0.4854070000     -1.9967120000
H                  1.0219330000      1.0819990000     -1.4042970000
H                 -0.3117140000      0.7515720000      0.6851890000
H                 -0.7232940000     -0.8760000000      0.1801400000
H                 -1.9631310000      0.0505520000     -1.7860230000
H                 -2.9034010000      1.0954600000      0.9245450000
H                 -3.0008650000     -0.5774410000      0.4097120000
H                 -4.4837230000      0.1014030000     -1.5071200000
H                 -4.4457910000      1.7588240000     -0.9332670000
H                 -5.4860450000      1.0532760000      1.2292400000
H                 -5.4365340000     -0.6206350000      0.7118720000
C                 -7.2744780000      1.9932930000     -0.6705380000
H                 -8.0479490000      0.6096870000      1.6039110000
H                 -7.6832560000     -1.0101170000      1.0417010000
H                 -9.3992390000     -0.7565010000     -0.7846940000
H                 -9.8186800000      0.8251330000     -0.1516810000
H                 -0.8038900000      2.2568780000     -1.9981630000
H                 -1.4861590000      2.7711920000     -0.4533470000
H                 -2.5418650000      2.4858940000     -1.8439930000
H                -10.4803000000     -0.2058540000      2.0312380000
H                 -9.9845650000     -1.7803400000      1.4408120000
H                -11.7337950000     -1.6498590000     -0.3472680000
H                -12.0627730000      0.8166650000     -0.5079040000
H                -12.6768710000      0.8535370000      1.1495710000
H                -13.5853910000      0.0176970000     -0.1156890000
H                -12.1442320000     -2.8730710000      1.7841390000
H                -13.6399730000     -2.1409360000      1.1876210000
H                -12.7632580000     -1.3939170000      2.5283780000
H                 -6.9895960000     -0.0739660000     -1.1775330000
H                 -7.2595780000      2.6487610000      0.2081320000
H                 -8.2586830000      2.0836170000     -1.1369130000
H                 -6.5431380000      2.3790420000     -1.3842110000
$end
$rem
MAX_SCF_CYCLES=200
BASIS  =  6-311++G(d,p)
GUI  =  2
JOB_TYPE  =  SP
METHOD  =  B3LYP
THRESH = 14
SCF_CONVERGENCE  = 6
SOLVENT_METHOD = COSMO
$end
$solvent
dielectric 37.219
opticaldielectric 1.43
$end

--------------------------------------------------------------

             Standard Nuclear Orientation (Angstroms)
    I     Atom           X                Y                Z
 ----------------------------------------------------------------
    1      C      -7.1936133904     1.2080273113    -0.2427804859
    2      C      -8.2913171549     1.0339482427    -1.1830840258
    3      C      -8.8937890833    -0.1925767345    -1.3584982099
    4      C      -8.4611443356    -1.3673637519    -0.6119695777
    5      C      -7.3582721644    -1.1946339425     0.3277212738
    6      C      -6.7668504907     0.0367144757     0.5080182851
    7      O      -6.6254815644     2.3313655528    -0.0779168766
    8      O      -9.0201303072    -2.4947351550    -0.7729902270
    9      C      -5.6265895073     0.2546761401     1.4891677360
   10      C      -6.9098349989    -2.4230881504     1.0845347800
   11      C      -8.7384795239     2.2500694719    -1.9567449673
   12      C     -10.0302023266    -0.3753204230    -2.3348487896
   13      C      -4.2753018031     0.1357767965     0.8307711055
   14      H      -5.7157808666    -0.4227630400     2.3406433699
   15      H      -5.7193840341     1.2812103059     1.8624089632
   16      H      -7.4483467814    -3.2910293838     0.7031085888
   17      H      -7.1203234666    -2.3402520739     2.1592176482
   18      H      -5.8333937029    -2.5946022955     0.9785669495
   19      H      -8.1385286530     3.1096008375    -1.6563956133
   20      H      -9.7969387158     2.4787279901    -1.7778357474
   21      H      -8.6278667007     2.1063731828    -3.0394342429
   22      H      -9.7328802957    -0.1098650218    -3.3575293689
   23      H     -10.8880625531     0.2616148977    -2.0830272867
   24      H     -10.3531485846    -1.4165331063    -2.3229191911
   25      C      -3.2102085589    -0.5903938269     1.2006019548
   26      C      -3.1664831638    -1.4850427727     2.4175657561
   27      C      -1.9380614761    -0.5535091499     0.3761009777
   28      C      -0.7335591514     0.1020834903     1.0801773110
   29      C       0.5193099204     0.1399704303     0.1958178771
   30      C       1.7981150732     0.6749457328     0.8716101800
   31      C       3.0170185361     0.4505937757    -0.0460746074
   32      C       4.3863881324     0.7221666101     0.5917459884
   33      C       5.5537476088     0.3898835398    -0.3474612976
   34      C       6.9627990520     0.5354542723     0.2622198998
   35      C       8.0176865544    -0.0503969500    -0.6980498460
   36      C       9.4357253517    -0.1806284533    -0.1258060395
   37      C       1.6536071712     2.1485083957     1.2820157209
   38      C      10.4070858776    -0.8626123241    -1.0983227128
   39      C      11.8268848222    -1.1088902439    -0.5530393801
   40      C      12.5763600023     0.1965587337    -0.2489581717
   41      C      12.6355451656    -1.9768719432    -1.5278065936
   42      H      -4.1852643673     0.7414878077    -0.0689369547
   43      H      -4.1443403028    -1.5981635010     2.8848624981
   44      H      -2.4794084834    -1.0984161621     3.1807851902
   45      H      -2.8052103742    -2.4863295832     2.1491946646
   46      H      -2.1347600101    -0.0164360975    -0.5576672125
   47      H      -1.6563447366    -1.5793317396     0.0927109154
   48      H      -0.5009269171    -0.4426679452     2.0036606361
   49      H      -1.0224173397     1.1143790904     1.3809304003
   50      H       0.3123221200     0.7409618912    -0.7006022651
   51      H       0.7195683606    -0.8776382549    -0.1641814689
   52      H       1.9598357821     0.0833538629     1.7851061473
   53      H       2.9050357006     1.0740878529    -0.9440260516
   54      H       2.9980501598    -0.5889033629    -0.3972550468
   55      H       4.4807922008     0.1229100359     1.5076700609
   56      H       4.4473258864     1.7691563896     0.9022417643
   57      H       5.4878455522     1.0199870390    -1.2454143998
   58      H       5.4338807965    -0.6436180672    -0.6962287497
   59      C       7.2767991227     1.9918769283     0.6377627481
   60      H       8.0490223683     0.5632684033    -1.6091217941
   61      H       7.6799650942    -1.0446382390    -1.0164338281
   62      H       9.3948999751    -0.7602522033     0.8064102039
   63      H       9.8186779829     0.8080100966     0.1437127769
   64      H       0.8056630017     2.2960631651     1.9539854857
   65      H       1.4905477664     2.7791710359     0.4002783071
   66      H       2.5443169084     2.5179835626     1.7971169176
   67      H      10.4798080466    -0.2660325023    -2.0184967675
   68      H       9.9797917106    -1.8277809145    -1.3985872766
   69      H      11.7277147068    -1.6673173075     0.3883311885
   70      H      12.0624223577     0.8010395312     0.5021573569
   71      H      12.6781005953     0.8048037881    -1.1551372493
   72      H      13.5834858084    -0.0088699565     0.1267100960
   73      H      12.1371582391    -2.9319718049    -1.7189435738
   74      H      13.6341005921    -2.1921186643    -1.1350964672
   75      H      12.7603767626    -1.4687662682    -2.4907010893
   76      H       6.9865364820    -0.0646449048     1.1838643930
   77      H       7.2642527903     2.6304809269    -0.2532752984
   78      H       8.2607956043     2.0887623535     1.1032599945
   79      H       6.5457369396     2.3929110853     1.3432479193
 ----------------------------------------------------------------

   13   -1284.8762789330      8.92e-07  Convergence criterion met
 Total energy in the final basis set =    -1284.8762789330
    6   -1284.9606117333      8.19e-07  Convergence criterion met
 Total energy in the final basis set =    -1284.9606117333

                    Orbital Energies (a.u.)
 --------------------------------------------------------------

 Alpha MOs
 -- Occupied --
-19.0715 -19.0707 -10.2116 -10.2107 -10.1670 -10.1662 -10.1642 -10.1642
-10.1619 -10.1605 -10.1598 -10.1595 -10.1587 -10.1573 -10.1563 -10.1549
-10.1547 -10.1544 -10.1544 -10.1542 -10.1542 -10.1541 -10.1540 -10.1538
-10.1497 -10.1494 -10.1484 -10.1483 -10.1481 -10.1480 -10.1478  -0.9943
 -0.9914  -0.8283  -0.8202  -0.8152  -0.8068  -0.7970  -0.7863  -0.7622
 -0.7450  -0.7283  -0.7183  -0.7157  -0.6961  -0.6776  -0.6769  -0.6724
 -0.6662  -0.6568  -0.6292  -0.6266  -0.6095  -0.5864  -0.5685  -0.5569
 -0.5525  -0.5451  -0.5391  -0.5378  -0.5104  -0.4961  -0.4758  -0.4713
 -0.4633  -0.4590  -0.4463  -0.4413  -0.4386  -0.4362  -0.4359  -0.4287
 -0.4258  -0.4196  -0.4180  -0.4150  -0.4106  -0.4045  -0.4036  -0.4030
 -0.3925  -0.3874  -0.3872  -0.3837  -0.3826  -0.3784  -0.3781  -0.3744
 -0.3734  -0.3723  -0.3702  -0.3650  -0.3613  -0.3605  -0.3587  -0.3547
 -0.3528  -0.3490  -0.3448  -0.3395  -0.3393  -0.3358  -0.3289  -0.3260
 -0.3230  -0.3197  -0.3170  -0.3140  -0.3133  -0.3117  -0.3089  -0.3079
 -0.3024  -0.2849  -0.2650  -0.2436  -0.2374  -0.2262  -0.2229  -0.1539

 Beta MOs
 -- Occupied --
-19.0649 -19.0643 -10.2098 -10.2088 -10.1670 -10.1662 -10.1642 -10.1642
-10.1608 -10.1595 -10.1589 -10.1587 -10.1585 -10.1574 -10.1563 -10.1549
-10.1547 -10.1544 -10.1544 -10.1542 -10.1541 -10.1541 -10.1540 -10.1538
-10.1497 -10.1494 -10.1484 -10.1484 -10.1482 -10.1480 -10.1479  -0.9827
 -0.9797  -0.8246  -0.8196  -0.8144  -0.8063  -0.7968  -0.7850  -0.7620
 -0.7445  -0.7274  -0.7163  -0.7144  -0.6941  -0.6776  -0.6768  -0.6724
 -0.6659  -0.6552  -0.6261  -0.6227  -0.6087  -0.5861  -0.5684  -0.5569
 -0.5525  -0.5450  -0.5359  -0.5337  -0.5097  -0.4947  -0.4758  -0.4713
 -0.4632  -0.4585  -0.4459  -0.4392  -0.4370  -0.4362  -0.4332  -0.4258
 -0.4248  -0.4189  -0.4158  -0.4127  -0.4096  -0.4031  -0.4020  -0.4013
 -0.3899  -0.3868  -0.3852  -0.3834  -0.3809  -0.3784  -0.3773  -0.3744
 -0.3732  -0.3711  -0.3649  -0.3614  -0.3607  -0.3572  -0.3543  -0.3502
 -0.3489  -0.3446  -0.3396  -0.3375  -0.3354  -0.3326  -0.3284  -0.3253
 -0.3220  -0.3195  -0.3168  -0.3140  -0.3133  -0.3117  -0.3089  -0.3078
 -0.3022  -0.2847  -0.2394  -0.2375  -0.2319  -0.2201  -0.2184

          Ground-State Mulliken Net Atomic Charges

     Atom                 Charge (a.u.)    Spin (a.u.)
  --------------------------------------------------------
      1 C                    -1.229292       0.108400
      2 C                     0.719395       0.087549
      3 C                     0.401678       0.069609
      4 C                    -1.298657       0.107304
      5 C                     0.675329       0.069476
      6 C                     1.036475       0.060887
      7 O                    -0.511066       0.232233
      8 O                    -0.533657       0.235167
      9 C                    -0.128106       0.010392
     10 C                    -0.681806       0.001794
     11 C                    -0.531137       0.000390
     12 C                    -0.526589       0.000917
     13 C                    -0.624935      -0.001746
     14 H                     0.174259      -0.000561
     15 H                     0.227478       0.002769
     16 H                     0.180614      -0.001956
     17 H                     0.182478       0.004730
     18 H                     0.170155       0.003434
     19 H                     0.179914      -0.001381
     20 H                     0.156264       0.003354
     21 H                     0.159398       0.003415
     22 H                     0.155682       0.003305
     23 H                     0.157092       0.003384
     24 H                     0.185503      -0.001535
     25 C                     1.298709       0.006468
     26 C                    -0.804236      -0.001760
     27 C                    -1.225528      -0.005715
     28 C                    -0.144807       0.001175
     29 C                    -0.861413      -0.000316
     30 C                     1.325694      -0.000212
     31 C                    -0.962380       0.000185
     32 C                    -0.076791      -0.000019
     33 C                    -1.019227       0.000004
     34 C                     1.298138       0.000000
     35 C                    -0.754464      -0.000000
     36 C                     0.030128      -0.000000
     37 C                    -0.798011      -0.000021
     38 C                    -0.766872      -0.000000
     39 C                     0.523975      -0.000000
     40 C                    -0.705218       0.000000
     41 C                    -0.681303       0.000000
     42 H                     0.243544      -0.001599
     43 H                     0.109349       0.000196
     44 H                     0.175225      -0.000116
     45 H                     0.174841       0.000101
     46 H                     0.128549      -0.000041
     47 H                     0.177071       0.000256
     48 H                     0.136829       0.000262
     49 H                     0.151850      -0.000118
     50 H                     0.144921       0.000037
     51 H                     0.127633      -0.000094
     52 H                     0.140239      -0.000031
     53 H                     0.155849      -0.000003
     54 H                     0.111822       0.000017
     55 H                     0.161703       0.000001
     56 H                     0.100749       0.000002
     57 H                     0.152068      -0.000000
     58 H                     0.116487      -0.000001
     59 C                    -0.782366       0.000000
     60 H                     0.147328       0.000000
     61 H                     0.112051       0.000000
     62 H                     0.152098       0.000000
     63 H                     0.099683       0.000000
     64 H                     0.146409       0.000017
     65 H                     0.167359       0.000001
     66 H                     0.147650      -0.000005
     67 H                     0.146531      -0.000000
     68 H                     0.133433      -0.000000
     69 H                     0.144797       0.000000
     70 H                     0.147185      -0.000000
     71 H                     0.152992      -0.000000
     72 H                     0.152265       0.000000
     73 H                     0.141787      -0.000000
     74 H                     0.162704      -0.000000
     75 H                     0.146285      -0.000000
     76 H                     0.136743      -0.000000
     77 H                     0.165588       0.000000
     78 H                     0.149860       0.000000
     79 H                     0.148026      -0.000000
  --------------------------------------------------------
  Sum of atomic charges =    -1.000000

                    Cartesian Multipole Moments
 -----------------------------------------------------------------
    Charge (ESU x 10^10)
                -4.8032
    Dipole Moment (Debye)
         X      37.4772      Y       0.1250      Z       2.4635
       Tot      37.5583
    Quadrupole Moments (Debye-Ang)
        XX    -505.2600     XY     -22.4422     YY    -236.0614
        XZ     -14.6709     YZ      -8.5884     ZZ    -203.2027

 Total job time:  1314.84s(wall), 9378.06s(cpu)
        *  Thank you very much for using Q-Chem.  Have a nice day.  *
