 Gaussian 16, Revision A.03,
 Gaussian 16:  ES64L-G16RevA.03 25-Dec-2016

 ----------------------------------------------------------------------
 #P UB3LYP/6-311++G(d,p) nosym opt freq SCRF=(PCM,Solvent=n,n-DiMethylF
 ormamide)
 ----------------------------------------------------------------------

 -------
 Reduced
 -------
 Symbolic Z-matrix:
 Charge = -2 Multiplicity = 1

 SCF Done:  E(UB3LYP) =  -1148.80498390     A.U. after   18 cycles
 SCF Done:  E(UB3LYP) =  -1148.80564116     A.U. after   13 cycles
 SCF Done:  E(UB3LYP) =  -1148.80573962     A.U. after   12 cycles
 SCF Done:  E(UB3LYP) =  -1148.80575592     A.U. after   12 cycles
 SCF Done:  E(UB3LYP) =  -1148.80575899     A.U. after   11 cycles
 SCF Done:  E(UB3LYP) =  -1148.80576006     A.U. after   10 cycles
 Optimization completed.
    -- Stationary point found.
 Normal termination of Gaussian 16 at Sat Feb 10 17:28:58 2024.

 ----------------------------------------------------------------------
 #P Geom=AllCheck Guess=TCheck SCRF=Check GenChk UB3LYP/6-311++G(d,p) F
 req
 ----------------------------------------------------------------------

 Structure from the checkpoint file:  "117-an.chk"
 -------
 Reduced
 -------
 Charge = -2 Multiplicity = 1

                          Input orientation:
 ---------------------------------------------------------------------
 Center     Atomic      Atomic             Coordinates (Angstroms)
 Number     Number       Type             X           Y           Z
 ---------------------------------------------------------------------
      1         17           0        3.024622    2.872778    0.345412
      2          6           0        2.616587    1.125997    0.261923
      3          6           0        3.719575    0.310940    0.340980
      4          6           0        3.559575   -1.099141    0.293634
      5          6           0        2.300588   -1.624474    0.171647
      6          6           0        1.135643   -0.810715    0.086936
      7          6           0       -0.128721   -1.480596   -0.039418
      8          8           0       -0.226538   -2.780200   -0.071879
      9          6           0       -1.279891   -0.628448   -0.128903
     10          6           0       -2.579111   -1.198206   -0.265114
     11          6           0       -3.713016   -0.424154   -0.349255
     12          6           0       -3.602312    0.992531   -0.299606
     13          6           0       -2.361287    1.574877   -0.172945
     14          6           0       -1.164672    0.809036   -0.085657
     15          6           0        0.100516    1.502675    0.040347
     16          8           0        0.135504    2.795665    0.064608
     17          6           0        1.267119    0.655287    0.129471
     18          1           0        4.705193    0.748181    0.440056
     19          1           0        4.433279   -1.739557    0.355223
     20          1           0        2.144794   -2.695977    0.133560
     21          1           0       -2.645024   -2.279857   -0.302235
     22          1           0       -4.688818   -0.889239   -0.452591
     23          1           0       -4.493669    1.609389   -0.362135
     24          1           0       -2.259936    2.653209   -0.134054
 ---------------------------------------------------------------------

 SCF Done:  E(UB3LYP) =  -1148.80576006     A.U. after    1 cycles

 Alpha  occ. eigenvalues -- -101.52911 -19.01762 -19.01618 -10.21512 -10.18117
 Alpha  occ. eigenvalues --  -10.17335 -10.15568 -10.15447 -10.15245 -10.15127
 Alpha  occ. eigenvalues --  -10.15014 -10.14779 -10.14747 -10.14729 -10.14285
 Alpha  occ. eigenvalues --  -10.13958 -10.13919  -9.44389  -7.20815  -7.19923
 Alpha  occ. eigenvalues --   -7.19823  -0.93549  -0.92881  -0.85804  -0.82661
 Alpha  occ. eigenvalues --   -0.80606  -0.75722  -0.72420  -0.71214  -0.71078
 Alpha  occ. eigenvalues --   -0.64126  -0.61219  -0.59426  -0.55668  -0.52536
 Alpha  occ. eigenvalues --   -0.51210  -0.49759  -0.44742  -0.44158  -0.43842
 Alpha  occ. eigenvalues --   -0.42683  -0.40624  -0.40006  -0.38882  -0.38323
 Alpha  occ. eigenvalues --   -0.36937  -0.36738  -0.35726  -0.35430  -0.32932
 Alpha  occ. eigenvalues --   -0.32727  -0.32006  -0.31440  -0.30388  -0.29855
 Alpha  occ. eigenvalues --   -0.29399  -0.23363  -0.22675  -0.22211  -0.22014
 Alpha  occ. eigenvalues --   -0.19928  -0.19035  -0.10928
 Alpha virt. eigenvalues --   -0.03149  -0.00228   0.00128   0.00802   0.01349
 Alpha virt. eigenvalues --    0.01508   0.02083   0.02608   0.03462   0.04784
 Alpha virt. eigenvalues --    0.04955   0.05010   0.05806   0.06422   0.06765

  Beta  occ. eigenvalues -- -101.52911 -19.01762 -19.01618 -10.21512 -10.18117
  Beta  occ. eigenvalues --  -10.17335 -10.15568 -10.15447 -10.15245 -10.15127
  Beta  occ. eigenvalues --  -10.15014 -10.14779 -10.14747 -10.14729 -10.14285
  Beta  occ. eigenvalues --  -10.13958 -10.13919  -9.44389  -7.20815  -7.19923
  Beta  occ. eigenvalues --   -7.19823  -0.93549  -0.92881  -0.85804  -0.82661
  Beta  occ. eigenvalues --   -0.80606  -0.75722  -0.72420  -0.71214  -0.71078
  Beta  occ. eigenvalues --   -0.64126  -0.61219  -0.59426  -0.55668  -0.52536
  Beta  occ. eigenvalues --   -0.51210  -0.49759  -0.44742  -0.44158  -0.43842
  Beta  occ. eigenvalues --   -0.42683  -0.40624  -0.40006  -0.38882  -0.38323
  Beta  occ. eigenvalues --   -0.36937  -0.36738  -0.35726  -0.35430  -0.32932
  Beta  occ. eigenvalues --   -0.32727  -0.32006  -0.31440  -0.30388  -0.29855
  Beta  occ. eigenvalues --   -0.29399  -0.23363  -0.22675  -0.22211  -0.22014
  Beta  occ. eigenvalues --   -0.19928  -0.19035  -0.10928
  Beta virt. eigenvalues --   -0.03149  -0.00228   0.00128   0.00802   0.01349
  Beta virt. eigenvalues --    0.01508   0.02083   0.02608   0.03462   0.04784
  Beta virt. eigenvalues --    0.04955   0.05010   0.05806   0.06422   0.06765

 Mulliken charges and spin densities:
               1          2
     1  Cl   0.291491   0.000000
     2  C    0.961182  -0.000000
     3  C   -0.142318  -0.000000
     4  C   -0.667080   0.000000
     5  C    0.186070  -0.000000
     6  C    0.254515  -0.000000
     7  C   -0.729783   0.000000
     8  O   -0.667033  -0.000000
     9  C    0.072941   0.000000
    10  C    0.005964  -0.000000
    11  C   -0.452282   0.000000
    12  C   -0.485271   0.000000
    13  C    0.082672  -0.000000
    14  C    0.087160  -0.000000
    15  C   -1.269181   0.000000
    16  O   -0.560957  -0.000000
    17  C   -0.075348   0.000000
    18  H    0.176411  -0.000000
    19  H    0.160291   0.000000
    20  H    0.153845  -0.000000
    21  H    0.148214  -0.000000
    22  H    0.157739   0.000000
    23  H    0.158257  -0.000000
    24  H    0.152501   0.000000
 Sum of Mulliken charges =  -2.00000  -0.00000

 Dipole moment (field-independent basis, Debye):
    X=             -1.5528    Y=             -2.1361    Z=             -0.2025  Tot=              2.6486
 Quadrupole moment (field-independent basis, Debye-Ang):
   XX=           -131.8388   YY=           -173.7353   ZZ=           -117.7030
   XY=            -10.8677   XZ=             -1.5463   YZ=             -1.9912

  Exact polarizability: 556.391  -6.181 400.424  35.910   4.693 159.744
 Approx polarizability: 615.008 -13.836 475.489  39.447   5.229 176.943

                      1                      2                      3
                      A                      A                      A
 Frequencies --     50.2116                61.6220               130.7908
 Red. masses --     10.5233                 6.6835                 4.3784
 Frc consts  --      0.0156                 0.0150                 0.0441
 IR Inten    --      0.5245                21.4472                 0.3293

                      4                      5                      6
                      A                      A                      A
 Frequencies --    167.9646               178.2039               200.9217
 Red. masses --      7.8032                 9.8963                 4.6328
 Frc consts  --      0.1297                 0.1852                 0.1102
 IR Inten    --      7.1417                16.5559                 0.1434

                      7                      8                      9
                      A                      A                      A
 Frequencies --    256.8256               268.8040               312.2725
 Red. masses --      5.4897                 7.9338                10.6984
 Frc consts  --      0.2133                 0.3378                 0.6147
 IR Inten    --      0.2958                 4.1920                 0.4477

                     10                     11                     12
                      A                      A                      A
 Frequencies --    368.5195               370.8699               392.6862
 Red. masses --      6.9707                12.1370                 7.4252
 Frc consts  --      0.5578                 0.9836                 0.6746
 IR Inten    --      6.3955                 2.2799                 0.1980

                     13                     14                     15
                      A                      A                      A
 Frequencies --    410.5091               443.2899               460.3211
 Red. masses --      7.9792                 3.3541                 8.3647
 Frc consts  --      0.7922                 0.3883                 1.0443
 IR Inten    --      7.5907                 3.6850                10.8827

                     16                     17                     18
                      A                      A                      A
 Frequencies --    498.4441               499.9293               543.7847
 Red. masses --      4.0725                11.1209                 4.4832
 Frc consts  --      0.5961                 1.6376                 0.7811
 IR Inten    --      0.2588                 1.6647                 5.4719

                     19                     20                     21
                      A                      A                      A
 Frequencies --    600.0801               623.6730               643.8271
 Red. masses --      6.5422                 4.2817                 7.0220
 Frc consts  --      1.3880                 0.9812                 1.7150
 IR Inten    --     88.6575                 2.4690                29.8973

                     22                     23                     24
                      A                      A                      A
 Frequencies --    681.6987               696.1693               721.5671
 Red. masses --      6.9527                 2.0766                 3.5286
 Frc consts  --      1.9037                 0.5930                 1.0824
 IR Inten    --      2.9388               160.0758                 1.1655

                     25                     26                     27
                      A                      A                      A
 Frequencies --    733.9314               761.2603               781.2498
 Red. masses --      7.4954                 1.5500                 2.1345
 Frc consts  --      2.3788                 0.5292                 0.7676
 IR Inten    --    137.5758                 9.4414                76.2264

                     28                     29                     30
                      A                      A                      A
 Frequencies --    808.0610               817.1515               859.8825
 Red. masses --      3.4794                 6.7755                 1.7030
 Frc consts  --      1.3386                 2.6656                 0.7419
 IR Inten    --      7.5668                40.0863                 0.2072

                     31                     32                     33
                      A                      A                      A
 Frequencies --    863.2097               926.8413               939.5859
 Red. masses --      1.4042                 7.2639                 7.1534
 Frc consts  --      0.6165                 3.6765                 3.7208
 IR Inten    --      0.1640                49.4381                26.3400

                     34                     35                     36
                      A                      A                      A
 Frequencies --    981.2500               982.9400               987.8849
 Red. masses --      1.3226                 1.3281                 1.2544
 Frc consts  --      0.7503                 0.7560                 0.7213
 IR Inten    --      0.3891                 6.2373                 0.0593

                     37                     38                     39
                      A                      A                      A
 Frequencies --   1018.0202              1063.5751              1080.8317
 Red. masses --      2.0472                 2.1877                 4.8625
 Frc consts  --      1.2500                 1.4581                 3.3468
 IR Inten    --    103.7508               226.0544               412.4967

                     40                     41                     42
                      A                      A                      A
 Frequencies --   1104.9685              1110.4291              1146.4882
 Red. masses --      2.2450                 1.6818                 1.4028
 Frc consts  --      1.6150                 1.2218                 1.0864
 IR Inten    --    108.3390               428.4416                30.6064

                     43                     44                     45
                      A                      A                      A
 Frequencies --   1179.7597              1184.2621              1213.1230
 Red. masses --      1.9462                 1.9123                 2.1711
 Frc consts  --      1.5960                 1.5801                 1.8825
 IR Inten    --    222.5794               151.9863               225.0903

                     46                     47                     48
                      A                      A                      A
 Frequencies --   1239.1659              1280.8677              1328.9774
 Red. masses --      2.7193                 5.4035                 3.2072
 Frc consts  --      2.4601                 5.2232                 3.3374
 IR Inten    --    444.8350               669.7453              2090.7770

                     49                     50                     51
                      A                      A                      A
 Frequencies --   1344.9322              1360.0838              1417.7730
 Red. masses --      7.6450                 2.1471                 3.1597
 Frc consts  --      8.1476                 2.3401                 3.7421
 IR Inten    --    450.8222               518.6620               188.2618

                     52                     53                     54
                      A                      A                      A
 Frequencies --   1445.6198              1455.7249              1475.5621
 Red. masses --      6.7098                 2.9705                 2.8738
 Frc consts  --      8.2616                 3.7088                 3.6865
 IR Inten    --      4.6055               411.4360                46.3602

                     55                     56                     57
                      A                      A                      A
 Frequencies --   1487.1414              1523.7568              1574.2932
 Red. masses --      4.6345                 5.3751                 7.8147
 Frc consts  --      6.0389                 7.3531                11.4113
 IR Inten    --     28.8853                86.4739                43.8236

                     58                     59                     60
                      A                      A                      A
 Frequencies --   1597.5825              1610.5926              3139.4400
 Red. masses --      5.3591                 5.3577                 1.0849
 Frc consts  --      8.0587                 8.1884                 6.2999
 IR Inten    --     28.9238                11.0879                26.8857

                     61                     62                     63
                      A                      A                      A
 Frequencies --   3155.0096              3155.1117              3173.9328
 Red. masses --      1.0894                 1.0865                 1.0916
 Frc consts  --      6.3889                 6.3725                 6.4792
 IR Inten    --     45.6247                20.0690                41.6300

                     64                     65                     66
                      A                      A                      A
 Frequencies --   3178.5883              3180.3350              3187.3565
 Red. masses --      1.0931                 1.0909                 1.0942
 Frc consts  --      6.5071                 6.5011                 6.5494
 IR Inten    --     89.0683                24.3415                30.9015

 - Thermochemistry -
 -------------------
 Temperature   298.150 Kelvin.  Pressure   1.00000 Atm.
 Atom     1 has atomic number 17 and mass  34.96885

 Molecular mass:   242.01346 amu.
 Principal axes and moments of inertia in atomic units:
                           1         2         3
     Eigenvalues --  2413.268375178.488587591.70495
           X            0.95996  -0.26517  -0.09030
           Y            0.26425   0.96420  -0.02212
           Z            0.09294  -0.00263   0.99567
 This molecule is an asymmetric top.
 Rotational symmetry number  1.
 Warning -- assumption of classical behavior for rotation
           may cause significant error
 Rotational temperatures (Kelvin)      0.03589     0.01673     0.01141
 Rotational constants (GHZ):           0.74784     0.34851     0.23773
 Zero-point vibrational energy     433284.7 (Joules/Mol)
                                  103.55752 (Kcal/Mol)
 Warning -- explicit consideration of  19 degrees of freedom as
           vibrations may cause significant error
 Vibrational temperatures:     72.24    88.66   188.18   241.66   256.40
          (Kelvin)            289.08   369.51   386.75   449.29   530.22
                              533.60   564.99   590.63   637.80   662.30
                              717.15   719.29   782.38   863.38   897.33
                              926.32   980.81  1001.63  1038.17  1055.96
                             1095.28  1124.04  1162.62  1175.70  1237.18
                             1241.97  1333.52  1351.85  1411.80  1414.23
                             1421.35  1464.70  1530.25  1555.08  1589.80
                             1597.66  1649.54  1697.41  1703.89  1745.41
                             1782.88  1842.88  1912.10  1935.06  1956.86
                             2039.86  2079.92  2094.46  2123.00  2139.66
                             2192.35  2265.06  2298.56  2317.28  4516.95
                             4539.36  4539.50  4566.58  4573.28  4575.79
                             4585.90

 Zero-point correction=                           0.165029 (Hartree/Particle)
 Thermal correction to Energy=                    0.177613
 Thermal correction to Enthalpy=                  0.178557
 Thermal correction to Gibbs Free Energy=         0.125606
 Sum of electronic and zero-point Energies=          -1148.640731
 Sum of electronic and thermal Energies=             -1148.628147
 Sum of electronic and thermal Enthalpies=           -1148.627203
 Sum of electronic and thermal Free Energies=        -1148.680154

                     E (Thermal)             CV                S
                      KCal/Mol        Cal/Mol-Kelvin    Cal/Mol-Kelvin
 Total                  111.454             50.781            111.444
 Electronic               0.000              0.000              0.000
 Translational            0.889              2.981             42.353
 Rotational               0.889              2.981             32.917
 Vibrational            109.676             44.820             36.175
 Vibration     1          0.595              1.978              4.809
 Vibration     2          0.597              1.973              4.405
 Vibration     3          0.612              1.923              2.934
 Vibration     4          0.625              1.882              2.458
 Vibration     5          0.629              1.869              2.347
 Vibration     6          0.638              1.839              2.125
 Vibration     7          0.666              1.751              1.683
 Vibration     8          0.673              1.731              1.604
 Vibration     9          0.701              1.650              1.350
 Vibration    10          0.741              1.537              1.086
 Vibration    11          0.743              1.532              1.076
 Vibration    12          0.760              1.486              0.990
 Vibration    13          0.775              1.447              0.925
 Vibration    14          0.803              1.376              0.816
 Vibration    15          0.818              1.338              0.765
 Vibration    16          0.854              1.253              0.662
 Vibration    17          0.855              1.250              0.658
 Vibration    18          0.899              1.153              0.557
 Vibration    19          0.958              1.032              0.450

                           ! Non-Optimized Parameters !
 Normal termination of Gaussian 16 at Sat Feb 10 17:55:44 2024.
