 Q-Chem 5.4, Q-Chem, Inc., Pleasanton, CA (2021)
 Q-Chem 5.4.0 for Intel X86 EM64T Linux

User input:
--------------------------------------------------------------
$molecule
-1 2
N                 -2.9464940000     -1.8443350000     -0.3018860000
C                 -2.5485220000     -0.5290670000     -0.1350480000
C                 -3.5046240000      0.4810400000     -0.0131900000
C                 -3.1221710000      1.8077570000      0.2229290000
C                 -1.7879560000      2.1440020000      0.3449150000
C                 -0.7897110000      1.1579180000      0.2141860000
C                  0.6111680000      1.6006190000      0.3414440000
O                  0.8689200000      2.8023160000      0.5688880000
C                  1.6489440000      0.5742440000      0.1833930000
C                  3.0450110000      0.8258650000      0.2901360000
Cl                 3.7095790000      2.4283170000      0.6603540000
C                  3.9953320000     -0.1620460000      0.1188170000
C                  3.5973280000     -1.4785970000     -0.1738620000
C                  2.2575510000     -1.7745730000     -0.2841990000
C                  1.2723530000     -0.7808170000     -0.1094960000
C                 -0.1240010000     -1.2038740000     -0.2395320000
O                 -0.3871880000     -2.4137840000     -0.5256010000
C                 -1.1524090000     -0.1975830000     -0.0412830000
H                 -3.8522370000     -1.9876230000     -0.7199060000
H                 -2.1828230000     -2.4678890000     -0.5685130000
H                 -4.5568610000      0.2183440000     -0.0860480000
H                 -3.8872550000      2.5733150000      0.3166550000
H                 -1.4682560000      3.1599100000      0.5358450000
H                  5.0437290000      0.0921480000      0.2138730000
H                  4.3495630000     -2.2495390000     -0.3074080000
H                  1.9110290000     -2.7760700000     -0.5054610000
$end
$rem
MAX_SCF_CYCLES=200
BASIS  =  6-311++G(d,p)
GUI  =  2
JOB_TYPE  =  SP
METHOD  =  B3LYP
SOLVENT_METHOD = COSMO
$end
$solvent
dielectric 37.219
opticaldielectric 1.43
$end

--------------------------------------------------------------

             Standard Nuclear Orientation (Angstroms)
    I     Atom           X                Y                Z
 ----------------------------------------------------------------
    1      N       3.7484629001    -1.5693010729    -0.1435172474
    2      C       3.1270208671    -0.3367511454    -0.0397048264
    3      C       3.8915061833     0.8307085312     0.0038458664
    4      C       3.2788250207     2.0898395797     0.0414127813
    5      C       1.9021484321     2.2026858458     0.0315011142
    6      C       1.0927943847     1.0494029141     0.0027033357
    7      C      -0.3675293937     1.2544288523     0.0104217139
    8      O      -0.8361506379     2.4130150297     0.0281627817
    9      C      -1.2072566243     0.0501899450     0.0019589941
   10      C      -2.6296928797     0.0675122001    -0.0072769768
   11      Cl     -3.5747081509     1.5683575817    -0.0384808892
   12      C      -3.3888978890    -1.0865910480     0.0017669791
   13      C      -2.7588514231    -2.3435883551     0.0211044414
   14      C      -1.3841763235    -2.4143686607     0.0271851283
   15      C      -0.5918557755    -1.2478518220     0.0147819350
   16      C       0.8609325112    -1.4351915550     0.0137339509
   17      O       1.3401616555    -2.6115767900     0.0517113650
   18      C       1.6921144148    -0.2446067231    -0.0207864572
   19      H       4.6911613830    -1.6255727252     0.2083287769
   20      H       3.1186004075    -2.3558208552     0.0231045300
   21      H       4.9752663037     0.7484217553    -0.0107510059
   22      H       3.8979376487     2.9820269023     0.0717191627
   23      H       1.4059172231     3.1639852102     0.0512378453
   24      H      -4.4689402171    -1.0077549975    -0.0071744434
   25      H      -3.3617819565    -3.2460657889     0.0283742504
   26      H      -0.8619396993    -3.3626081522     0.0390756787
 ----------------------------------------------------------------

   10   -1204.0146249480      7.38e-06  Convergence criterion met
 Total energy in the final basis set =    -1204.0146249480
    5   -1204.0961925312      5.16e-06  Convergence criterion met
 Total energy in the final basis set =    -1204.0961925312

                    Orbital Energies (a.u.)
 --------------------------------------------------------------

 Alpha MOs
 -- Occupied --
******** -19.0824 -19.0768 -14.3044 -10.2379 -10.2322 -10.2313 -10.2173
-10.1900 -10.1812 -10.1802 -10.1769 -10.1749 -10.1743 -10.1717 -10.1710
-10.1622 -10.1571  -9.4617  -7.2262  -7.2171  -7.2158  -1.0109  -1.0084
 -0.9132  -0.8869  -0.8452  -0.8306  -0.7870  -0.7442  -0.7402  -0.7284
 -0.6687  -0.6394  -0.6278  -0.5821  -0.5557  -0.5498  -0.5298  -0.4981
 -0.4792  -0.4781  -0.4658  -0.4501  -0.4417  -0.4311  -0.4308  -0.4198
 -0.4147  -0.4007  -0.3952  -0.3824  -0.3783  -0.3634  -0.3590  -0.3531
 -0.3460  -0.3298  -0.3153  -0.3105  -0.2734  -0.2530  -0.2527  -0.2512
 -0.2355  -0.2132  -0.1429

 Beta MOs
 -- Occupied --
******** -19.0776 -19.0714 -14.3042 -10.2378 -10.2303 -10.2297 -10.2173
-10.1891 -10.1802 -10.1797 -10.1762 -10.1750 -10.1735 -10.1718 -10.1706
-10.1614 -10.1568  -9.4617  -7.2262  -7.2170  -7.2158  -1.0020  -0.9992
 -0.9123  -0.8856  -0.8430  -0.8296  -0.7833  -0.7425  -0.7375  -0.7266
 -0.6619  -0.6374  -0.6254  -0.5813  -0.5534  -0.5476  -0.5286  -0.4972
 -0.4778  -0.4752  -0.4648  -0.4490  -0.4404  -0.4303  -0.4202  -0.4166
 -0.4114  -0.3985  -0.3892  -0.3771  -0.3644  -0.3603  -0.3538  -0.3508
 -0.3442  -0.3238  -0.3146  -0.3044  -0.2551  -0.2476  -0.2471  -0.2457
 -0.2308  -0.2058

          Ground-State Mulliken Net Atomic Charges

     Atom                 Charge (a.u.)    Spin (a.u.)
  --------------------------------------------------------
      1 N                    -0.439071       0.010750
      2 C                     0.103305       0.029423
      3 C                    -0.234383       0.073960
      4 C                    -0.494036       0.032100
      5 C                     0.064092       0.060000
      6 C                     0.269070       0.047383
      7 C                    -1.463493       0.082609
      8 O                    -0.369199       0.201602
      9 C                    -0.233488       0.046704
     10 C                     0.962525       0.031406
     11 Cl                    0.335892       0.000715
     12 C                    -0.084336       0.039866
     13 C                    -0.690338       0.055052
     14 C                     0.498375       0.032994
     15 C                     0.256091       0.042688
     16 C                    -0.903193       0.096508
     17 O                    -0.472450       0.176889
     18 C                     0.106769      -0.038269
     19 H                     0.282453      -0.000547
     20 H                     0.325218      -0.002736
     21 H                     0.185591      -0.005169
     22 H                     0.204941      -0.002689
     23 H                     0.168886      -0.003543
     24 H                     0.221318      -0.003161
     25 H                     0.206471      -0.004220
     26 H                     0.192989      -0.000315
  --------------------------------------------------------
  Sum of atomic charges =    -1.000000

                    Cartesian Multipole Moments
 -----------------------------------------------------------------
    Charge (ESU x 10^10)
                -4.8032
    Dipole Moment (Debye)
         X       1.6147      Y      -2.8431      Z       0.8402
       Tot       3.3758
    Quadrupole Moments (Debye-Ang)
        XX    -112.3644     XY      16.3756     YY    -138.0380
        XZ       4.0948     YZ      -1.5682     ZZ    -119.0335

 Total job time:  90.28s(wall), 700.69s(cpu)
        *  Thank you very much for using Q-Chem.  Have a nice day.  *
