 Gaussian 16, Revision A.03,
 Gaussian 16:  ES64L-G16RevA.03 25-Dec-2016

 ----------------------------------------------------------------
 #P UB3LYP/6-311++G(d,p) SCRF=(PCM,Solvent=n,n-DiMethylFormamide)
 ----------------------------------------------------------------

 ------------------
 Quinone PCM in DMF
 ------------------
 Symbolic Z-matrix:
 Charge =  0 Multiplicity = 1

                         Standard orientation:
 ---------------------------------------------------------------------
 Center     Atomic      Atomic             Coordinates (Angstroms)
 Number     Number       Type             X           Y           Z
 ---------------------------------------------------------------------
      1          6           0        2.008074   -1.861766   -0.039828
      2          6           0        3.375655   -1.626803    0.056968
      3          6           0        3.858777   -0.318058    0.129726
      4          6           0        1.116004   -0.786286   -0.056354
      5          6           0        1.600256    0.525512    0.016830
      6          6           0        2.974599    0.755957    0.107150
      7          6           0       -0.345448   -1.049724   -0.183940
      8          6           0       -1.276868    0.118688   -0.066691
      9          6           0       -0.808617    1.400553   -0.023448
     10          6           0        0.654938    1.677120    0.000804
     11          8           0       -0.757289   -2.177907   -0.392692
     12          8           0        1.072293    2.826161    0.034737
     13          1           0        1.613131   -2.867804   -0.106133
     14          1           0        4.067052   -2.461585    0.072813
     15          1           0        4.925339   -0.137834    0.201929
     16          1           0        3.327002    1.778610    0.158284
     17         16           0       -3.028513   -0.125684   -0.169719
     18          6           0       -3.391190   -1.765468    0.565218
     19          6           0       -1.712169    2.598202    0.007934
     20          1           0       -4.467485   -1.739733    0.742511
     21          1           0       -2.875413   -1.884609    1.516335
     22          1           0       -3.130567   -2.572795   -0.110308
     23          1           0       -2.172799    2.766764   -0.972144
     24          1           0       -1.145788    3.489727    0.270241
     25          1           0       -2.528373    2.446615    0.719398
 ---------------------------------------------------------------------

 SCF Done:  E(UB3LYP) =  -1012.13419651     A.U. after   16 cycles

 The electronic state is 1-A.
 Alpha  occ. eigenvalues --  -88.87124 -19.13769 -19.13248 -10.29179 -10.28226
 Alpha  occ. eigenvalues --  -10.23901 -10.21757 -10.20937 -10.20825 -10.20030
 Alpha  occ. eigenvalues --  -10.19948 -10.19921 -10.19854 -10.19824 -10.17426
 Alpha  occ. eigenvalues --   -7.95706  -5.92094  -5.91666  -5.91147  -1.07395
 Alpha  occ. eigenvalues --   -1.06605  -0.89296  -0.86253  -0.80128  -0.78042
 Alpha  occ. eigenvalues --   -0.77944  -0.72821  -0.68884  -0.66996  -0.63025
 Alpha  occ. eigenvalues --   -0.61233  -0.58687  -0.55231  -0.52246  -0.50187
 Alpha  occ. eigenvalues --   -0.47733  -0.46594  -0.46392  -0.45874  -0.45311
 Alpha  occ. eigenvalues --   -0.44326  -0.43392  -0.42807  -0.41591  -0.41335
 Alpha  occ. eigenvalues --   -0.40546  -0.39578  -0.38295  -0.37934  -0.37061
 Alpha  occ. eigenvalues --   -0.34473  -0.31241  -0.29178  -0.28499  -0.28009
 Alpha  occ. eigenvalues --   -0.27626  -0.24073
 Alpha virt. eigenvalues --   -0.12612  -0.05797  -0.03526  -0.00915  -0.00119
 Alpha virt. eigenvalues --    0.00246   0.01625   0.02057   0.02188   0.02662
 Alpha virt. eigenvalues --    0.03205   0.03695   0.04366   0.04461   0.04832

  Beta  occ. eigenvalues --  -88.87124 -19.13769 -19.13248 -10.29179 -10.28226
  Beta  occ. eigenvalues --  -10.23901 -10.21757 -10.20937 -10.20825 -10.20030
  Beta  occ. eigenvalues --  -10.19948 -10.19921 -10.19854 -10.19824 -10.17426
  Beta  occ. eigenvalues --   -7.95706  -5.92094  -5.91666  -5.91147  -1.07395
  Beta  occ. eigenvalues --   -1.06605  -0.89296  -0.86253  -0.80128  -0.78042
  Beta  occ. eigenvalues --   -0.77944  -0.72821  -0.68884  -0.66996  -0.63025
  Beta  occ. eigenvalues --   -0.61233  -0.58687  -0.55231  -0.52246  -0.50187
  Beta  occ. eigenvalues --   -0.47733  -0.46594  -0.46392  -0.45874  -0.45311
  Beta  occ. eigenvalues --   -0.44326  -0.43392  -0.42807  -0.41591  -0.41335
  Beta  occ. eigenvalues --   -0.40546  -0.39578  -0.38295  -0.37934  -0.37061
  Beta  occ. eigenvalues --   -0.34473  -0.31241  -0.29178  -0.28499  -0.28009
  Beta  occ. eigenvalues --   -0.27626  -0.24073
  Beta virt. eigenvalues --   -0.12612  -0.05797  -0.03526  -0.00915  -0.00119
  Beta virt. eigenvalues --    0.00246   0.01625   0.02057   0.02188   0.02662
  Beta virt. eigenvalues --    0.03205   0.03695   0.04366   0.04461   0.04832

 Mulliken charges and spin densities:
               1          2
     1  C    0.122944  -0.000000
     2  C   -0.420499  -0.000000
     3  C   -0.436669   0.000000
     4  C    0.160668   0.000000
     5  C    0.672040  -0.000000
     6  C    0.133517  -0.000000
     7  C   -0.876043  -0.000000
     8  C    0.596784   0.000000
     9  C    1.039799   0.000000
    10  C   -1.106393  -0.000000
    11  O   -0.246764   0.000000
    12  O   -0.276225  -0.000000
    13  H    0.200334   0.000000
    14  H    0.205413  -0.000000
    15  H    0.207875  -0.000000
    16  H    0.188948   0.000000
    17  S   -0.600864   0.000000
    18  C   -0.608144  -0.000000
    19  C   -0.106632  -0.000000
    20  H    0.168759   0.000000
    21  H    0.204086  -0.000000
    22  H    0.223782  -0.000000
    23  H    0.205207  -0.000000
    24  H    0.186279  -0.000000
    25  H    0.161798  -0.000000
 Sum of Mulliken charges =  -0.00000   0.00000

 Dipole moment (field-independent basis, Debye):
    X=              0.7755    Y=             -2.2910    Z=              1.3651  Tot=              2.7773
 Quadrupole moment (field-independent basis, Debye-Ang):
   XX=            -76.5229   YY=           -102.6148   ZZ=            -96.4339
   XY=             -5.9191   XZ=             -2.7312   YZ=             -3.0998

 Normal termination of Gaussian 16 at Sun Jan 21 08:08:05 2024.
