 Q-Chem 5.4, Q-Chem, Inc., Pleasanton, CA (2021)
 Q-Chem 5.4.0 for Intel X86 EM64T Linux

User input:
--------------------------------------------------------------
$molecule
-1 2
O                  1.5335600000     -3.0729830000      0.0826760000
C                  1.2985810000     -1.8403530000      0.0442280000
C                  2.3843570000     -0.8593030000     -0.0063870000
C                  3.7244570000     -1.2973250000     -0.0119030000
C                  4.7665660000     -0.3909810000     -0.0593150000
C                  4.4906750000      0.9904550000     -0.1028850000
C                  3.1816520000      1.4351240000     -0.0980590000
C                  2.1037040000      0.5264840000     -0.0499300000
C                  0.7261600000      1.0593780000     -0.0469490000
O                  0.5612410000      2.3053910000     -0.0881410000
C                 -0.3647230000      0.0858420000      0.0029990000
C                 -1.7661200000      0.4879360000      0.0102980000
C                 -2.1982470000      1.8416940000     -0.0295100000
C                 -3.5411530000      2.1770970000     -0.0207370000
C                 -4.5333560000      1.1845650000      0.0281210000
C                 -4.1514960000     -0.1416410000      0.0677160000
C                 -2.7889210000     -0.5167150000      0.0600790000
C                 -2.4219880000     -1.8975780000      0.1018760000
C                 -1.1117260000     -2.2669670000      0.0949160000
C                 -0.0623070000     -1.3073680000      0.0462700000
H                  3.9010210000     -2.3661000000      0.0223490000
H                  5.7948500000     -0.7402600000     -0.0630850000
H                  5.3073680000      1.7054310000     -0.1402560000
H                  2.9417570000      2.4910760000     -0.1309310000
H                 -1.4395740000      2.6078790000     -0.0671650000
H                 -3.8260300000      3.2245340000     -0.0522650000
H                 -5.5847490000      1.4554100000      0.0346660000
H                 -4.9007200000     -0.9277510000      0.1058360000
H                 -3.2102090000     -2.6445530000      0.1392550000
H                 -0.8146280000     -3.3084200000      0.1262370000
$end

$rem
BASIS  =  6-311++G(d,p)
GUI  =  2
JOB_TYPE  =  SP
METHOD  =  B3LYP
SCF_CONVERGENCE  = 8
SOLVENT_METHOD = sm12
$end

$smx
solvent dimethylformamide
charges CM5
$end

--------------------------------------------------------------

             Standard Nuclear Orientation (Angstroms)
    I     Atom           X                Y                Z
 ----------------------------------------------------------------
    1      O       1.5335600000    -3.0729830000     0.0826760000
    2      C       1.2985810000    -1.8403530000     0.0442280000
    3      C       2.3843570000    -0.8593030000    -0.0063870000
    4      C       3.7244570000    -1.2973250000    -0.0119030000
    5      C       4.7665660000    -0.3909810000    -0.0593150000
    6      C       4.4906750000     0.9904550000    -0.1028850000
    7      C       3.1816520000     1.4351240000    -0.0980590000
    8      C       2.1037040000     0.5264840000    -0.0499300000
    9      C       0.7261600000     1.0593780000    -0.0469490000
   10      O       0.5612410000     2.3053910000    -0.0881410000
   11      C      -0.3647230000     0.0858420000     0.0029990000
   12      C      -1.7661200000     0.4879360000     0.0102980000
   13      C      -2.1982470000     1.8416940000    -0.0295100000
   14      C      -3.5411530000     2.1770970000    -0.0207370000
   15      C      -4.5333560000     1.1845650000     0.0281210000
   16      C      -4.1514960000    -0.1416410000     0.0677160000
   17      C      -2.7889210000    -0.5167150000     0.0600790000
   18      C      -2.4219880000    -1.8975780000     0.1018760000
   19      C      -1.1117260000    -2.2669670000     0.0949160000
   20      C      -0.0623070000    -1.3073680000     0.0462700000
   21      H       3.9010210000    -2.3661000000     0.0223490000
   22      H       5.7948500000    -0.7402600000    -0.0630850000
   23      H       5.3073680000     1.7054310000    -0.1402560000
   24      H       2.9417570000     2.4910760000    -0.1309310000
   25      H      -1.4395740000     2.6078790000    -0.0671650000
   26      H      -3.8260300000     3.2245340000    -0.0522650000
   27      H      -5.5847490000     1.4554100000     0.0346660000
   28      H      -4.9007200000    -0.9277510000     0.1058360000
   29      H      -3.2102090000    -2.6445530000     0.1392550000
   30      H      -0.8146280000    -3.3084200000     0.1262370000
 ----------------------------------------------------------------

   18    -842.6935683160      5.05e-09  Convergence criterion met
 Total energy in the final basis set =     -842.7834687320

                    Orbital Energies (a.u.)
 --------------------------------------------------------------

 Alpha MOs
 -- Occupied --
-19.0819 -19.0795 -10.2329 -10.2304 -10.1960 -10.1931 -10.1870 -10.1841
-10.1837 -10.1836 -10.1830 -10.1826 -10.1818 -10.1815 -10.1815 -10.1809
-10.1802 -10.1790 -10.1775 -10.1719  -1.0093  -1.0071  -0.8810  -0.8663
 -0.8340  -0.7947  -0.7705  -0.7590  -0.7514  -0.7289  -0.6778  -0.6466
 -0.6337  -0.6146  -0.6010  -0.5660  -0.5553  -0.5263  -0.5083  -0.5009
 -0.4777  -0.4725  -0.4612  -0.4454  -0.4363  -0.4347  -0.4315  -0.4243
 -0.4135  -0.4086  -0.4032  -0.3952  -0.3848  -0.3842  -0.3637  -0.3598
 -0.3522  -0.3487  -0.3403  -0.3298  -0.2926  -0.2701  -0.2645  -0.2584
 -0.2488  -0.2379  -0.2330  -0.1522

 Beta MOs
 -- Occupied --
-19.0759 -19.0739 -10.2315 -10.2292 -10.1961 -10.1930 -10.1858 -10.1838
-10.1835 -10.1832 -10.1828 -10.1820 -10.1810 -10.1808 -10.1805 -10.1802
-10.1802 -10.1790 -10.1780 -10.1717  -0.9995  -0.9970  -0.8796  -0.8647
 -0.8319  -0.7917  -0.7690  -0.7574  -0.7500  -0.7272  -0.6707  -0.6453
 -0.6316  -0.6136  -0.6003  -0.5640  -0.5534  -0.5250  -0.5074  -0.4995
 -0.4754  -0.4713  -0.4604  -0.4443  -0.4355  -0.4343  -0.4224  -0.4204
 -0.4121  -0.4052  -0.4003  -0.3913  -0.3829  -0.3635  -0.3630  -0.3525
 -0.3514  -0.3478  -0.3390  -0.3216  -0.2852  -0.2602  -0.2546  -0.2512
 -0.2434  -0.2328  -0.2257

          Ground-State Mulliken Net Atomic Charges

     Atom                 Charge (a.u.)    Spin (a.u.)
  --------------------------------------------------------
      1 O                    -0.270376       0.223612
      2 C                    -2.292763       0.056078
      3 C                    -0.792682       0.015654
      4 C                     0.196760       0.023587
      5 C                     1.224279       0.023446
      6 C                     1.059355       0.025539
      7 C                     0.137634       0.021099
      8 C                    -0.703851       0.004130
      9 C                    -1.675014       0.077938
     10 O                    -0.257585       0.211797
     11 C                    -1.227994       0.098984
     12 C                    -0.707355       0.002848
     13 C                    -0.631272       0.014911
     14 C                     0.701004       0.009966
     15 C                     1.544945       0.015344
     16 C                     1.004339       0.012756
     17 C                     0.118051      -0.008453
     18 C                     0.435272       0.093270
     19 C                    -0.034833      -0.016769
     20 C                    -1.525485       0.114208
     21 H                     0.164974      -0.001851
     22 H                     0.369695      -0.001945
     23 H                     0.368508      -0.002062
     24 H                     0.164331      -0.001571
     25 H                     0.126049      -0.004325
     26 H                     0.297105      -0.000854
     27 H                     0.405078      -0.000963
     28 H                     0.286595      -0.001789
     29 H                     0.307371      -0.005315
     30 H                     0.207866       0.000732
  --------------------------------------------------------
  Sum of atomic charges =    -1.000000

                    Cartesian Multipole Moments
 -----------------------------------------------------------------
    Charge (ESU x 10^10)
                -4.8032
    Dipole Moment (Debye)
         X      -3.1142      Y       1.6084      Z      -0.0083
       Tot       3.5051
    Quadrupole Moments (Debye-Ang)
        XX    -124.2521     XY       8.3067     YY    -144.9882
        XZ      -0.2983     YZ       0.5627     ZZ    -125.0108

 Total job time:  1019.98s(wall), 7714.88s(cpu)
        *  Thank you very much for using Q-Chem.  Have a nice day.  *
