 Gaussian 16, Revision A.03,
 Gaussian 16:  ES64L-G16RevA.03 25-Dec-2016

 ----------------------------------------------------------------
 #P UB3LYP/6-311++G(d,p) SCRF=(PCM,Solvent=n,n-DiMethylFormamide)
 ----------------------------------------------------------------

 ------------------
 Radical PCM in DMF
 ------------------
 Symbolic Z-matrix:
 Charge = -1 Multiplicity = 2

                         Standard orientation:
 ---------------------------------------------------------------------
 Center     Atomic      Atomic             Coordinates (Angstroms)
 Number     Number       Type             X           Y           Z
 ---------------------------------------------------------------------
      1          8           0       -4.346371   -0.937603    0.000452
      2          6           0       -3.113917   -0.333847    0.000100
      3          6           0       -3.011826    1.057931    0.000045
      4          6           0       -1.764254    1.676019   -0.000132
      5          8           0       -1.708137    3.049029   -0.000178
      6          6           0       -0.565513    0.917837   -0.000212
      7          6           0        0.764958    1.542514   -0.000130
      8          8           0        0.950660    2.773468   -0.000022
      9          6           0        1.921833    0.620104   -0.000003
     10          6           0        3.219583    1.166077    0.000331
     11          6           0        4.339948    0.355333    0.000361
     12          6           0        4.189408   -1.048516    0.000090
     13          6           0        2.929035   -1.608736   -0.000122
     14          6           0        1.771530   -0.793043   -0.000180
     15          6           0        0.460748   -1.394961   -0.000272
     16          8           0        0.313493   -2.677659   -0.000265
     17          6           0       -0.689294   -0.516970   -0.000239
     18          6           0       -1.971216   -1.119482   -0.000082
     19          8           0       -2.145964   -2.469263    0.000102
     20          1           0       -4.165560   -1.889878    0.000793
     21          1           0       -3.921953    1.651214    0.000166
     22          1           0       -2.615729    3.370946   -0.000213
     23          1           0        3.302607    2.246694    0.000599
     24          1           0        5.332555    0.795348    0.000626
     25          1           0        5.067902   -1.687267    0.000120
     26          1           0        2.786754   -2.682832   -0.000210
     27          1           0       -1.182158   -2.829571    0.000068
 ---------------------------------------------------------------------

 SCF Done:  E(UB3LYP) =  -914.848896772     A.U. after   20 cycles

 The electronic state is 2-A.
 Alpha  occ. eigenvalues --  -19.15791 -19.15300 -19.13142 -19.08927 -19.07593
 Alpha  occ. eigenvalues --  -10.24197 -10.23488 -10.23364 -10.22858 -10.22727
 Alpha  occ. eigenvalues --  -10.18232 -10.17801 -10.17554 -10.17474 -10.17467
 Alpha  occ. eigenvalues --  -10.17396 -10.17328 -10.17171 -10.17092  -1.07599
 Alpha  occ. eigenvalues --   -1.06497  -1.04454  -1.00804  -1.00005  -0.86347
 Alpha  occ. eigenvalues --   -0.84924  -0.78847  -0.75351  -0.74444  -0.73932
 Alpha  occ. eigenvalues --   -0.67403  -0.65144  -0.63264  -0.60445  -0.58273
 Alpha  occ. eigenvalues --   -0.57093  -0.53773  -0.52410  -0.50743  -0.49387
 Alpha  occ. eigenvalues --   -0.48042  -0.46467  -0.45257  -0.44817  -0.43810
 Alpha  occ. eigenvalues --   -0.42559  -0.42008  -0.41446  -0.41135  -0.40956
 Alpha  occ. eigenvalues --   -0.40563  -0.38215  -0.37979  -0.37496  -0.36913
 Alpha  occ. eigenvalues --   -0.36479  -0.35576  -0.34830  -0.33942  -0.30496
 Alpha  occ. eigenvalues --   -0.26600  -0.25902  -0.25862  -0.24449  -0.23653
 Alpha  occ. eigenvalues --   -0.21507  -0.14167
 Alpha virt. eigenvalues --   -0.04913  -0.02194  -0.00474   0.00289   0.00485
 Alpha virt. eigenvalues --    0.00822   0.01929   0.02253   0.03896   0.04217
 Alpha virt. eigenvalues --    0.04444   0.04542   0.05090   0.06183   0.06251

  Beta  occ. eigenvalues --  -19.15763 -19.15283 -19.13068 -19.08409 -19.07162
  Beta  occ. eigenvalues --  -10.24195 -10.23416 -10.23275 -10.22617 -10.22533
  Beta  occ. eigenvalues --  -10.18256 -10.17758 -10.17537 -10.17471 -10.17392
  Beta  occ. eigenvalues --  -10.17269 -10.17228 -10.17127 -10.17114  -1.07489
  Beta  occ. eigenvalues --   -1.06457  -1.04223  -1.00067  -0.99146  -0.86094
  Beta  occ. eigenvalues --   -0.84796  -0.78471  -0.75102  -0.74288  -0.73694
  Beta  occ. eigenvalues --   -0.66735  -0.64984  -0.62987  -0.60334  -0.58185
  Beta  occ. eigenvalues --   -0.56906  -0.53563  -0.52300  -0.50631  -0.49236
  Beta  occ. eigenvalues --   -0.47798  -0.46365  -0.45097  -0.44184  -0.43685
  Beta  occ. eigenvalues --   -0.42510  -0.41674  -0.41002  -0.40662  -0.40655
  Beta  occ. eigenvalues --   -0.39761  -0.38107  -0.37419  -0.37013  -0.36779
  Beta  occ. eigenvalues --   -0.35442  -0.35310  -0.33852  -0.33828  -0.29720
  Beta  occ. eigenvalues --   -0.25487  -0.25209  -0.25048  -0.23951  -0.23250
  Beta  occ. eigenvalues --   -0.20482
  Beta virt. eigenvalues --   -0.08592  -0.03918  -0.01227  -0.00454   0.00294
  Beta virt. eigenvalues --    0.00501   0.01329   0.01933   0.02271   0.03912
  Beta virt. eigenvalues --    0.04231   0.04458   0.04643   0.05903   0.06197

 Mulliken charges and spin densities:
               1          2
     1  O   -0.307745   0.008356
     2  C   -0.389545   0.046072
     3  C    0.108034   0.061452
     4  C   -0.179599   0.011734
     5  O   -0.239802   0.003979
     6  C    0.442396   0.022645
     7  C   -0.276551   0.038165
     8  O   -0.436889   0.161476
     9  C   -0.190226   0.074466
    10  C    0.108365  -0.010607
    11  C   -0.537209   0.084327
    12  C   -0.494956  -0.005765
    13  C    0.070554   0.078022
    14  C    0.208086  -0.021651
    15  C   -0.279613   0.196950
    16  O   -0.509021   0.186831
    17  C    0.836591  -0.033427
    18  C   -0.332706   0.093878
    19  O   -0.502874   0.022857
    20  H    0.307340  -0.000327
    21  H    0.194297  -0.005661
    22  H    0.294523  -0.000635
    23  H    0.161486   0.001124
    24  H    0.181106  -0.006001
    25  H    0.182501  -0.000361
    26  H    0.168259  -0.003367
    27  H    0.413198  -0.004531
 Sum of Mulliken charges =  -1.00000   1.00000

 Dipole moment (field-independent basis, Debye):
    X=             -1.1430    Y=             -0.2024    Z=              0.0014  Tot=              1.1607
 Quadrupole moment (field-independent basis, Debye-Ang):
   XX=           -116.3431   YY=           -141.3831   ZZ=           -115.5521
   XY=            -13.0408   XZ=              0.0005   YZ=             -0.0026

 Normal termination of Gaussian 16 at Tue Jan 16 05:48:36 2024.
