 Q-Chem 5.4, Q-Chem, Inc., Pleasanton, CA (2021)
 Q-Chem 5.4.0 for Intel X86 EM64T Linux

User input:
--------------------------------------------------------------
$molecule
0 1
C                  0.8951390000      1.2098250000     -1.3149540000
C                 -0.5375880000      1.2594120000     -1.8144890000
C                 -1.4706450000      0.6087220000     -1.0891260000
C                 -1.1056020000     -0.2513590000      0.0629340000
C                  0.2742060000     -0.1162870000      0.6815510000
C                  1.1752020000      0.6463910000      0.0283350000
O                  1.7919590000      1.6354480000     -2.0151150000
O                 -1.8941930000     -1.0546100000      0.5196350000
S                  2.8888490000      0.8672830000      0.6699530000
C                  3.3217840000      2.5882130000      0.3580810000
C                  4.1610490000      2.8989400000     -0.7079930000
C                  2.8610540000      3.5615000000      1.2430340000
C                  3.2370660000      4.8867110000      1.0362440000
C                  4.5403940000      4.2254400000     -0.8939380000
C                  4.0750270000      5.2160250000     -0.0288820000
O                  3.7711340000      0.0001270000     -0.1108040000
O                  2.7968050000      0.7191410000      2.1271040000
H                  4.5012910000      2.1144310000     -1.3702030000
H                  2.2421790000      3.2834220000      2.0869190000
H                  5.1981040000      4.4846510000     -1.7151970000
H                  2.8889860000      5.6564980000      1.7149650000
H                  4.3714710000      6.2475750000     -0.1816690000
S                 -3.2390990000      0.5798980000     -1.6075060000
C                 -4.2066220000      0.7218300000     -0.0942780000
C                 -4.3860510000      1.9857480000      0.4651880000
C                 -4.8112940000     -0.4129990000      0.4385910000
C                 -5.6111520000     -0.2741700000      1.5695330000
C                 -5.1773440000      2.1074560000      1.6050900000
C                 -5.7881610000      0.9801430000      2.1539160000
H                 -3.9356500000      2.8559820000      0.0044060000
H                 -4.6516410000     -1.3758500000     -0.0274530000
H                 -6.0945090000     -1.1460150000      1.9943740000
H                 -5.3285860000      3.0826050000      2.0529760000
H                 -6.4094590000      1.0804930000      3.0366590000
O                 -3.5002060000     -0.7201770000     -2.2252610000
O                 -3.4595470000      1.8204460000     -2.3599790000
C                 -0.7350940000      2.0251750000     -3.0883170000
C                  0.4710010000     -0.8800000000      1.9567430000
H                  0.2307210000      2.1849970000     -3.5634840000
H                 -1.1900810000      2.9965770000     -2.8748200000
H                 -1.4120580000      1.5117130000     -3.7683180000
H                 -0.3346550000     -1.6027370000      2.0692860000
H                  0.4554050000     -0.1956880000      2.8097520000
H                  1.4365410000     -1.3814720000      1.9830260000
$end

$rem
BASIS  =  6-311++G(d,p)
GUI  =  2
JOB_TYPE  =  SP
METHOD  =  B3LYP
SCF_CONVERGENCE  = 8
SOLVENT_METHOD = sm12
$end

$smx
solvent dimethylformamide
charges CM5
$end

--------------------------------------------------------------

             Standard Nuclear Orientation (Angstroms)
    I     Atom           X                Y                Z
 ----------------------------------------------------------------
    1      C       0.8951390000     1.2098250000    -1.3149540000
    2      C      -0.5375880000     1.2594120000    -1.8144890000
    3      C      -1.4706450000     0.6087220000    -1.0891260000
    4      C      -1.1056020000    -0.2513590000     0.0629340000
    5      C       0.2742060000    -0.1162870000     0.6815510000
    6      C       1.1752020000     0.6463910000     0.0283350000
    7      O       1.7919590000     1.6354480000    -2.0151150000
    8      O      -1.8941930000    -1.0546100000     0.5196350000
    9      S       2.8888490000     0.8672830000     0.6699530000
   10      C       3.3217840000     2.5882130000     0.3580810000
   11      C       4.1610490000     2.8989400000    -0.7079930000
   12      C       2.8610540000     3.5615000000     1.2430340000
   13      C       3.2370660000     4.8867110000     1.0362440000
   14      C       4.5403940000     4.2254400000    -0.8939380000
   15      C       4.0750270000     5.2160250000    -0.0288820000
   16      O       3.7711340000     0.0001270000    -0.1108040000
   17      O       2.7968050000     0.7191410000     2.1271040000
   18      H       4.5012910000     2.1144310000    -1.3702030000
   19      H       2.2421790000     3.2834220000     2.0869190000
   20      H       5.1981040000     4.4846510000    -1.7151970000
   21      H       2.8889860000     5.6564980000     1.7149650000
   22      H       4.3714710000     6.2475750000    -0.1816690000
   23      S      -3.2390990000     0.5798980000    -1.6075060000
   24      C      -4.2066220000     0.7218300000    -0.0942780000
   25      C      -4.3860510000     1.9857480000     0.4651880000
   26      C      -4.8112940000    -0.4129990000     0.4385910000
   27      C      -5.6111520000    -0.2741700000     1.5695330000
   28      C      -5.1773440000     2.1074560000     1.6050900000
   29      C      -5.7881610000     0.9801430000     2.1539160000
   30      H      -3.9356500000     2.8559820000     0.0044060000
   31      H      -4.6516410000    -1.3758500000    -0.0274530000
   32      H      -6.0945090000    -1.1460150000     1.9943740000
   33      H      -5.3285860000     3.0826050000     2.0529760000
   34      H      -6.4094590000     1.0804930000     3.0366590000
   35      O      -3.5002060000    -0.7201770000    -2.2252610000
   36      O      -3.4595470000     1.8204460000    -2.3599790000
   37      C      -0.7350940000     2.0251750000    -3.0883170000
   38      C       0.4710010000    -0.8800000000     1.9567430000
   39      H       0.2307210000     2.1849970000    -3.5634840000
   40      H      -1.1900810000     2.9965770000    -2.8748200000
   41      H      -1.4120580000     1.5117130000    -3.7683180000
   42      H      -0.3346550000    -1.6027370000     2.0692860000
   43      H       0.4554050000    -0.1956880000     2.8097520000
   44      H       1.4365410000    -1.3814720000     1.9830260000
 ----------------------------------------------------------------

   15   -2019.6858159751      8.74e-09  Convergence criterion met
 Total energy in the final basis set =    -2019.7228184319

                    Orbital Energies (a.u.)
 --------------------------------------------------------------

 Alpha MOs
 -- Occupied --
-89.0679 -89.0679 -19.1585 -19.1584 -19.1317 -19.1317 -19.1289 -19.1288
-10.3099 -10.3099 -10.2531 -10.2531 -10.2479 -10.2479 -10.2226 -10.2225
-10.2033 -10.2032 -10.2004 -10.2003 -10.1951 -10.1951 -10.1935 -10.1935
-10.1925 -10.1925 -10.1802 -10.1802  -8.1316  -8.1315  -6.0940  -6.0940
 -6.0936  -6.0935  -6.0927  -6.0926  -1.1272  -1.1269  -1.0952  -1.0935
 -1.0232  -1.0231  -0.8944  -0.8847  -0.8845  -0.8478  -0.7920  -0.7916
 -0.7713  -0.7713  -0.7580  -0.7554  -0.7114  -0.6812  -0.6783  -0.6454
 -0.6304  -0.6303  -0.6085  -0.6042  -0.5898  -0.5678  -0.5513  -0.5505
 -0.5230  -0.5167  -0.4958  -0.4916  -0.4869  -0.4863  -0.4835  -0.4790
 -0.4755  -0.4626  -0.4612  -0.4604  -0.4596  -0.4484  -0.4456  -0.4452
 -0.4402  -0.4288  -0.4281  -0.4174  -0.4108  -0.4019  -0.3932  -0.3921
 -0.3857  -0.3856  -0.3685  -0.3684  -0.3564  -0.3542  -0.3476  -0.3466
 -0.3294  -0.3284  -0.3213  -0.3181  -0.3156  -0.3138  -0.3043  -0.2876
 -0.2802  -0.2792  -0.2758  -0.2735

          Ground-State Mulliken Net Atomic Charges

     Atom                 Charge (a.u.)
  ----------------------------------------
      1 C                    -1.032700
      2 C                     0.640359
      3 C                     0.292222
      4 C                    -1.028800
      5 C                     0.631681
      6 C                     0.300589
      7 O                    -0.156541
      8 O                    -0.156765
      9 S                    -0.234517
     10 C                    -0.642285
     11 C                    -0.797425
     12 C                     0.481644
     13 C                    -0.085435
     14 C                    -0.139859
     15 C                     0.223658
     16 O                    -0.180988
     17 O                    -0.084577
     18 H                     0.218361
     19 H                     0.308994
     20 H                     0.292787
     21 H                     0.304893
     22 H                     0.303842
     23 S                    -0.246019
     24 C                    -0.643737
     25 C                     0.480930
     26 C                    -0.796370
     27 C                    -0.137179
     28 C                    -0.085632
     29 C                     0.225712
     30 H                     0.309821
     31 H                     0.217975
     32 H                     0.292942
     33 H                     0.304855
     34 H                     0.303995
     35 O                    -0.179682
     36 O                    -0.084362
     37 C                    -0.407173
     38 C                    -0.405148
     39 H                     0.231006
     40 H                     0.255574
     41 H                     0.208849
     42 H                     0.230876
     43 H                     0.254942
     44 H                     0.208687
  ----------------------------------------
  Sum of atomic charges =     0.000000

                    Cartesian Multipole Moments
 -----------------------------------------------------------------
    Charge (ESU x 10^10)
                 0.0000
    Dipole Moment (Debye)
         X      -1.7124      Y       5.9677      Z       3.8533
       Tot       7.3071
    Quadrupole Moments (Debye-Ang)
        XX    -180.5925     XY      11.7718     YY    -149.1408
        XZ     -30.7232     YZ       1.5753     ZZ    -180.5340

 Total job time:  2711.51s(wall), 18029.88s(cpu)
        *  Thank you very much for using Q-Chem.  Have a nice day.  *
