 Q-Chem 5.4, Q-Chem, Inc., Pleasanton, CA (2021)
 Q-Chem 5.4.0 for Intel X86 EM64T Linux

User input:
--------------------------------------------------------------
$molecule
-3 1
C                 -1.7684960000      1.8793410000     -5.1443690000
C                 -1.6646910000      0.5574040000     -5.5366070000
C                 -1.2574840000     -0.4226880000     -4.5941460000
C                 -1.4809610000      2.2992030000     -3.8226050000
C                 -1.1039000000      1.3007520000     -2.8601060000
C                 -0.9859550000     -0.0442470000     -3.2939570000
C                 -1.5930770000      3.7101520000     -3.4797370000
C                 -0.8408510000      1.6421210000     -1.4757020000
C                 -1.2987180000      4.0712120000     -2.0993560000
C                 -0.9532400000      3.0575620000     -1.1350710000
C                 -1.3681850000      5.4560480000     -1.6564510000
C                 -1.1513180000      5.7673930000     -0.2971740000
C                 -0.8283800000      4.7454700000      0.6164500000
C                 -0.7234120000      3.4332280000      0.2112890000
O                 -1.9574780000      4.5573070000     -4.3781690000
O                 -0.5209830000      0.7599910000     -0.6098480000
N                 -1.6286280000      6.4382690000     -2.5753440000
H                 -2.0735410000      2.6487950000     -5.8455170000
H                 -1.8884160000      0.2629640000     -6.5614600000
H                 -1.1669240000     -1.4646200000     -4.9011420000
H                 -0.6775670000     -0.7711860000     -2.5494790000
S                 -1.1672940000      7.4755760000      0.3406780000
H                 -0.6772560000      5.0235090000      1.6535440000
H                 -1.9314800000      6.0724800000     -3.4806870000
H                 -1.9660330000      7.3151210000     -2.1947590000
H                 -0.4726790000      2.6434400000      0.9097160000
O                 -2.2311870000      8.2062770000     -0.4340690000
O                 -1.4946120000      7.3638060000      1.7956190000
O                  0.1897540000      8.0575820000      0.1072130000
$end
$rem
MAX_SCF_CYCLES=200
BASIS  =  6-311++G(d,p)
GUI  =  2
JOB_TYPE  =  SP
METHOD  =  B3LYP
SOLVENT_METHOD = COSMO
$end
$solvent
dielectric 37.219
opticaldielectric 1.43
$end

--------------------------------------------------------------

             Standard Nuclear Orientation (Angstroms)
    I     Atom           X                Y                Z
 ----------------------------------------------------------------
    1      C       3.7625507100    -1.6720366566     0.0370723416
    2      C       5.0820287360    -1.2589121868     0.0158716285
    3      C       5.3808305468     0.1275300615    -0.0400387971
    4      C       2.6838843037    -0.7547242571     0.0048653157
    5      C       2.9876540762     0.6498433618    -0.0150708699
    6      C       4.3489222931     1.0453178437    -0.0564084914
    7      C       1.3169734053    -1.2571326953     0.0116403104
    8      C       1.9409475246     1.6530708020     0.0004888113
    9      C       0.2554155911    -0.2595200003    -0.0064474563
   10      C       0.5715013314     1.1463997496     0.0064519176
   11      C      -1.1450239392    -0.6563301226    -0.0149385638
   12      C      -2.1520395415     0.3306463190     0.0433542125
   13      C      -1.8009538929     1.6942717625     0.0676214846
   14      C      -0.4825576875     2.0921200995     0.0411464038
   15      O       1.1046934348    -2.5263309367     0.0530260526
   16      O       2.2011050059     2.9030661680    -0.0008125407
   17      N      -1.4610953867    -1.9869414104    -0.0957187321
   18      H       3.5065342120    -2.7254562968     0.0755826311
   19      H       5.8923538122    -1.9869028614     0.0376502727
   20      H       6.4194887101     0.4571522568    -0.0647041241
   21      H       4.5456078960     2.1119534661    -0.0937472588
   22      S      -3.9307042255    -0.0669586542    -0.0137579149
   23      H      -2.6029359879     2.4220792894     0.1208101746
   24      H      -0.6548812407    -2.6010732740     0.0385484602
   25      H      -2.3972980615    -2.2332943952     0.2049326685
   26      H      -0.2070582658     3.1401083305     0.0570565537
   27      O      -4.1005503078    -1.3553802461     0.7459441916
   28      O      -4.6259256412     1.0813563890     0.6454254164
   29      O      -4.3147820545    -0.2136992070    -1.4510357573
 ----------------------------------------------------------------

   32   -1367.5425026845      6.74e-06  Convergence criterion met
 Total energy in the final basis set =    -1367.5425026845
    6   -1368.0557312193      4.34e-06  Convergence criterion met
 Total energy in the final basis set =    -1368.0557312193

                    Orbital Energies (a.u.)
 --------------------------------------------------------------

 Alpha MOs
 -- Occupied --
-89.0386 -19.0850 -19.0847 -19.0839 -19.0329 -19.0236 -14.2825 -10.2054
-10.1861 -10.1755 -10.1607 -10.1506 -10.1491 -10.1487 -10.1478 -10.1470
-10.1461 -10.1391 -10.1381 -10.1364 -10.1333  -8.0973  -6.0603  -6.0600
 -6.0585  -1.0986  -0.9643  -0.9623  -0.9575  -0.9461  -0.8949  -0.8280
 -0.8115  -0.7570  -0.7239  -0.7180  -0.7031  -0.6424  -0.6219  -0.6003
 -0.5788  -0.5562  -0.5316  -0.5220  -0.5003  -0.4779  -0.4655  -0.4533
 -0.4494  -0.4456  -0.4368  -0.4211  -0.4121  -0.4004  -0.3936  -0.3899
 -0.3789  -0.3709  -0.3587  -0.3576  -0.3364  -0.3353  -0.3302  -0.3296
 -0.3232  -0.3175  -0.3066  -0.2928  -0.2901  -0.2828  -0.2798  -0.2522
 -0.2327  -0.2312  -0.2204  -0.2125  -0.2013  -0.1882  -0.1071

          Ground-State Mulliken Net Atomic Charges

     Atom                 Charge (a.u.)
  ----------------------------------------
      1 C                     0.036830
      2 C                    -0.574843
      3 C                    -0.484677
      4 C                     0.160187
      5 C                     0.075234
      6 C                    -0.022392
      7 C                    -0.384379
      8 C                    -0.424928
      9 C                     0.157649
     10 C                     0.427905
     11 C                     0.382946
     12 C                    -1.108072
     13 C                    -0.284809
     14 C                    -0.238278
     15 O                    -0.641212
     16 O                    -0.687543
     17 N                    -0.489491
     18 H                     0.159787
     19 H                     0.179569
     20 H                     0.180859
     21 H                     0.153935
     22 S                     0.775369
     23 H                     0.206321
     24 H                     0.348387
     25 H                     0.283251
     26 H                     0.147240
     27 O                    -0.498633
     28 O                    -0.435438
     29 O                    -0.400780
  ----------------------------------------
  Sum of atomic charges =    -3.000009

                    Cartesian Multipole Moments
 -----------------------------------------------------------------
    Charge (ESU x 10^10)
               -14.4097
    Dipole Moment (Debye)
         X       9.7433      Y      -2.9988      Z       0.7798
       Tot      10.2241
    Quadrupole Moments (Debye-Ang)
        XX    -293.3510     XY     -13.6243     YY    -194.6522
        XZ      -2.1687     YZ      -1.6061     ZZ    -152.8695

 Total job time:  194.14s(wall), 1518.88s(cpu)
        *  Thank you very much for using Q-Chem.  Have a nice day.  *
