 Gaussian 16, Revision A.03,
 Gaussian 16:  ES64L-G16RevA.03 25-Dec-2016

 ----------------------------------------------------------------
 #P UB3LYP/6-311++G(d,p) SCRF=(PCM,Solvent=n,n-DiMethylFormamide)
 ----------------------------------------------------------------

 ------------------
 Radical PCM in DMF
 ------------------
 Symbolic Z-matrix:
 Charge = -2 Multiplicity = 2

                         Standard orientation:
 ---------------------------------------------------------------------
 Center     Atomic      Atomic             Coordinates (Angstroms)
 Number     Number       Type             X           Y           Z
 ---------------------------------------------------------------------
      1          6           0       -2.344359   -1.743245   -0.000095
      2          6           0       -3.708177   -1.501237    0.000008
      3          6           0       -4.183642   -0.172007    0.000155
      4          6           0       -1.409398   -0.689422   -0.000081
      5          6           0       -1.890481    0.649758    0.000001
      6          6           0       -3.282688    0.878312    0.000156
      7          6           0        0.040239   -1.015753   -0.000103
      8          6           0        0.926585    0.137790   -0.000173
      9          6           0        0.440543    1.427400   -0.000213
     10          6           0       -0.953634    1.779065   -0.000133
     11          8           0        0.409935   -2.210037   -0.000109
     12          8           0       -1.362156    2.980578   -0.000060
     13         16           0        2.758571   -0.078293    0.000063
     14          8           0        3.085577   -0.815406    1.251640
     15          8           0        3.085977   -0.816385   -1.250824
     16          8           0        3.295862    1.318120   -0.000419
     17          1           0       -1.946303   -2.752438   -0.000171
     18          1           0       -4.410887   -2.331495   -0.000017
     19          1           0       -5.253728    0.024173    0.000266
     20          1           0       -3.613647    1.911734    0.000246
     21          1           0        1.155947    2.241792   -0.000280
 ---------------------------------------------------------------------

 SCF Done:  E(UB3LYP) =  -1158.87511051     A.U. after   21 cycles

 The electronic state is 2-A.
 Alpha  occ. eigenvalues --  -89.03415 -19.08004 -19.08004 -19.07790 -19.07786
 Alpha  occ. eigenvalues --  -19.07707 -10.23066 -10.22187 -10.18358 -10.17512
 Alpha  occ. eigenvalues --  -10.17457 -10.17399 -10.17375 -10.17039 -10.17008
 Alpha  occ. eigenvalues --  -10.16446  -8.09278  -6.05557  -6.05547  -6.05441
 Alpha  occ. eigenvalues --   -1.09569  -1.00636  -0.99564  -0.96148  -0.95773
 Alpha  occ. eigenvalues --   -0.85750  -0.80745  -0.74973  -0.74428  -0.68071
 Alpha  occ. eigenvalues --   -0.63294  -0.61506  -0.57529  -0.55261  -0.50748
 Alpha  occ. eigenvalues --   -0.49951  -0.47858  -0.45913  -0.44248  -0.44204
 Alpha  occ. eigenvalues --   -0.42944  -0.42370  -0.41767  -0.41610  -0.40621
 Alpha  occ. eigenvalues --   -0.38802  -0.37885  -0.35507  -0.35334  -0.33777
 Alpha  occ. eigenvalues --   -0.32412  -0.32325  -0.30130  -0.28920  -0.28248
 Alpha  occ. eigenvalues --   -0.27187  -0.25629  -0.24974  -0.24525  -0.24446
 Alpha  occ. eigenvalues --   -0.23426  -0.15578
 Alpha virt. eigenvalues --   -0.03489  -0.02028   0.00134   0.01398   0.01848
 Alpha virt. eigenvalues --    0.03016   0.03622   0.04514   0.04620   0.05000
 Alpha virt. eigenvalues --    0.05783   0.06449   0.06491   0.06624   0.07629

  Beta  occ. eigenvalues --  -89.03418 -19.07990 -19.07990 -19.07797 -19.07207
  Beta  occ. eigenvalues --  -19.07032 -10.22939 -10.22030 -10.18186 -10.17460
  Beta  occ. eigenvalues --  -10.17437 -10.17365 -10.17346 -10.17023 -10.17012
  Beta  occ. eigenvalues --  -10.16258  -8.09281  -6.05559  -6.05550  -6.05448
  Beta  occ. eigenvalues --   -1.09556  -0.99630  -0.98372  -0.96118  -0.95770
  Beta  occ. eigenvalues --   -0.85558  -0.80194  -0.74807  -0.74233  -0.67128
  Beta  occ. eigenvalues --   -0.63087  -0.61253  -0.57372  -0.55023  -0.50531
  Beta  occ. eigenvalues --   -0.49760  -0.47577  -0.45789  -0.44165  -0.44156
  Beta  occ. eigenvalues --   -0.42829  -0.42318  -0.41380  -0.40228  -0.40085
  Beta  occ. eigenvalues --   -0.38541  -0.35425  -0.35382  -0.34394  -0.33659
  Beta  occ. eigenvalues --   -0.32388  -0.32296  -0.29400  -0.28710  -0.28224
  Beta  occ. eigenvalues --   -0.25078  -0.24708  -0.24528  -0.24295  -0.23938
  Beta  occ. eigenvalues --   -0.22911
  Beta virt. eigenvalues --   -0.08835  -0.02718  -0.00881   0.00148   0.01414
  Beta virt. eigenvalues --    0.01859   0.03040   0.03638   0.04669   0.05040
  Beta virt. eigenvalues --    0.05702   0.05794   0.06507   0.06890   0.07031

 Mulliken charges and spin densities:
               1          2
     1  C    0.128330   0.019449
     2  C   -0.416062   0.029454
     3  C   -0.395226   0.010728
     4  C   -0.015107   0.010450
     5  C    0.502493   0.036392
     6  C    0.068231   0.024741
     7  C   -0.524880   0.084071
     8  C   -0.466568   0.118932
     9  C    0.040693   0.127320
    10  C   -0.454154   0.088050
    11  O   -0.414862   0.216781
    12  O   -0.491332   0.243355
    13  S    0.712492  -0.001547
    14  O   -0.382824   0.006976
    15  O   -0.382826   0.006972
    16  O   -0.439577  -0.001309
    17  H    0.165043  -0.001888
    18  H    0.183528  -0.002279
    19  H    0.186186  -0.001055
    20  H    0.160771  -0.003451
    21  H    0.235647  -0.012143
 Sum of Mulliken charges =  -2.00000   1.00000

 Dipole moment (field-independent basis, Debye):
    X=            -15.9431    Y=             -1.4345    Z=             -0.0006  Tot=             16.0075
 Quadrupole moment (field-independent basis, Debye-Ang):
   XX=           -164.6064   YY=           -144.4872   ZZ=           -114.8933
   XY=             15.3462   XZ=             -0.0018   YZ=              0.0003

 Normal termination of Gaussian 16 at Fri Jan 26 02:11:20 2024.
