 Gaussian 16, Revision A.03,
 Gaussian 16:  ES64L-G16RevA.03 25-Dec-2016

 ---------------------------------------------------------
 #P UB3LYP/genecp SCRF=(PCM,Solvent=n,n-DiMethylFormamide)
 ---------------------------------------------------------

 ------------------
 Radical PCM in DMF
 ------------------
 Symbolic Z-matrix:
 Charge = -1 Multiplicity = 2

                         Standard orientation:
 ---------------------------------------------------------------------
 Center     Atomic      Atomic             Coordinates (Angstroms)
 Number     Number       Type             X           Y           Z
 ---------------------------------------------------------------------
      1          6           0       -0.520615   -0.616086   -0.129021
      2          6           0       -1.890638   -0.085122   -0.123791
      3          6           0       -2.130209    1.258942   -0.013393
      4          6           0       -1.083458    2.252778    0.107765
      5          6           0        0.271780    1.736378    0.101227
      6          6           0        0.512870    0.396048   -0.011157
      7          8           0       -0.283776   -1.846781   -0.230123
      8          8           0       -1.326799    3.486819    0.211230
      9          1           0        1.074462    2.458519    0.187731
     10         53           0        2.524114   -0.315319   -0.021110
     11          6           0       -2.998503   -1.122980   -0.220851
     12          6           0       -3.236650   -1.792160    1.148336
     13          6           0       -4.314887   -0.588087   -0.799580
     14          1           0       -3.142879    1.649673   -0.013883
     15          1           0       -2.620083   -1.904724   -0.887952
     16          1           0       -3.602352   -1.060295    1.877068
     17          1           0       -2.307931   -2.224262    1.524760
     18          1           0       -3.980725   -2.594038    1.066877
     19          1           0       -4.785512    0.144912   -0.136092
     20          1           0       -5.027392   -1.409217   -0.936212
     21          1           0       -4.159165   -0.107219   -1.769530
 ---------------------------------------------------------------------

 SCF Done:  E(UB3LYP) =  -796.898864718     A.U. after   22 cycles

 The electronic state is 2-A.
 Alpha  occ. eigenvalues --  -19.08341 -19.08166 -10.22993 -10.22512 -10.20926
 Alpha  occ. eigenvalues --  -10.17679 -10.17193 -10.17176 -10.16179 -10.15387
 Alpha  occ. eigenvalues --  -10.15292  -6.83522  -4.85896  -4.84852  -4.84792
 Alpha  occ. eigenvalues --   -1.90712  -1.90372  -1.90328  -1.89426  -1.89425
 Alpha  occ. eigenvalues --   -1.00888  -1.00255  -0.83714  -0.79884  -0.74252
 Alpha  occ. eigenvalues --   -0.69792  -0.68204  -0.66964  -0.61810  -0.56279
 Alpha  occ. eigenvalues --   -0.54656  -0.48823  -0.47291  -0.45071  -0.43521
 Alpha  occ. eigenvalues --   -0.42039  -0.41749  -0.40236  -0.39453  -0.38979
 Alpha  occ. eigenvalues --   -0.37992  -0.37581  -0.35694  -0.33862  -0.33446
 Alpha  occ. eigenvalues --   -0.32483  -0.30311  -0.27100  -0.26213  -0.24862
 Alpha  occ. eigenvalues --   -0.24092  -0.23888  -0.16663
 Alpha virt. eigenvalues --   -0.02849  -0.01463  -0.00237   0.01048   0.01547
 Alpha virt. eigenvalues --    0.01839   0.02630   0.03331   0.03991   0.04799
 Alpha virt. eigenvalues --    0.05082   0.05795   0.06193   0.07287   0.07787

  Beta  occ. eigenvalues --  -19.07659 -19.07466 -10.22839 -10.22392 -10.20805
  Beta  occ. eigenvalues --  -10.17585 -10.17200 -10.17019 -10.16100 -10.15386
  Beta  occ. eigenvalues --  -10.15284  -6.83522  -4.85900  -4.84848  -4.84792
  Beta  occ. eigenvalues --   -1.90716  -1.90371  -1.90332  -1.89423  -1.89422
  Beta  occ. eigenvalues --   -0.99695  -0.99022  -0.83180  -0.79680  -0.74048
  Beta  occ. eigenvalues --   -0.69235  -0.68127  -0.66430  -0.61509  -0.55864
  Beta  occ. eigenvalues --   -0.54443  -0.48590  -0.46867  -0.44910  -0.43394
  Beta  occ. eigenvalues --   -0.41180  -0.40981  -0.39798  -0.38777  -0.38538
  Beta  occ. eigenvalues --   -0.37509  -0.35849  -0.34937  -0.33745  -0.33289
  Beta  occ. eigenvalues --   -0.32344  -0.28805  -0.26127  -0.24873  -0.24209
  Beta  occ. eigenvalues --   -0.23501  -0.23352
  Beta virt. eigenvalues --   -0.09462  -0.02716  -0.00306   0.00013   0.01086
  Beta virt. eigenvalues --    0.01671   0.02020   0.03350   0.03988   0.04413
  Beta virt. eigenvalues --    0.05078   0.05116   0.05879   0.06259   0.07361

 Mulliken charges and spin densities:
               1          2
     1  C   -2.316911   0.020619
     2  C    1.443714   0.090207
     3  C   -0.377041   0.027720
     4  C   -0.400088   0.129221
     5  C   -0.005733   0.125809
     6  C    1.344150   0.112745
     7  O   -0.384901   0.253803
     8  O   -0.487484   0.244558
     9  H    0.169787  -0.009018
    10  I   -0.165963  -0.002069
    11  C    0.183083   0.000816
    12  C   -0.701990   0.011788
    13  C   -0.560392  -0.001080
    14  H    0.180453  -0.005266
    15  H    0.193586   0.001881
    16  H    0.144430  -0.000904
    17  H    0.164811  -0.001909
    18  H    0.137269   0.001711
    19  H    0.139624  -0.000118
    20  H    0.164737  -0.000410
    21  H    0.134858  -0.000104
 Sum of Mulliken charges =  -1.00000   1.00000

 Dipole moment (field-independent basis, Debye):
    X=              0.9867    Y=             -4.1151    Z=             -0.0871  Tot=              4.2326
 Quadrupole moment (field-independent basis, Debye-Ang):
   XX=           -100.9274   YY=           -136.3395   ZZ=            -97.7748
   XY=             12.2047   XZ=              1.1252   YZ=             -2.5653

 Normal termination of Gaussian 16 at Mon Jan 22 18:34:25 2024.
