 Gaussian 16, Revision A.03,
 Gaussian 16:  ES64L-G16RevA.03 25-Dec-2016

 ----------------------------------------------------------------------
 #P UB3LYP/6-311++G(d,p) nosym opt freq SCRF=(PCM,Solvent=n,n-DiMethylF
 ormamide)
 ----------------------------------------------------------------------

 --------
 Oxidized
 --------
 Symbolic Z-matrix:
 Charge =  0 Multiplicity = 1

 SCF Done:  E(UB3LYP) =  -744.294294671     A.U. after   16 cycles
 SCF Done:  E(UB3LYP) =  -744.294433736     A.U. after   13 cycles
 SCF Done:  E(UB3LYP) =  -744.294442098     A.U. after   13 cycles
 SCF Done:  E(UB3LYP) =  -744.294563846     A.U. after   13 cycles
 SCF Done:  E(UB3LYP) =  -744.294576403     A.U. after   13 cycles
 SCF Done:  E(UB3LYP) =  -744.294583410     A.U. after   12 cycles
 SCF Done:  E(UB3LYP) =  -744.294585356     A.U. after   11 cycles
 SCF Done:  E(UB3LYP) =  -744.294585748     A.U. after   10 cycles
 Optimization completed.
    -- Stationary point found.
 Normal termination of Gaussian 16 at Sat Feb 10 11:09:22 2024.

 ----------------------------------------------------------------------
 #P Geom=AllCheck Guess=TCheck SCRF=Check GenChk UB3LYP/6-311++G(d,p) F
 req
 ----------------------------------------------------------------------

 Structure from the checkpoint file:  "114.chk"
 --------
 Oxidized
 --------
 Charge =  0 Multiplicity = 1

                          Input orientation:
 ---------------------------------------------------------------------
 Center     Atomic      Atomic             Coordinates (Angstroms)
 Number     Number       Type             X           Y           Z
 ---------------------------------------------------------------------
      1          6           0       -3.089860   -3.177885   -0.788525
      2          6           0       -2.059574   -2.091144   -0.957876
      3          6           0       -2.460655   -0.802196   -0.809390
      4          6           0       -3.843879   -0.420170   -0.516531
      5          6           0       -4.857493   -1.498912   -0.431571
      6          6           0       -4.502599   -2.780070   -0.577501
      7          8           0       -2.782215   -4.360132   -0.780033
      8          8           0       -4.170676    0.757545   -0.371401
      9          6           0       -0.665819   -2.446269   -1.194198
     10          6           0       -0.083537   -3.440294   -2.078415
     11          6           0        0.398456   -1.790862   -0.596899
     12          6           0        1.325686   -3.315519   -1.956939
     13          7           0        1.577584   -2.309689   -1.041899
     14          6           0       -0.593618   -4.373375   -2.997562
     15          6           0        0.290629   -5.151117   -3.732497
     16          6           0        1.685154   -5.020961   -3.577228
     17          6           0        2.221261   -4.098537   -2.689155
     18          1           0       -1.761901    0.018164   -0.927786
     19          1           0       -5.881654   -1.194665   -0.247357
     20          1           0       -5.216851   -3.593410   -0.518085
     21          1           0        0.385778   -1.008050    0.145225
     22          1           0        2.490251   -2.027389   -0.717800
     23          1           0       -1.661084   -4.495569   -3.126197
     24          1           0       -0.097671   -5.875889   -4.439131
     25          1           0        2.348828   -5.646375   -4.163168
     26          1           0        3.292500   -3.983349   -2.571829
 ---------------------------------------------------------------------

 SCF Done:  E(UB3LYP) =  -744.294585748     A.U. after    2 cycles

 Alpha  occ. eigenvalues --  -19.14474 -19.13636 -14.37497 -10.29110 -10.28213
 Alpha  occ. eigenvalues --  -10.22683 -10.22582 -10.21948 -10.21224 -10.21127
 Alpha  occ. eigenvalues --  -10.20133 -10.19311 -10.18941 -10.18462 -10.18117
 Alpha  occ. eigenvalues --  -10.17985 -10.17599  -1.07502  -1.06253  -1.00198
 Alpha  occ. eigenvalues --   -0.86933  -0.85597  -0.82259  -0.78018  -0.75178
 Alpha  occ. eigenvalues --   -0.73479  -0.71024  -0.65716  -0.63867  -0.62009
 Alpha  occ. eigenvalues --   -0.60502  -0.57474  -0.55378  -0.52466  -0.51030
 Alpha  occ. eigenvalues --   -0.49799  -0.49108  -0.48200  -0.46234  -0.45191
 Alpha  occ. eigenvalues --   -0.44935  -0.44267  -0.44009  -0.43953  -0.42872
 Alpha  occ. eigenvalues --   -0.41889  -0.40993  -0.40486  -0.37322  -0.35474
 Alpha  occ. eigenvalues --   -0.35302  -0.32406  -0.31037  -0.29177  -0.28303
 Alpha  occ. eigenvalues --   -0.27944  -0.24403  -0.22234
 Alpha virt. eigenvalues --   -0.13675  -0.04440  -0.02944  -0.00819  -0.00500
 Alpha virt. eigenvalues --    0.00114   0.00332   0.00490   0.01712   0.01834
 Alpha virt. eigenvalues --    0.02951   0.03224   0.03528   0.04005   0.04397

  Beta  occ. eigenvalues --  -19.14474 -19.13636 -14.37497 -10.29110 -10.28213
  Beta  occ. eigenvalues --  -10.22683 -10.22582 -10.21948 -10.21224 -10.21127
  Beta  occ. eigenvalues --  -10.20133 -10.19311 -10.18941 -10.18462 -10.18117
  Beta  occ. eigenvalues --  -10.17985 -10.17599  -1.07502  -1.06253  -1.00198
  Beta  occ. eigenvalues --   -0.86933  -0.85597  -0.82259  -0.78018  -0.75178
  Beta  occ. eigenvalues --   -0.73479  -0.71024  -0.65716  -0.63867  -0.62009
  Beta  occ. eigenvalues --   -0.60502  -0.57474  -0.55378  -0.52466  -0.51030
  Beta  occ. eigenvalues --   -0.49799  -0.49108  -0.48200  -0.46234  -0.45191
  Beta  occ. eigenvalues --   -0.44935  -0.44267  -0.44009  -0.43953  -0.42872
  Beta  occ. eigenvalues --   -0.41889  -0.40993  -0.40486  -0.37322  -0.35474
  Beta  occ. eigenvalues --   -0.35302  -0.32406  -0.31037  -0.29177  -0.28303
  Beta  occ. eigenvalues --   -0.27944  -0.24403  -0.22234
  Beta virt. eigenvalues --   -0.13675  -0.04440  -0.02944  -0.00819  -0.00500
  Beta virt. eigenvalues --    0.00114   0.00332   0.00490   0.01712   0.01834
  Beta virt. eigenvalues --    0.02951   0.03224   0.03528   0.04005   0.04397

 Mulliken charges and spin densities:
               1          2
     1  C   -1.135062  -0.000000
     2  C    1.299355   0.000000
     3  C   -0.578871  -0.000000
     4  C   -0.316596   0.000000
     5  C    0.039032  -0.000000
     6  C    0.113477   0.000000
     7  O   -0.252409   0.000000
     8  O   -0.321338   0.000000
     9  C    0.529198  -0.000000
    10  C    1.329536   0.000000
    11  C   -0.238367  -0.000000
    12  C    0.056928   0.000000
    13  N   -0.088251   0.000000
    14  C   -1.043576  -0.000000
    15  C   -0.550988  -0.000000
    16  C   -0.273819   0.000000
    17  C   -0.583542   0.000000
    18  H    0.225822   0.000000
    19  H    0.243761  -0.000000
    20  H    0.246138  -0.000000
    21  H    0.222405  -0.000000
    22  H    0.351003  -0.000000
    23  H    0.157370  -0.000000
    24  H    0.191465   0.000000
    25  H    0.188138   0.000000
    26  H    0.189190  -0.000000
 Sum of Mulliken charges =  -0.00000  -0.00000

 Dipole moment (field-independent basis, Debye):
    X=              4.2728    Y=              0.0856    Z=              0.5116  Tot=              4.3042
 Quadrupole moment (field-independent basis, Debye-Ang):
   XX=            -84.5323   YY=           -118.4617   ZZ=            -98.7581
   XY=              2.4207   XZ=             -1.6537   YZ=              1.6275

  Exact polarizability: 330.011 -79.984 314.637 -40.423  78.552 182.425
 Approx polarizability: 359.413 -85.973 399.441 -26.167  89.326 209.352

                      1                      2                      3
                      A                      A                      A
 Frequencies --     41.8486                58.7729                74.9293
 Red. masses --      7.3484                 4.9865                 5.4544
 Frc consts  --      0.0076                 0.0101                 0.0180
 IR Inten    --      1.9851                12.1105                 0.9713

                      4                      5                      6
                      A                      A                      A
 Frequencies --    108.3925               177.1236               205.2136
 Red. masses --      8.2113                 5.5855                 6.2954
 Frc consts  --      0.0568                 0.1032                 0.1562
 IR Inten    --      9.6277                 4.2556                 4.4101

                      7                      8                      9
                      A                      A                      A
 Frequencies --    222.7192               256.7432               274.1405
 Red. masses --      4.0286                 6.0790                 5.5723
 Frc consts  --      0.1177                 0.2361                 0.2467
 IR Inten    --     18.2103                 4.9938                 0.8879

                     10                     11                     12
                      A                      A                      A
 Frequencies --    335.4689               418.0919               427.3580
 Red. masses --      6.1781                 5.2736                 4.8170
 Frc consts  --      0.4096                 0.5431                 0.5183
 IR Inten    --      0.9090                66.1641                34.4571

                     13                     14                     15
                      A                      A                      A
 Frequencies --    433.8892               470.5208               483.3424
 Red. masses --      3.3899                 8.2870                 3.5899
 Frc consts  --      0.3760                 1.0810                 0.4941
 IR Inten    --     11.3524                 7.4889                28.0902

                     16                     17                     18
                      A                      A                      A
 Frequencies --    495.1301               545.3491               560.2272
 Red. masses --      1.4099                 5.2010                 5.5010
 Frc consts  --      0.2037                 0.9113                 1.0172
 IR Inten    --    105.0397                14.6440                 3.1102

                     19                     20                     21
                      A                      A                      A
 Frequencies --    585.2077               612.8449               626.4234
 Red. masses --      3.2365                 3.1271                 4.2371
 Frc consts  --      0.6530                 0.6920                 0.9796
 IR Inten    --     20.0137                12.6937                 2.2605

                     22                     23                     24
                      A                      A                      A
 Frequencies --    653.3869               668.4445               752.2994
 Red. masses --      3.7459                 3.9897                 1.2989
 Frc consts  --      0.9422                 1.0503                 0.4331
 IR Inten    --      1.9714                 3.9799               133.7675

                     25                     26                     27
                      A                      A                      A
 Frequencies --    768.3954               771.9365               787.9142
 Red. masses --      4.2960                 4.9060                 3.5783
 Frc consts  --      1.4945                 1.7224                 1.3088
 IR Inten    --     10.2374                 8.6209                30.8540

                     28                     29                     30
                      A                      A                      A
 Frequencies --    806.2954               828.1236               842.5361
 Red. masses --      3.7091                 5.5699                 1.7912
 Frc consts  --      1.4207                 2.2505                 0.7491
 IR Inten    --      6.3957                 6.8822                18.1199

                     31                     32                     33
                      A                      A                      A
 Frequencies --    857.5824               863.0815               890.1530
 Red. masses --      1.5632                 2.0226                 4.9159
 Frc consts  --      0.6774                 0.8877                 2.2950
 IR Inten    --     10.8627                23.0601                 5.5942

                     34                     35                     36
                      A                      A                      A
 Frequencies --    918.5915               951.3591               964.1167
 Red. masses --      1.5976                 1.3699                 3.8127
 Frc consts  --      0.7942                 0.7305                 2.0880
 IR Inten    --     90.2347                 4.7084               154.9575

                     37                     38                     39
                      A                      A                      A
 Frequencies --    984.8612              1018.9896              1034.8804
 Red. masses --      1.2735                 1.2714                 2.1860
 Frc consts  --      0.7278                 0.7778                 1.3794
 IR Inten    --      0.0848                 2.5997                24.7759

                     40                     41                     42
                      A                      A                      A
 Frequencies --   1084.2188              1118.3645              1133.2438
 Red. masses --      3.0359                 1.7251                 1.4421
 Frc consts  --      2.1026                 1.2713                 1.0912
 IR Inten    --    116.0423               128.8616                32.9142

                     43                     44                     45
                      A                      A                      A
 Frequencies --   1151.6479              1174.6451              1215.4236
 Red. masses --      1.4286                 1.1654                 1.8720
 Frc consts  --      1.1164                 0.9474                 1.6293
 IR Inten    --     51.1143                 1.0122                50.2269

                     46                     47                     48
                      A                      A                      A
 Frequencies --   1253.3376              1268.6662              1292.3853
 Red. masses --      1.8485                 2.4247                 3.0491
 Frc consts  --      1.7108                 2.2993                 3.0006
 IR Inten    --      7.1632               174.0796               480.2548

                     49                     50                     51
                      A                      A                      A
 Frequencies --   1314.2485              1356.3230              1362.0222
 Red. masses --      2.0243                 2.1841                 4.5892
 Frc consts  --      2.0600                 2.3673                 5.0160
 IR Inten    --     21.3679                60.1735                16.5106

                     52                     53                     54
                      A                      A                      A
 Frequencies --   1376.3529              1392.0166              1447.3355
 Red. masses --      3.5962                 2.1546                 2.5029
 Frc consts  --      4.0138                 2.4599                 3.0891
 IR Inten    --     75.7952                33.5000               289.1980

                     55                     56                     57
                      A                      A                      A
 Frequencies --   1481.8758              1517.3879              1541.0106
 Red. masses --      2.4843                 3.0158                 3.8551
 Frc consts  --      3.2142                 4.0912                 5.3938
 IR Inten    --     36.1020               167.8716               485.8599

                     58                     59                     60
                      A                      A                      A
 Frequencies --   1602.5917              1612.0028              1649.5242
 Red. masses --      6.2824                 6.6819                 7.1656
 Frc consts  --      9.5065                10.2301                11.4874
 IR Inten    --    270.9934               314.5829               161.8818

                     61                     62                     63
                      A                      A                      A
 Frequencies --   1656.0366              1682.7023              1707.7693
 Red. masses --      8.9141                 8.2423                10.0475
 Frc consts  --     14.4034                13.7504                17.2651
 IR Inten    --    206.7383               725.2198               177.0800

                     64                     65                     66
                      A                      A                      A
 Frequencies --   3167.1436              3178.1468              3180.1644
 Red. masses --      1.0864                 1.0900                 1.0874
 Frc consts  --      6.4203                 6.4867                 6.4794
 IR Inten    --      2.6202                19.5235                 6.3549

                     67                     68                     69
                      A                      A                      A
 Frequencies --   3183.3140              3190.0817              3197.1511
 Red. masses --      1.0915                 1.0958                 1.0998
 Frc consts  --      6.5169                 6.5704                 6.6233
 IR Inten    --      4.8457                33.6410                 6.5998

                     70                     71                     72
                      A                      A                      A
 Frequencies --   3202.7789              3253.7310              3644.0014
 Red. masses --      1.0937                 1.0977                 1.0814
 Frc consts  --      6.6100                 6.8467                 8.4604
 IR Inten    --     12.9667                 3.8417               234.5011

 - Thermochemistry -
 -------------------
 Temperature   298.150 Kelvin.  Pressure   1.00000 Atm.
 Atom     1 has atomic number  6 and mass  12.00000

 Molecular mass:   223.06333 amu.
 Principal axes and moments of inertia in atomic units:
                           1         2         3
     Eigenvalues --  1628.977316204.051367316.83889
           X            0.81060   0.56830   0.14126
           Y           -0.47505   0.77922  -0.40884
           Z           -0.34242   0.26430   0.90161
 This molecule is an asymmetric top.
 Rotational symmetry number  1.
 Warning -- assumption of classical behavior for rotation
           may cause significant error
 Rotational temperatures (Kelvin)      0.05317     0.01396     0.01184
 Rotational constants (GHZ):           1.10790     0.29090     0.24666
 Zero-point vibrational energy     510592.1 (Joules/Mol)
                                  122.03444 (Kcal/Mol)
 Warning -- explicit consideration of  20 degrees of freedom as
           vibrations may cause significant error
 Vibrational temperatures:     60.21    84.56   107.81   155.95   254.84
          (Kelvin)            295.26   320.44   369.40   394.43   482.66
                              601.54   614.87   624.27   676.97   695.42
                              712.38   784.64   806.04   841.98   881.75
                              901.28   940.08   961.74  1082.39  1105.55
                             1110.64  1133.63  1160.08  1191.49  1212.22
                             1233.87  1241.78  1280.73  1321.65  1368.79
                             1387.15  1417.00  1466.10  1488.96  1559.95
                             1609.08  1630.49  1656.96  1690.05  1748.72
                             1803.27  1825.33  1859.45  1890.91  1951.45
                             1959.65  1980.26  2002.80  2082.39  2132.09
                             2183.18  2217.17  2305.77  2319.31  2373.30
                             2382.67  2421.03  2457.10  4556.81  4572.64
                             4575.55  4580.08  4589.82  4599.99  4608.08
                             4681.39  5242.91

 Zero-point correction=                           0.194474 (Hartree/Particle)
 Thermal correction to Energy=                    0.207362
 Thermal correction to Enthalpy=                  0.208306
 Thermal correction to Gibbs Free Energy=         0.154313
 Sum of electronic and zero-point Energies=           -744.100111
 Sum of electronic and thermal Energies=              -744.087224
 Sum of electronic and thermal Enthalpies=            -744.086280
 Sum of electronic and thermal Free Energies=         -744.140273

                     E (Thermal)             CV                S
                      KCal/Mol        Cal/Mol-Kelvin    Cal/Mol-Kelvin
 Total                  130.121             51.448            113.637
 Electronic               0.000              0.000              0.000
 Translational            0.889              2.981             42.109
 Rotational               0.889              2.981             32.669
 Vibrational            128.344             45.486             38.858
 Vibration     1          0.594              1.980              5.170
 Vibration     2          0.596              1.974              4.498
 Vibration     3          0.599              1.966              4.019
 Vibration     4          0.606              1.943              3.298
 Vibration     5          0.628              1.871              2.359
 Vibration     6          0.640              1.832              2.086
 Vibration     7          0.648              1.806              1.937
 Vibration     8          0.666              1.751              1.684
 Vibration     9          0.676              1.721              1.570
 Vibration    10          0.717              1.605              1.234
 Vibration    11          0.781              1.431              0.898
 Vibration    12          0.789              1.411              0.867
 Vibration    13          0.795              1.396              0.846
 Vibration    14          0.828              1.315              0.736
 Vibration    15          0.840              1.287              0.701
 Vibration    16          0.851              1.261              0.670
 Vibration    17          0.901              1.150              0.554
 Vibration    18          0.916              1.117              0.523
 Vibration    19          0.942              1.063              0.476
 Vibration    20          0.972              1.005              0.428

 Optimization completed.
    -- Stationary point found.
 Normal termination of Gaussian 16 at Sat Feb 10 11:37:39 2024.
