 Gaussian 16, Revision A.03,
 Gaussian 16:  ES64L-G16RevA.03 25-Dec-2016

 ----------------------------------------------------------------
 #P UB3LYP/6-311++G(d,p) SCRF=(PCM,Solvent=n,n-DiMethylFormamide)
 ----------------------------------------------------------------

 ------------------
 Quinone PCM in DMF
 ------------------
 Symbolic Z-matrix:
 Charge =  0 Multiplicity = 1

                         Standard orientation:
 ---------------------------------------------------------------------
 Center     Atomic      Atomic             Coordinates (Angstroms)
 Number     Number       Type             X           Y           Z
 ---------------------------------------------------------------------
      1          6           0       -0.571339   -1.240252   -0.416956
      2          6           0       -1.494398   -0.114511   -0.021000
      3          6           0       -0.907303    1.091785   -0.147943
      4          6           0        0.571342    1.240221   -0.416938
      5          6           0        1.494365    0.114516   -0.020885
      6          6           0        0.907305   -1.091792   -0.147875
      7          8           0        0.997838    2.239025   -0.953763
      8          8           0       -0.997833   -2.239125   -0.953667
      9         17           0        1.718642   -2.635783   -0.139913
     10         17           0       -1.718586    2.635825   -0.139915
     11          6           0        2.960037    0.470042    0.300602
     12          6           0        3.024848    1.815369    1.071703
     13          6           0        3.641233   -0.577124    1.212786
     14          6           0        3.752822    0.589437   -1.022933
     15          6           0       -2.960060   -0.470092    0.300613
     16          6           0       -3.024720   -1.815066    1.072234
     17          6           0       -3.641357    0.577522    1.212247
     18          6           0       -3.752902   -0.590093   -1.022811
     19          1           0        2.683777    2.658529    0.476623
     20          1           0        4.061783    2.001219    1.360987
     21          1           0        2.430967    1.771242    1.990343
     22          1           0        3.026553   -0.816867    2.084597
     23          1           0        4.580538   -0.152865    1.576010
     24          1           0        3.877567   -1.503142    0.695733
     25          1           0        3.741724   -0.355242   -1.572724
     26          1           0        4.794962    0.838751   -0.801309
     27          1           0        3.339861    1.371587   -1.660762
     28          1           0       -2.684059   -2.658463    0.477239
     29          1           0       -4.061564   -2.000644    1.362050
     30          1           0       -2.430420   -1.770813    1.990590
     31          1           0       -3.026617    0.818090    2.083786
     32          1           0       -4.580516    0.153331    1.575920
     33          1           0       -3.877935    1.503112    0.694555
     34          1           0       -3.339503   -1.372067   -1.660550
     35          1           0       -3.742480    0.354579   -1.572631
     36          1           0       -4.794853   -0.840034   -0.801023
 ---------------------------------------------------------------------

 SCF Done:  E(UB3LYP) =  -1615.37822225     A.U. after   14 cycles

 The electronic state is 1-A.
 Alpha  occ. eigenvalues -- -101.57443-101.57442 -19.15078 -19.15078 -10.30438
 Alpha  occ. eigenvalues --  -10.30437 -10.27054 -10.27053 -10.23264 -10.23263
 Alpha  occ. eigenvalues --  -10.21396 -10.21395 -10.16529 -10.16528 -10.16244
 Alpha  occ. eigenvalues --  -10.16244 -10.16182 -10.16181  -9.48934  -9.48934
 Alpha  occ. eigenvalues --   -7.25404  -7.25403  -7.24442  -7.24441  -7.24333
 Alpha  occ. eigenvalues --   -7.24332  -1.09103  -1.08842  -0.91601  -0.90212
 Alpha  occ. eigenvalues --   -0.84894  -0.83843  -0.81321  -0.76242  -0.69935
 Alpha  occ. eigenvalues --   -0.69518  -0.69488  -0.69159  -0.69028  -0.64927
 Alpha  occ. eigenvalues --   -0.60101  -0.57707  -0.56215  -0.54732  -0.49954
 Alpha  occ. eigenvalues --   -0.49498  -0.48624  -0.47676  -0.45884  -0.45548
 Alpha  occ. eigenvalues --   -0.45412  -0.44976  -0.44496  -0.43697  -0.43496
 Alpha  occ. eigenvalues --   -0.42339  -0.40624  -0.39944  -0.38975  -0.38498
 Alpha  occ. eigenvalues --   -0.37803  -0.37689  -0.37370  -0.37127  -0.36397
 Alpha  occ. eigenvalues --   -0.36271  -0.34991  -0.34894  -0.34691  -0.34331
 Alpha  occ. eigenvalues --   -0.32672  -0.32150  -0.29779  -0.29663  -0.28404
 Alpha  occ. eigenvalues --   -0.27198
 Alpha virt. eigenvalues --   -0.12884  -0.05467  -0.02627  -0.01061  -0.00257
 Alpha virt. eigenvalues --    0.00245   0.01289   0.01481   0.02063   0.02156
 Alpha virt. eigenvalues --    0.02237   0.02690   0.03591   0.03795   0.04342

  Beta  occ. eigenvalues -- -101.57443-101.57442 -19.15078 -19.15078 -10.30438
  Beta  occ. eigenvalues --  -10.30437 -10.27054 -10.27053 -10.23264 -10.23263
  Beta  occ. eigenvalues --  -10.21396 -10.21395 -10.16529 -10.16528 -10.16244
  Beta  occ. eigenvalues --  -10.16244 -10.16182 -10.16181  -9.48934  -9.48934
  Beta  occ. eigenvalues --   -7.25404  -7.25403  -7.24442  -7.24441  -7.24333
  Beta  occ. eigenvalues --   -7.24332  -1.09103  -1.08842  -0.91601  -0.90212
  Beta  occ. eigenvalues --   -0.84894  -0.83843  -0.81321  -0.76242  -0.69935
  Beta  occ. eigenvalues --   -0.69518  -0.69488  -0.69159  -0.69028  -0.64927
  Beta  occ. eigenvalues --   -0.60101  -0.57707  -0.56215  -0.54732  -0.49954
  Beta  occ. eigenvalues --   -0.49498  -0.48624  -0.47676  -0.45884  -0.45548
  Beta  occ. eigenvalues --   -0.45412  -0.44976  -0.44496  -0.43697  -0.43496
  Beta  occ. eigenvalues --   -0.42339  -0.40624  -0.39944  -0.38975  -0.38498
  Beta  occ. eigenvalues --   -0.37803  -0.37689  -0.37370  -0.37127  -0.36397
  Beta  occ. eigenvalues --   -0.36271  -0.34991  -0.34894  -0.34691  -0.34331
  Beta  occ. eigenvalues --   -0.32672  -0.32150  -0.29779  -0.29663  -0.28404
  Beta  occ. eigenvalues --   -0.27198
  Beta virt. eigenvalues --   -0.12884  -0.05467  -0.02627  -0.01061  -0.00257
  Beta virt. eigenvalues --    0.00245   0.01289   0.01481   0.02063   0.02156
  Beta virt. eigenvalues --    0.02237   0.02690   0.03591   0.03795   0.04342

 Mulliken charges and spin densities:
               1          2
     1  C   -1.295075   0.000000
     2  C    1.123415  -0.000000
     3  C   -0.245300  -0.000000
     4  C   -1.295488  -0.000000
     5  C    1.123429   0.000000
     6  C   -0.244797  -0.000000
     7  O   -0.163467   0.000000
     8  O   -0.163462   0.000000
     9  Cl   0.576402   0.000000
    10  Cl   0.576649   0.000000
    11  C    0.567597  -0.000000
    12  C   -0.700481   0.000000
    13  C   -0.641279  -0.000000
    14  C   -0.696460  -0.000000
    15  C    0.567690   0.000000
    16  C   -0.700463  -0.000000
    17  C   -0.641196   0.000000
    18  C   -0.696466   0.000000
    19  H    0.166574   0.000000
    20  H    0.163579  -0.000000
    21  H    0.154576  -0.000000
    22  H    0.166354   0.000000
    23  H    0.152191  -0.000000
    24  H    0.140825   0.000000
    25  H    0.149424   0.000000
    26  H    0.177975  -0.000000
    27  H    0.202870  -0.000000
    28  H    0.166577   0.000000
    29  H    0.163570   0.000000
    30  H    0.154583   0.000000
    31  H    0.166330  -0.000000
    32  H    0.152187  -0.000000
    33  H    0.140846  -0.000000
    34  H    0.202891  -0.000000
    35  H    0.149433   0.000000
    36  H    0.177966   0.000000
 Sum of Mulliken charges =  -0.00000  -0.00000

 Dipole moment (field-independent basis, Debye):
    X=              0.0001    Y=             -0.0001    Z=              2.8722  Tot=              2.8722
 Quadrupole moment (field-independent basis, Debye-Ang):
   XX=           -110.2396   YY=           -138.9622   ZZ=           -124.9416
   XY=             -1.3537   XZ=             -0.0007   YZ=              0.0001

 Normal termination of Gaussian 16 at Sun Jan 21 07:01:16 2024.
