 Q-Chem 5.4, Q-Chem, Inc., Pleasanton, CA (2021)
 Q-Chem 5.4.0 for Intel X86 EM64T Linux

User input:
--------------------------------------------------------------
$molecule
-2 1
C                 -3.4874090000      0.1755940000      0.3745650000
O                 -2.6831290000      0.6385170000     -0.6989950000
C                 -1.3379860000      0.2874330000     -0.5851130000
C                 -0.3802750000      1.3079950000     -0.5223250000
Cl                -0.9552760000      3.0084140000     -0.5128490000
C                  1.0362420000      1.1183150000     -0.4858290000
O                  1.9179520000      2.0610070000     -0.4590090000
C                  1.3828240000     -0.2779320000     -0.4686680000
C                  0.4241960000     -1.2987050000     -0.5108010000
Cl                 0.9975140000     -2.9994630000     -0.4822080000
C                 -0.9900730000     -1.1085590000     -0.5975040000
O                 -1.8698210000     -2.0508350000     -0.6676500000
O                  2.7330870000     -0.6278600000     -0.4680870000
C                  3.4372450000     -0.1862240000      0.6820490000
H                 -3.2028770000      0.6723020000      1.3167920000
H                 -4.5223120000      0.4479330000      0.1314810000
H                 -3.3932330000     -0.9105460000      0.4738660000
H                  3.3329070000      0.8978020000      0.7936650000
H                  3.0702280000     -0.7012860000      1.5851060000
H                  4.4901960000     -0.4539020000      0.5274210000
$end
$rem
MAX_SCF_CYCLES=200
BASIS  =  6-311++G(d,p)
GUI  =  2
JOB_TYPE  =  SP
METHOD  =  B3LYP
SOLVENT_METHOD = COSMO
$end
$solvent
dielectric 37.219
opticaldielectric 1.43
$end

--------------------------------------------------------------

             Standard Nuclear Orientation (Angstroms)
    I     Atom           X                Y                Z
 ----------------------------------------------------------------
    1      C      -2.9337898177    -1.8541868528     0.8884077487
    2      O      -2.5784637279    -1.0485679549    -0.2244339549
    3      C      -1.2748337647    -0.5556582154    -0.1676212522
    4      C      -1.0810393450     0.8317997987    -0.1574492134
    5      Cl     -2.5318839051     1.8885985234    -0.1382857569
    6      C       0.1851874868     1.4950227614    -0.1826639686
    7      O       0.3608373761     2.7738815667    -0.2042814535
    8      C       1.2748512490     0.5556969718    -0.1678580905
    9      C       1.0810735265    -0.8317684158    -0.1573537151
   10      Cl      2.5319258479    -1.8885359027    -0.1384094935
   11      C      -0.1851513058    -1.4950007678    -0.1823984209
   12      O      -0.3607894546    -2.7738436157    -0.2041533280
   13      O       2.5784637672     1.0486978315    -0.2244678667
   14      C       2.9336210796     1.8538828536     0.8887410210
   15      H      -2.9592256065    -1.2530056430     1.8122059893
   16      H      -3.9428799610    -2.2368155702     0.6893727549
   17      H      -2.2265747656    -2.6831630947     0.9936463714
   18      H       2.2259019955     2.6823567147     0.9946734419
   19      H       2.9598036402     1.2521241963     1.8121603620
   20      H       3.9423633318     2.2373674222     0.6896285086
 ----------------------------------------------------------------

   10   -1529.9171095559      7.24e-06  Convergence criterion met
 Total energy in the final basis set =    -1529.9171095559
    5   -1530.2014279074      6.97e-06  Convergence criterion met
 Total energy in the final basis set =    -1530.2014279074

                    Orbital Energies (a.u.)
 --------------------------------------------------------------

 Alpha MOs
 -- Occupied --
********-101.5315 -19.1240 -19.1239 -19.0323 -19.0322 -10.1973 -10.1973
-10.1946 -10.1945 -10.1942 -10.1941 -10.1926 -10.1926  -9.4458  -9.4457
 -7.2099  -7.2098  -7.2012  -7.2012  -7.2004  -7.2003  -1.0368  -1.0355
 -0.9485  -0.9468  -0.8447  -0.8343  -0.7766  -0.7173  -0.6793  -0.6640
 -0.6344  -0.5597  -0.5513  -0.4970  -0.4825  -0.4724  -0.4470  -0.4403
 -0.4310  -0.4131  -0.4052  -0.3982  -0.3800  -0.3793  -0.3553  -0.3514
 -0.3368  -0.3361  -0.3148  -0.3112  -0.2967  -0.2960  -0.2755  -0.2647
 -0.2362  -0.2145  -0.2133  -0.2030  -0.1364

          Ground-State Mulliken Net Atomic Charges

     Atom                 Charge (a.u.)
  ----------------------------------------
      1 C                    -0.298345
      2 O                    -0.197200
      3 C                    -1.820296
      4 C                     1.973748
      5 Cl                    0.163719
      6 C                    -0.594480
      7 O                    -0.683989
      8 C                    -1.826605
      9 C                     1.979420
     10 Cl                    0.162686
     11 C                    -0.597343
     12 O                    -0.682604
     13 O                    -0.197013
     14 C                    -0.297899
     15 H                     0.124766
     16 H                     0.154698
     17 H                     0.178827
     18 H                     0.178753
     19 H                     0.124597
     20 H                     0.154560
  ----------------------------------------
  Sum of atomic charges =    -2.000000

                    Cartesian Multipole Moments
 -----------------------------------------------------------------
    Charge (ESU x 10^10)
                -9.6064
    Dipole Moment (Debye)
         X      -0.0051      Y      -0.0089      Z       4.7313
       Tot       4.7313
    Quadrupole Moments (Debye-Ang)
        XX    -122.8757     XY       5.5660     YY    -163.0548
        XZ      -0.0006     YZ       0.0044     ZZ    -102.4356

 Total job time:  33.94s(wall), 250.25s(cpu)
        *  Thank you very much for using Q-Chem.  Have a nice day.  *
