 Q-Chem 5.4, Q-Chem, Inc., Pleasanton, CA (2021)
 Q-Chem 5.4.0 for Intel X86 EM64T Linux

User input:
--------------------------------------------------------------
$molecule
-1 2
C                  2.2551760000     -0.0702820000      0.0791920000
C                  0.7539460000      0.0378050000      0.0302610000
C                  0.1123750000      1.2465190000      0.0817290000
C                 -1.3283420000      1.3864980000      0.0370420000
O                 -1.9067340000      2.5077590000      0.0853420000
C                 -2.0693380000      0.1444040000     -0.0676770000
C                 -1.4247160000     -1.0591100000     -0.1186830000
Br                -2.4795050000     -2.6827510000     -0.2586340000
C                  0.0171110000     -1.2239400000     -0.0755980000
O                  0.6063460000     -2.3324100000     -0.1228310000
H                  2.5757020000     -0.6818900000      0.9290540000
H                  2.7155680000      0.9184130000      0.1584420000
H                  2.6405100000     -0.5722880000     -0.8144490000
H                  0.6816810000      2.1694380000      0.1603000000
H                 -3.1497820000      0.2118360000     -0.1034920000
$end

$rem
BASIS  =  6-311++G(d,p)
GUI  =  2
JOB_TYPE  =  SP
METHOD  =  B3LYP
SCF_CONVERGENCE  = 8
SOLVENT_METHOD = sm12
$end

$smx
solvent dimethylformamide
charges CM5
$end

--------------------------------------------------------------

             Standard Nuclear Orientation (Angstroms)
    I     Atom           X                Y                Z
 ----------------------------------------------------------------
    1      C       2.2551760000    -0.0702820000     0.0791920000
    2      C       0.7539460000     0.0378050000     0.0302610000
    3      C       0.1123750000     1.2465190000     0.0817290000
    4      C      -1.3283420000     1.3864980000     0.0370420000
    5      O      -1.9067340000     2.5077590000     0.0853420000
    6      C      -2.0693380000     0.1444040000    -0.0676770000
    7      C      -1.4247160000    -1.0591100000    -0.1186830000
    8      Br     -2.4795050000    -2.6827510000    -0.2586340000
    9      C       0.0171110000    -1.2239400000    -0.0755980000
   10      O       0.6063460000    -2.3324100000    -0.1228310000
   11      H       2.5757020000    -0.6818900000     0.9290540000
   12      H       2.7155680000     0.9184130000     0.1584420000
   13      H       2.6405100000    -0.5722880000    -0.8144490000
   14      H       0.6816810000     2.1694380000     0.1603000000
   15      H      -3.1497820000     0.2118360000    -0.1034920000
 ----------------------------------------------------------------

   18   -2994.5183230255      5.94e-09  Convergence criterion met
 Total energy in the final basis set =    -2994.5996150124

                    Orbital Energies (a.u.)
 --------------------------------------------------------------

 Alpha MOs
 -- Occupied --
******** -62.4740 -56.2944 -56.2908 -56.2905 -19.0832 -19.0812 -10.2312
-10.2278 -10.2225 -10.1861 -10.1769 -10.1712 -10.1706  -8.6825  -6.5134
 -6.5014  -6.5006  -2.6244  -2.6210  -2.6204  -2.6109  -2.6108  -1.0085
 -1.0014  -0.8463  -0.8043  -0.7512  -0.7011  -0.6771  -0.5858  -0.5681
 -0.4949  -0.4757  -0.4364  -0.4328  -0.4167  -0.4071  -0.3994  -0.3984
 -0.3782  -0.3744  -0.3603  -0.3190  -0.2824  -0.2795  -0.2515  -0.2483
 -0.2420  -0.1685

 Beta MOs
 -- Occupied --
******** -62.4740 -56.2944 -56.2908 -56.2905 -19.0759 -19.0738 -10.2300
-10.2270 -10.2213 -10.1850 -10.1755 -10.1713 -10.1697  -8.6824  -6.5135
 -6.5013  -6.5006  -2.6244  -2.6210  -2.6204  -2.6109  -2.6108  -0.9959
 -0.9886  -0.8408  -0.8024  -0.7485  -0.6980  -0.6686  -0.5820  -0.5642
 -0.4928  -0.4714  -0.4288  -0.4280  -0.4154  -0.4018  -0.3956  -0.3871
 -0.3712  -0.3582  -0.3510  -0.3077  -0.2821  -0.2514  -0.2435  -0.2413
 -0.2354

          Ground-State Mulliken Net Atomic Charges

     Atom                 Charge (a.u.)    Spin (a.u.)
  --------------------------------------------------------
      1 C                     0.443756       0.002880
      2 C                     1.425228       0.087966
      3 C                    -1.100635       0.051039
      4 C                    -1.033654       0.101812
      5 O                    -0.395637       0.260703
      6 C                    -0.231648       0.097276
      7 C                     1.381000       0.106768
      8 Br                    0.074752       0.006757
      9 C                    -2.236386       0.019179
     10 O                    -0.260809       0.273832
     11 H                     0.184528       0.004112
     12 H                     0.248312      -0.000283
     13 H                     0.184410       0.004090
     14 H                     0.125008      -0.006578
     15 H                     0.191774      -0.009553
  --------------------------------------------------------
  Sum of atomic charges =    -1.000000

                    Cartesian Multipole Moments
 -----------------------------------------------------------------
    Charge (ESU x 10^10)
                -4.8032
    Dipole Moment (Debye)
         X       5.1806      Y       1.0206      Z       0.2566
       Tot       5.2864
    Quadrupole Moments (Debye-Ang)
        XX     -87.7711     XY      10.2096     YY    -108.1211
        XZ       0.1705     YZ      -1.6722     ZZ     -75.3010

 Total job time:  186.72s(wall), 1349.49s(cpu)
        *  Thank you very much for using Q-Chem.  Have a nice day.  *
