 Q-Chem 5.4, Q-Chem, Inc., Pleasanton, CA (2021)
 Q-Chem 5.4.0 for Intel X86 EM64T Linux

User input:
--------------------------------------------------------------
$molecule
0 1
C                  1.2058380000      4.2606610000      5.3248840000
C                  1.5527180000      4.0160780000      3.9095680000
C                  1.0768540000      2.9524100000      3.2545380000
C                  0.1743450000      1.9718840000      3.9047400000
C                 -0.1289000000      2.1751600000      5.3563560000
C                  0.3510670000      3.2339290000      6.0308710000
O                  1.5798460000      5.2570650000      5.9101280000
O                 -0.3093460000      1.0578500000      3.2653960000
H                  2.1974440000      4.7545550000      3.4467280000
H                  1.3019660000      2.7529750000      2.2128330000
S                 -1.1209720000      0.8717760000      6.1959430000
C                  0.2026370000      3.5118890000      7.5120590000
O                  1.0424190000      3.1763360000      8.3015060000
O                 -0.8800770000      4.2448440000      7.7648380000
C                 -1.0950150000      4.5780250000      9.1557550000
H                 -1.9878210000      5.1981090000      9.1672710000
H                 -0.2374160000      5.1251130000      9.5470380000
H                 -1.2478230000      3.6640250000      9.7297870000
C                 -2.7057030000      0.8763770000      5.3462030000
C                 -2.9582400000     -0.0846820000      4.3707240000
C                 -3.6612970000      1.8200830000      5.7218780000
C                 -4.2062230000     -0.0941400000      3.7532500000
C                 -4.9005260000      1.8044200000      5.0872200000
C                 -5.1711800000      0.8487720000      4.1075310000
O                 -0.4470250000     -0.4020490000      5.9614090000
O                 -1.3505850000      1.3667240000      7.5561100000
H                 -2.1905730000     -0.7999960000      4.1087470000
H                 -3.4408660000      2.5373010000      6.5026320000
H                 -4.4237430000     -0.8381230000      2.9960430000
H                 -5.6566210000      2.5288750000      5.3661600000
H                 -6.1397610000      0.8369830000      3.6206140000
$end
$rem
MAX_SCF_CYCLES=200
BASIS  =  6-311++G(d,p)
GUI  =  2
JOB_TYPE  =  SP
METHOD  =  B3LYP
SOLVENT_METHOD = PCM
$end
$pcm
theory = CPCM
$end
$solvent
dielectric 37.219
opticaldielectric 1.43
$end

--------------------------------------------------------------

             Standard Nuclear Orientation (Angstroms)
    I     Atom           X                Y                Z
 ----------------------------------------------------------------
    1      C       1.2058380000     4.2606610000     5.3248840000
    2      C       1.5527180000     4.0160780000     3.9095680000
    3      C       1.0768540000     2.9524100000     3.2545380000
    4      C       0.1743450000     1.9718840000     3.9047400000
    5      C      -0.1289000000     2.1751600000     5.3563560000
    6      C       0.3510670000     3.2339290000     6.0308710000
    7      O       1.5798460000     5.2570650000     5.9101280000
    8      O      -0.3093460000     1.0578500000     3.2653960000
    9      H       2.1974440000     4.7545550000     3.4467280000
   10      H       1.3019660000     2.7529750000     2.2128330000
   11      S      -1.1209720000     0.8717760000     6.1959430000
   12      C       0.2026370000     3.5118890000     7.5120590000
   13      O       1.0424190000     3.1763360000     8.3015060000
   14      O      -0.8800770000     4.2448440000     7.7648380000
   15      C      -1.0950150000     4.5780250000     9.1557550000
   16      H      -1.9878210000     5.1981090000     9.1672710000
   17      H      -0.2374160000     5.1251130000     9.5470380000
   18      H      -1.2478230000     3.6640250000     9.7297870000
   19      C      -2.7057030000     0.8763770000     5.3462030000
   20      C      -2.9582400000    -0.0846820000     4.3707240000
   21      C      -3.6612970000     1.8200830000     5.7218780000
   22      C      -4.2062230000    -0.0941400000     3.7532500000
   23      C      -4.9005260000     1.8044200000     5.0872200000
   24      C      -5.1711800000     0.8487720000     4.1075310000
   25      O      -0.4470250000    -0.4020490000     5.9614090000
   26      O      -1.3505850000     1.3667240000     7.5561100000
   27      H      -2.1905730000    -0.7999960000     4.1087470000
   28      H      -3.4408660000     2.5373010000     6.5026320000
   29      H      -4.4237430000    -0.8381230000     2.9960430000
   30      H      -5.6566210000     2.5288750000     5.3661600000
   31      H      -6.1397610000     0.8369830000     3.6206140000
 ----------------------------------------------------------------

    9   -1389.2569140237      6.30e-06  Convergence criterion met
 Total energy in the final basis set =    -1389.2569140237

                    Orbital Energies (a.u.)
 --------------------------------------------------------------

 Alpha MOs
 -- Occupied --
-89.0809 -19.1943 -19.1652 -19.1611 -19.1462 -19.1453 -19.1444 -10.3411
-10.3129 -10.3123 -10.2637 -10.2619 -10.2290 -10.2278 -10.2257 -10.2244
-10.2056 -10.2039 -10.1971 -10.1949 -10.1945  -8.1445  -6.1071  -6.1065
 -6.1054  -1.1441  -1.1387  -1.0977  -1.0946  -1.0573  -1.0393  -0.8948
 -0.8884  -0.8302  -0.7963  -0.7740  -0.7650  -0.7318  -0.7047  -0.6669
 -0.6450  -0.6330  -0.6036  -0.5924  -0.5627  -0.5585  -0.5477  -0.5321
 -0.5110  -0.5078  -0.5033  -0.4987  -0.4885  -0.4848  -0.4731  -0.4690
 -0.4639  -0.4554  -0.4473  -0.4461  -0.4419  -0.4320  -0.4149  -0.3983
 -0.3907  -0.3817  -0.3710  -0.3703  -0.3611  -0.3483  -0.3408  -0.3320
 -0.3304  -0.3248  -0.3152  -0.3143  -0.2958  -0.2836  -0.2788

          Ground-State Mulliken Net Atomic Charges

     Atom                 Charge (a.u.)
  ----------------------------------------
      1 C                    -0.194726
      2 C                    -0.149508
      3 C                     0.147427
      4 C                    -0.256950
      5 C                    -0.120428
      6 C                     0.562311
      7 O                    -0.214373
      8 O                    -0.205517
      9 H                     0.275287
     10 H                     0.281316
     11 S                     0.532581
     12 C                    -0.681263
     13 O                    -0.168775
     14 O                     0.070259
     15 C                    -0.251277
     16 H                     0.184861
     17 H                     0.193173
     18 H                     0.199461
     19 C                     0.706603
     20 C                    -0.136481
     21 C                    -0.384804
     22 C                    -0.460986
     23 C                    -0.482268
     24 C                    -0.343894
     25 O                    -0.137159
     26 O                    -0.142857
     27 H                     0.278001
     28 H                     0.204491
     29 H                     0.235827
     30 H                     0.245133
     31 H                     0.214538
  ----------------------------------------
  Sum of atomic charges =     0.000000

                    Cartesian Multipole Moments
 -----------------------------------------------------------------
    Charge (ESU x 10^10)
                -0.0000
    Dipole Moment (Debye)
         X      -5.1241      Y       4.2611      Z      -5.5006
       Tot       8.6412
    Quadrupole Moments (Debye-Ang)
        XX    -100.5234     XY     -13.2593     YY    -117.4310
        XZ     -34.8055     YZ      17.5177     ZZ    -182.8878

 Total job time:  69.64s(wall), 514.63s(cpu)
        *  Thank you very much for using Q-Chem.  Have a nice day.  *
