 Q-Chem 5.4, Q-Chem, Inc., Pleasanton, CA (2021)
 Q-Chem 5.4.0 for Intel X86 EM64T Linux

User input:
--------------------------------------------------------------
$molecule
-1 2
C                  4.8887530000     -2.9377560000     -0.3164240000
C                  5.6471980000     -2.0819760000     -1.0765310000
C                  5.1050370000     -0.8614360000     -1.5266880000
C                  3.5574660000     -2.6077410000      0.0243950000
C                  2.9745820000     -1.3759160000     -0.4158350000
C                  3.7996830000     -0.5097740000     -1.2077060000
C                  2.8158070000     -3.5628460000      0.8315890000
C                  1.4548200000     -3.2411290000      1.1887180000
C                  0.8616110000     -2.0154620000      0.7559310000
C                  1.5979160000     -1.0513970000     -0.0539790000
C                  0.6990390000     -4.1533020000      1.9783340000
C                 -0.6118710000     -3.8438430000      2.3224490000
C                 -0.4840980000     -1.7323290000      1.1278810000
C                 -1.1960880000     -2.6460450000      1.9012050000
O                  3.3607910000     -4.6570550000      1.2118260000
O                  1.0273290000      0.0277590000     -0.4160780000
O                  1.2386570000     -5.3219000000      2.4011640000
H                  5.2764580000     -3.8816940000      0.0439350000
H                  6.6698730000     -2.3359130000     -1.3381360000
H                  5.7192470000     -0.2020260000     -2.1240710000
O                  3.2519190000      0.6653260000     -1.6311390000
H                  2.1745170000     -5.3164500000      2.0328250000
O                 -1.0935340000     -0.5867750000      0.7448320000
H                 -2.2185310000     -2.4026420000      2.1685060000
H                 -1.1694400000     -4.5529460000      2.9245610000
H                 -0.3883730000     -0.1034370000      0.2074060000
C                  4.0325410000      1.5430340000     -2.4114240000
H                  3.3888230000      2.3972060000     -2.6232780000
H                  4.3453530000      1.0836090000     -3.3582770000
H                  4.9247800000      1.8886870000     -1.8730090000
$end
$rem
MAX_SCF_CYCLES=200
BASIS  =  6-311++G(d,p)
GUI  =  2
JOB_TYPE  =  SP
METHOD  =  B3LYP
SOLVENT_METHOD = PCM
$end
$pcm
theory = CPCM
$end
$solvent
dielectric 37.219
opticaldielectric 1.43
$end

--------------------------------------------------------------

             Standard Nuclear Orientation (Angstroms)
    I     Atom           X                Y                Z
 ----------------------------------------------------------------
    1      C       4.8887530000    -2.9377560000    -0.3164240000
    2      C       5.6471980000    -2.0819760000    -1.0765310000
    3      C       5.1050370000    -0.8614360000    -1.5266880000
    4      C       3.5574660000    -2.6077410000     0.0243950000
    5      C       2.9745820000    -1.3759160000    -0.4158350000
    6      C       3.7996830000    -0.5097740000    -1.2077060000
    7      C       2.8158070000    -3.5628460000     0.8315890000
    8      C       1.4548200000    -3.2411290000     1.1887180000
    9      C       0.8616110000    -2.0154620000     0.7559310000
   10      C       1.5979160000    -1.0513970000    -0.0539790000
   11      C       0.6990390000    -4.1533020000     1.9783340000
   12      C      -0.6118710000    -3.8438430000     2.3224490000
   13      C      -0.4840980000    -1.7323290000     1.1278810000
   14      C      -1.1960880000    -2.6460450000     1.9012050000
   15      O       3.3607910000    -4.6570550000     1.2118260000
   16      O       1.0273290000     0.0277590000    -0.4160780000
   17      O       1.2386570000    -5.3219000000     2.4011640000
   18      H       5.2764580000    -3.8816940000     0.0439350000
   19      H       6.6698730000    -2.3359130000    -1.3381360000
   20      H       5.7192470000    -0.2020260000    -2.1240710000
   21      O       3.2519190000     0.6653260000    -1.6311390000
   22      H       2.1745170000    -5.3164500000     2.0328250000
   23      O      -1.0935340000    -0.5867750000     0.7448320000
   24      H      -2.2185310000    -2.4026420000     2.1685060000
   25      H      -1.1694400000    -4.5529460000     2.9245610000
   26      H      -0.3883730000    -0.1034370000     0.2074060000
   27      C       4.0325410000     1.5430340000    -2.4114240000
   28      H       3.3888230000     2.3972060000    -2.6232780000
   29      H       4.3453530000     1.0836090000    -3.3582770000
   30      H       4.9247800000     1.8886870000    -1.8730090000
 ----------------------------------------------------------------

    8    -954.1705377578      6.91e-06  Convergence criterion met
 Total energy in the final basis set =     -954.1705377578

                    Orbital Energies (a.u.)
 --------------------------------------------------------------

 Alpha MOs
 -- Occupied --
-19.1536 -19.1309 -19.1288 -19.0906 -19.0898 -10.2434 -10.2411 -10.2344
-10.2312 -10.2310 -10.2146 -10.1847 -10.1809 -10.1791 -10.1782 -10.1764
-10.1708 -10.1700 -10.1694 -10.1659  -1.0731  -1.0546  -1.0531  -1.0087
 -1.0066  -0.8648  -0.8471  -0.7915  -0.7640  -0.7480  -0.7359  -0.6989
 -0.6773  -0.6397  -0.6355  -0.5963  -0.5729  -0.5497  -0.5344  -0.5217
 -0.5096  -0.4965  -0.4845  -0.4699  -0.4695  -0.4544  -0.4409  -0.4401
 -0.4275  -0.4270  -0.4087  -0.4070  -0.4054  -0.4025  -0.3999  -0.3760
 -0.3731  -0.3680  -0.3620  -0.3574  -0.3500  -0.3351  -0.3226  -0.3088
 -0.2741  -0.2611  -0.2543  -0.2452  -0.2368  -0.2138  -0.1459

 Beta MOs
 -- Occupied --
-19.1535 -19.1302 -19.1283 -19.0862 -19.0855 -10.2433 -10.2393 -10.2321
-10.2308 -10.2303 -10.2146 -10.1842 -10.1802 -10.1790 -10.1783 -10.1759
-10.1700 -10.1692 -10.1683 -10.1656  -1.0728  -1.0527  -1.0512  -1.0018
 -0.9992  -0.8623  -0.8456  -0.7875  -0.7623  -0.7461  -0.7330  -0.6978
 -0.6709  -0.6375  -0.6334  -0.5951  -0.5717  -0.5474  -0.5333  -0.5202
 -0.5085  -0.4946  -0.4834  -0.4687  -0.4684  -0.4530  -0.4394  -0.4320
 -0.4254  -0.4237  -0.4077  -0.4056  -0.4014  -0.3960  -0.3932  -0.3750
 -0.3674  -0.3597  -0.3559  -0.3520  -0.3486  -0.3346  -0.3178  -0.3019
 -0.2579  -0.2575  -0.2498  -0.2418  -0.2290  -0.2039

          Ground-State Mulliken Net Atomic Charges

     Atom                 Charge (a.u.)    Spin (a.u.)
  --------------------------------------------------------
      1 C                    -0.252034       0.045192
      2 C                    -0.414419       0.035135
      3 C                    -0.004574       0.067209
      4 C                     0.151433       0.013401
      5 C                     0.050563       0.025460
      6 C                     0.053160       0.017637
      7 C                    -0.333061       0.137484
      8 C                     0.347764      -0.025894
      9 C                     0.691788       0.016939
     10 C                    -0.392820       0.100504
     11 C                    -0.262337       0.062628
     12 C                    -0.097724       0.050212
     13 C                    -0.319442       0.042659
     14 C                    -0.185183       0.078968
     15 O                    -0.511702       0.164582
     16 O                    -0.510764       0.158039
     17 O                    -0.422126       0.019271
     18 H                     0.172122      -0.001947
     19 H                     0.213510      -0.002958
     20 H                     0.207562      -0.004172
     21 O                    -0.172967       0.002160
     22 H                     0.364639      -0.003562
     23 O                    -0.437982       0.015616
     24 H                     0.210063      -0.006858
     25 H                     0.211448      -0.005063
     26 H                     0.402424      -0.002959
     27 C                    -0.300521      -0.000147
     28 H                     0.204689      -0.000125
     29 H                     0.168250       0.000295
     30 H                     0.168240       0.000294
  --------------------------------------------------------
  Sum of atomic charges =    -1.000000

                    Cartesian Multipole Moments
 -----------------------------------------------------------------
    Charge (ESU x 10^10)
                -4.8032
    Dipole Moment (Debye)
         X      -4.9208      Y      13.7233      Z      -5.5163
       Tot      15.5875
    Quadrupole Moments (Debye-Ang)
        XX    -125.5281     XY      35.5194     YY    -179.7099
        XZ     -17.7488     YZ      17.5810     ZZ    -124.3003

 Total job time:  205.10s(wall), 482.85s(cpu)
        *  Thank you very much for using Q-Chem.  Have a nice day.  *
