 Gaussian 16, Revision A.03,
 Gaussian 16:  ES64L-G16RevA.03 25-Dec-2016

 ----------------------------------------------------------------
 #P UB3LYP/6-311++G(d,p) SCRF=(PCM,Solvent=n,n-DiMethylFormamide)
 ----------------------------------------------------------------

 ------------------
 Radical PCM in DMF
 ------------------
 Symbolic Z-matrix:
 Charge = -1 Multiplicity = 2

                         Standard orientation:
 ---------------------------------------------------------------------
 Center     Atomic      Atomic             Coordinates (Angstroms)
 Number     Number       Type             X           Y           Z
 ---------------------------------------------------------------------
      1          6           0       -1.577051    2.486304    0.000165
      2          6           0       -2.937546    2.300794    0.000148
      3          6           0       -3.477014    0.998767   -0.000014
      4          6           0       -0.700856    1.377397    0.000065
      5          6           0       -1.214423    0.040536    0.000022
      6          6           0       -2.641040   -0.110518   -0.000094
      7          6           0        0.727004    1.651374   -0.000087
      8          6           0        1.635786    0.530017   -0.000008
      9          6           0        1.136247   -0.808610    0.000010
     10          6           0       -0.294359   -1.093017    0.000203
     11          6           0        3.040503    0.761380   -0.000009
     12          6           0        3.916139   -0.318401   -0.000018
     13          6           0        2.063615   -1.890013   -0.000020
     14          6           0        3.431809   -1.629469   -0.000045
     15          8           0        1.159615    2.856251   -0.000201
     16          8           0       -0.692471   -2.302467    0.000302
     17          8           0        3.539218    2.021093    0.000018
     18          1           0       -1.132649    3.473066    0.000192
     19          1           0       -3.610289    3.152969    0.000205
     20          1           0       -4.551066    0.874856   -0.000074
     21          8           0       -3.138233   -1.380557   -0.000336
     22          1           0        2.727335    2.614713    0.000061
     23          8           0        1.644164   -3.176284   -0.000026
     24          1           0        4.113085   -2.473239   -0.000040
     25          1           0        4.982277   -0.119408   -0.000035
     26          1           0        0.636939   -3.104230   -0.000068
     27          6           0       -4.535754   -1.569024   -0.000047
     28          1           0       -4.685281   -2.649073   -0.000179
     29          1           0       -5.008730   -1.139379   -0.892881
     30          1           0       -5.008323   -1.139680    0.893150
 ---------------------------------------------------------------------

 SCF Done:  E(UB3LYP) =  -954.165687918     A.U. after   19 cycles

 The electronic state is 2-A.
 Alpha  occ. eigenvalues --  -19.15443 -19.12945 -19.12726 -19.08956 -19.08871
 Alpha  occ. eigenvalues --  -10.24382 -10.24009 -10.23324 -10.23043 -10.23027
 Alpha  occ. eigenvalues --  -10.21898 -10.18461 -10.18084 -10.17871 -10.17767
 Alpha  occ. eigenvalues --  -10.17759 -10.17217 -10.17040 -10.16978 -10.16641
 Alpha  occ. eigenvalues --   -1.07392  -1.05331  -1.05171  -1.00734  -1.00527
 Alpha  occ. eigenvalues --   -0.86473  -0.84696  -0.79153  -0.76483  -0.74817
 Alpha  occ. eigenvalues --   -0.73533  -0.70100  -0.67708  -0.63973  -0.63596
 Alpha  occ. eigenvalues --   -0.59574  -0.57375  -0.55020  -0.53504  -0.52107
 Alpha  occ. eigenvalues --   -0.50869  -0.49672  -0.48526  -0.47186  -0.47043
 Alpha  occ. eigenvalues --   -0.45497  -0.44152  -0.43939  -0.42703  -0.42607
 Alpha  occ. eigenvalues --   -0.40941  -0.40677  -0.40416  -0.40276  -0.39957
 Alpha  occ. eigenvalues --   -0.37678  -0.37200  -0.36831  -0.36224  -0.35734
 Alpha  occ. eigenvalues --   -0.34899  -0.33608  -0.32343  -0.30762  -0.27371
 Alpha  occ. eigenvalues --   -0.25973  -0.25439  -0.24394  -0.23699  -0.21288
 Alpha  occ. eigenvalues --   -0.14528
 Alpha virt. eigenvalues --   -0.04635  -0.02749  -0.00337   0.00495   0.00911
 Alpha virt. eigenvalues --    0.01206   0.01772   0.02069   0.03433   0.03463
 Alpha virt. eigenvalues --    0.03896   0.04187   0.04963   0.05285   0.05322

  Beta  occ. eigenvalues --  -19.15442 -19.12883 -19.12678 -19.08489 -19.08418
  Beta  occ. eigenvalues --  -10.24385 -10.23833 -10.23094 -10.23012 -10.22959
  Beta  occ. eigenvalues --  -10.21898 -10.18405 -10.18007 -10.17856 -10.17784
  Beta  occ. eigenvalues --  -10.17712 -10.17136 -10.16956 -10.16864 -10.16616
  Beta  occ. eigenvalues --   -1.07376  -1.05136  -1.04981  -1.00016  -0.99755
  Beta  occ. eigenvalues --   -0.86223  -0.84545  -0.78759  -0.76317  -0.74634
  Beta  occ. eigenvalues --   -0.73242  -0.69993  -0.67062  -0.63750  -0.63386
  Beta  occ. eigenvalues --   -0.59464  -0.57254  -0.54795  -0.53388  -0.51966
  Beta  occ. eigenvalues --   -0.50763  -0.49476  -0.48425  -0.47120  -0.46893
  Beta  occ. eigenvalues --   -0.45363  -0.44005  -0.43128  -0.42535  -0.42224
  Beta  occ. eigenvalues --   -0.40831  -0.40537  -0.40135  -0.39492  -0.39306
  Beta  occ. eigenvalues --   -0.37580  -0.36766  -0.35901  -0.35588  -0.35137
  Beta  occ. eigenvalues --   -0.34752  -0.33561  -0.31846  -0.30071  -0.25687
  Beta  occ. eigenvalues --   -0.25586  -0.24983  -0.24036  -0.22930  -0.20300
  Beta virt. eigenvalues --   -0.09205  -0.03403  -0.01730  -0.00325   0.00507
  Beta virt. eigenvalues --    0.00923   0.01648   0.01792   0.02079   0.03447
  Beta virt. eigenvalues --    0.03493   0.03907   0.04197   0.05299   0.05345

 Mulliken charges and spin densities:
               1          2
     1  C   -0.245660   0.043177
     2  C   -0.417694   0.036030
     3  C    0.000073   0.067704
     4  C    0.172621   0.015114
     5  C    0.076393   0.028643
     6  C    0.064847   0.016050
     7  C   -0.354483   0.132750
     8  C    0.336636  -0.026969
     9  C    0.688576   0.018379
    10  C   -0.410150   0.094031
    11  C   -0.279418   0.062201
    12  C   -0.072793   0.049117
    13  C   -0.337161   0.040004
    14  C   -0.161874   0.080814
    15  O   -0.494914   0.170285
    16  O   -0.492968   0.164221
    17  O   -0.411529   0.019013
    18  H    0.165651  -0.001792
    19  H    0.197291  -0.003003
    20  H    0.186063  -0.004279
    21  O   -0.160945   0.001852
    22  H    0.356785  -0.003734
    23  O   -0.426845   0.015113
    24  H    0.193734  -0.007017
    25  H    0.194792  -0.004920
    26  H    0.394480  -0.003095
    27  C   -0.277036  -0.000180
    28  H    0.197258  -0.000132
    29  H    0.159111   0.000312
    30  H    0.159157   0.000312
 Sum of Mulliken charges =  -1.00000   1.00000

 Dipole moment (field-independent basis, Debye):
    X=             -7.9494    Y=              0.1509    Z=              0.0003  Tot=              7.9508
 Quadrupole moment (field-independent basis, Debye-Ang):
   XX=           -119.2443   YY=           -153.9257   ZZ=           -121.7304
   XY=             -8.4367   XZ=              0.0003   YZ=              0.0031

 Normal termination of Gaussian 16 at Tue Jan 16 05:39:12 2024.
