 Gaussian 16, Revision A.03,
 Gaussian 16:  ES64L-G16RevA.03 25-Dec-2016

 ----------------------------------------------------------------
 #P UB3LYP/6-311++G(d,p) SCRF=(PCM,Solvent=n,n-DiMethylFormamide)
 ----------------------------------------------------------------

 ------------------
 Quinone PCM in DMF
 ------------------
 Symbolic Z-matrix:
 Charge =  0 Multiplicity = 1

                         Standard orientation:
 ---------------------------------------------------------------------
 Center     Atomic      Atomic             Coordinates (Angstroms)
 Number     Number       Type             X           Y           Z
 ---------------------------------------------------------------------
      1          6           0       -4.318115   -1.146543    1.026523
      2          6           0       -3.713448   -0.802402   -0.348538
      3          6           0       -2.325881   -0.219777   -0.257978
      4          6           0       -1.197876   -1.192644   -0.214421
      5          8           0       -1.444391   -2.389799   -0.268378
      6          6           0        0.186432   -0.665674   -0.106803
      7          6           0        1.299617   -1.509651   -0.067510
      8          8           0        1.199055   -2.853375   -0.122779
      9          6           0        2.595163   -0.947412    0.034690
     10          8           0        3.637299   -1.824357    0.068909
     11          6           0        2.787111    0.416453    0.095973
     12          8           0        4.062171    0.885125    0.193190
     13          6           0        1.681057    1.278620    0.057339
     14          6           0        0.389651    0.743679   -0.042842
     15          6           0       -0.730329    1.676660   -0.080573
     16          6           0       -2.098330    1.113896   -0.183147
     17          8           0       -3.054690    2.068047   -0.194039
     18          8           0       -0.565220    2.903764   -0.027469
     19          8           0        1.961120    2.594232    0.121481
     20          1           0       -3.699005   -1.886816    1.536187
     21          1           0       -4.392553   -0.264894    1.669546
     22          1           0       -5.320375   -1.566619    0.908694
     23          1           0       -3.656540   -1.713523   -0.946412
     24          1           0       -4.382245   -0.121059   -0.890916
     25          1           0        2.091186   -3.225985   -0.082140
     26          1           0       -3.921849    1.655796   -0.284507
     27          1           0        1.086950    3.067368    0.082396
     28          1           0        4.468942   -1.336734    0.137852
     29          1           0        4.032422    1.852148    0.225705
 ---------------------------------------------------------------------

 SCF Done:  E(UB3LYP) =  -990.178893114     A.U. after   16 cycles

 The electronic state is 1-A.
 Alpha  occ. eigenvalues --  -19.19088 -19.18677 -19.18337 -19.17816 -19.17493
 Alpha  occ. eigenvalues --  -19.14427 -19.12020 -10.29243 -10.27848 -10.27299
 Alpha  occ. eigenvalues --  -10.27234 -10.27024 -10.26898 -10.26638 -10.21140
 Alpha  occ. eigenvalues --  -10.20957 -10.20611 -10.18819 -10.16822  -1.12081
 Alpha  occ. eigenvalues --   -1.10805  -1.10211  -1.08920  -1.07881  -1.06137
 Alpha  occ. eigenvalues --   -1.05572  -0.89124  -0.84295  -0.79799  -0.77579
 Alpha  occ. eigenvalues --   -0.75804  -0.70872  -0.68316  -0.67666  -0.64295
 Alpha  occ. eigenvalues --   -0.61842  -0.61137  -0.58510  -0.57820  -0.55212
 Alpha  occ. eigenvalues --   -0.54224  -0.51947  -0.50626  -0.49952  -0.48982
 Alpha  occ. eigenvalues --   -0.47321  -0.46587  -0.45594  -0.44701  -0.44046
 Alpha  occ. eigenvalues --   -0.43505  -0.42718  -0.41982  -0.41791  -0.41247
 Alpha  occ. eigenvalues --   -0.41036  -0.40196  -0.39846  -0.39297  -0.38915
 Alpha  occ. eigenvalues --   -0.38273  -0.36729  -0.35553  -0.33003  -0.29877
 Alpha  occ. eigenvalues --   -0.27194  -0.26988  -0.24774  -0.23719
 Alpha virt. eigenvalues --   -0.12103  -0.03892  -0.02315  -0.01990  -0.00868
 Alpha virt. eigenvalues --    0.00281   0.01425   0.01690   0.02058   0.03438
 Alpha virt. eigenvalues --    0.03526   0.04027   0.04236   0.04952   0.05186

  Beta  occ. eigenvalues --  -19.19088 -19.18677 -19.18337 -19.17816 -19.17493
  Beta  occ. eigenvalues --  -19.14427 -19.12020 -10.29243 -10.27848 -10.27299
  Beta  occ. eigenvalues --  -10.27234 -10.27024 -10.26898 -10.26638 -10.21140
  Beta  occ. eigenvalues --  -10.20957 -10.20611 -10.18819 -10.16822  -1.12081
  Beta  occ. eigenvalues --   -1.10805  -1.10211  -1.08920  -1.07881  -1.06137
  Beta  occ. eigenvalues --   -1.05572  -0.89124  -0.84295  -0.79799  -0.77579
  Beta  occ. eigenvalues --   -0.75804  -0.70872  -0.68316  -0.67666  -0.64295
  Beta  occ. eigenvalues --   -0.61842  -0.61137  -0.58510  -0.57820  -0.55212
  Beta  occ. eigenvalues --   -0.54224  -0.51947  -0.50626  -0.49952  -0.48982
  Beta  occ. eigenvalues --   -0.47321  -0.46587  -0.45594  -0.44701  -0.44046
  Beta  occ. eigenvalues --   -0.43505  -0.42718  -0.41982  -0.41791  -0.41247
  Beta  occ. eigenvalues --   -0.41036  -0.40196  -0.39846  -0.39297  -0.38915
  Beta  occ. eigenvalues --   -0.38273  -0.36729  -0.35553  -0.33003  -0.29877
  Beta  occ. eigenvalues --   -0.27194  -0.26988  -0.24774  -0.23719
  Beta virt. eigenvalues --   -0.12103  -0.03892  -0.02315  -0.01990  -0.00868
  Beta virt. eigenvalues --    0.00281   0.01425   0.01690   0.02058   0.03438
  Beta virt. eigenvalues --    0.03526   0.04027   0.04236   0.04952   0.05186

 Mulliken charges and spin densities:
               1          2
     1  C   -0.600414  -0.000000
     2  C   -0.107060   0.000000
     3  C    1.370104   0.000000
     4  C   -0.429035  -0.000000
     5  O   -0.313007  -0.000000
     6  C    0.574619   0.000000
     7  C   -0.216271   0.000000
     8  O   -0.237021   0.000000
     9  C   -0.222955  -0.000000
    10  O   -0.300430  -0.000000
    11  C   -0.241933  -0.000000
    12  O   -0.304400   0.000000
    13  C    0.061263   0.000000
    14  C    0.903203  -0.000000
    15  C   -0.602982  -0.000000
    16  C   -0.828203  -0.000000
    17  O   -0.225927   0.000000
    18  O   -0.356067   0.000000
    19  O   -0.403096  -0.000000
    20  H    0.170359   0.000000
    21  H    0.155522  -0.000000
    22  H    0.154003   0.000000
    23  H    0.210212   0.000000
    24  H    0.141176   0.000000
    25  H    0.313246   0.000000
    26  H    0.304237  -0.000000
    27  H    0.379096   0.000000
    28  H    0.325848   0.000000
    29  H    0.325915   0.000000
 Sum of Mulliken charges =  -0.00000  -0.00000

 Dipole moment (field-independent basis, Debye):
    X=              1.9584    Y=              0.6820    Z=              0.2195  Tot=              2.0853
 Quadrupole moment (field-independent basis, Debye-Ang):
   XX=            -75.7281   YY=           -129.2566   ZZ=           -109.5955
   XY=             -3.1436   XZ=              1.5633   YZ=             -1.0980

 Normal termination of Gaussian 16 at Thu Jan 25 05:47:08 2024.
