 Q-Chem 5.4, Q-Chem, Inc., Pleasanton, CA (2021)
 Q-Chem 5.4.0 for Intel X86 EM64T Linux

User input:
--------------------------------------------------------------
$molecule
0 1
C                  4.3050360000      0.6997690000     -0.4331450000
C                  3.5157130000     -0.2974890000      0.3630540000
C                  2.7500610000      0.1124340000      1.3948130000
C                  2.6743510000      1.5593120000      1.7499550000
C                  3.4970130000      2.5554940000      0.9737480000
C                  4.2870670000      2.1318540000     -0.0490940000
O                  4.9507480000      0.3375650000     -1.4078010000
O                  1.9698090000      1.9420710000      2.6647610000
C                  6.3819990000      2.8807360000     -0.9458020000
C                  4.1015650000      4.9130210000      1.0198650000
H                  6.7112790000      3.7021750000     -1.5808130000
H                  6.6534600000      1.9282500000     -1.3979440000
H                  6.8412630000      2.9776010000      0.0445120000
H                  3.7502890000      5.7396330000      1.6352590000
H                  3.9641630000      5.1371240000     -0.0363440000
C                  1.9072610000     -0.8197540000      2.2396350000
C                  0.5079730000     -0.9720740000      1.6844210000
C                 -0.1613430000     -2.1013470000      1.4150430000
C                 -1.5726530000     -2.0280430000      0.8667410000
C                 -1.6960300000     -2.4517810000     -0.6189490000
C                 -3.1210560000     -2.4314670000     -1.0990030000
C                 -3.6819190000     -1.6509170000     -2.0336670000
C                 -5.1570140000     -1.7887540000     -2.3529030000
C                 -6.0188350000     -0.5791890000     -1.9115760000
C                 -7.4633050000     -0.7396030000     -2.2972080000
C                 -8.5373140000     -0.8326290000     -1.5017360000
C                 -9.9197080000     -0.9989950000     -2.0853260000
C                  0.3732220000     -3.4940660000      1.6425210000
C                 -2.9390640000     -0.6112260000     -2.8369280000
C                 -8.5024480000     -0.7795550000      0.0050870000
H                  1.8380920000     -0.3902620000      3.2436500000
H                  2.4082630000     -1.7835220000      2.3273940000
H                 -0.0043510000     -0.0281970000      1.5112000000
H                 -1.9540940000     -1.0084300000      0.9692220000
H                 -2.2293610000     -2.6701720000      1.4686270000
H                 -1.3023070000     -3.4689170000     -0.7357720000
H                 -1.0581130000     -1.8020080000     -1.2219380000
H                 -3.7724790000     -3.1484050000     -0.5985710000
H                 -5.5533020000     -2.6895050000     -1.8754860000
H                 -5.2821720000     -1.9275430000     -3.4353820000
H                 -5.6294140000      0.3300840000     -2.3855040000
H                 -5.9025340000     -0.4388970000     -0.8345570000
H                 -7.6374080000     -0.7974080000     -3.3718690000
H                 -9.8987470000     -1.0319430000     -3.1764970000
H                -10.5761230000     -0.1747620000     -1.7812930000
H                  1.3938520000     -3.5078100000      2.0243780000
H                  0.3541380000     -4.0843270000      0.7204890000
H                 -0.2574710000     -4.0254330000      2.3648200000
H                 -1.8736590000     -0.5775120000     -2.6116500000
H                 -3.3452080000      0.3904160000     -2.6607250000
H                 -3.0497310000     -0.8086220000     -3.9096630000
H                 -7.4964050000     -0.6794770000      0.4111880000
H                 -8.9494240000     -1.6858670000      0.4303250000
H                 -9.0997710000      0.0630000000      0.3734250000
H                -10.3899000000     -1.9216260000     -1.7243990000
O                  3.2976130000      3.7959810000      1.4269150000
O                  4.9533830000      3.0177420000     -0.8461220000
C                  3.6302840000     -1.7332870000     -0.0685550000
H                  5.1579640000      4.7249280000      1.2241010000
H                  2.6494410000     -2.2104260000     -0.1048990000
H                  4.2503430000     -2.3016830000      0.6339360000
H                  4.0984740000     -1.7955110000     -1.0494680000
$end
$rem
MAX_SCF_CYCLES=200
BASIS  =  6-311++G(d,p)
GUI  =  2
JOB_TYPE  =  SP
METHOD  =  B3LYP
SCF_ALGORITHM = DIIS_GDM
SOLVENT_METHOD = PCM
$end
$pcm
theory = CPCM
$end
$solvent
dielectric 37.219
opticaldielectric 1.43
$end

--------------------------------------------------------------

             Standard Nuclear Orientation (Angstroms)
    I     Atom           X                Y                Z
 ----------------------------------------------------------------
    1      C       4.3050360000     0.6997690000    -0.4331450000
    2      C       3.5157130000    -0.2974890000     0.3630540000
    3      C       2.7500610000     0.1124340000     1.3948130000
    4      C       2.6743510000     1.5593120000     1.7499550000
    5      C       3.4970130000     2.5554940000     0.9737480000
    6      C       4.2870670000     2.1318540000    -0.0490940000
    7      O       4.9507480000     0.3375650000    -1.4078010000
    8      O       1.9698090000     1.9420710000     2.6647610000
    9      C       6.3819990000     2.8807360000    -0.9458020000
   10      C       4.1015650000     4.9130210000     1.0198650000
   11      H       6.7112790000     3.7021750000    -1.5808130000
   12      H       6.6534600000     1.9282500000    -1.3979440000
   13      H       6.8412630000     2.9776010000     0.0445120000
   14      H       3.7502890000     5.7396330000     1.6352590000
   15      H       3.9641630000     5.1371240000    -0.0363440000
   16      C       1.9072610000    -0.8197540000     2.2396350000
   17      C       0.5079730000    -0.9720740000     1.6844210000
   18      C      -0.1613430000    -2.1013470000     1.4150430000
   19      C      -1.5726530000    -2.0280430000     0.8667410000
   20      C      -1.6960300000    -2.4517810000    -0.6189490000
   21      C      -3.1210560000    -2.4314670000    -1.0990030000
   22      C      -3.6819190000    -1.6509170000    -2.0336670000
   23      C      -5.1570140000    -1.7887540000    -2.3529030000
   24      C      -6.0188350000    -0.5791890000    -1.9115760000
   25      C      -7.4633050000    -0.7396030000    -2.2972080000
   26      C      -8.5373140000    -0.8326290000    -1.5017360000
   27      C      -9.9197080000    -0.9989950000    -2.0853260000
   28      C       0.3732220000    -3.4940660000     1.6425210000
   29      C      -2.9390640000    -0.6112260000    -2.8369280000
   30      C      -8.5024480000    -0.7795550000     0.0050870000
   31      H       1.8380920000    -0.3902620000     3.2436500000
   32      H       2.4082630000    -1.7835220000     2.3273940000
   33      H      -0.0043510000    -0.0281970000     1.5112000000
   34      H      -1.9540940000    -1.0084300000     0.9692220000
   35      H      -2.2293610000    -2.6701720000     1.4686270000
   36      H      -1.3023070000    -3.4689170000    -0.7357720000
   37      H      -1.0581130000    -1.8020080000    -1.2219380000
   38      H      -3.7724790000    -3.1484050000    -0.5985710000
   39      H      -5.5533020000    -2.6895050000    -1.8754860000
   40      H      -5.2821720000    -1.9275430000    -3.4353820000
   41      H      -5.6294140000     0.3300840000    -2.3855040000
   42      H      -5.9025340000    -0.4388970000    -0.8345570000
   43      H      -7.6374080000    -0.7974080000    -3.3718690000
   44      H      -9.8987470000    -1.0319430000    -3.1764970000
   45      H     -10.5761230000    -0.1747620000    -1.7812930000
   46      H       1.3938520000    -3.5078100000     2.0243780000
   47      H       0.3541380000    -4.0843270000     0.7204890000
   48      H      -0.2574710000    -4.0254330000     2.3648200000
   49      H      -1.8736590000    -0.5775120000    -2.6116500000
   50      H      -3.3452080000     0.3904160000    -2.6607250000
   51      H      -3.0497310000    -0.8086220000    -3.9096630000
   52      H      -7.4964050000    -0.6794770000     0.4111880000
   53      H      -8.9494240000    -1.6858670000     0.4303250000
   54      H      -9.0997710000     0.0630000000     0.3734250000
   55      H     -10.3899000000    -1.9216260000    -1.7243990000
   56      O       3.2976130000     3.7959810000     1.4269150000
   57      O       4.9533830000     3.0177420000    -0.8461220000
   58      C       3.6302840000    -1.7332870000    -0.0685550000
   59      H       5.1579640000     4.7249280000     1.2241010000
   60      H       2.6494410000    -2.2104260000    -0.1048990000
   61      H       4.2503430000    -2.3016830000     0.6339360000
   62      H       4.0984740000    -1.7955110000    -1.0494680000
 ----------------------------------------------------------------

   28   -1236.1961503696      4.04e-06  Convergence criterion met
 Total energy in the final basis set =    -1236.1961503696

                    Orbital Energies (a.u.)
 --------------------------------------------------------------

 Alpha MOs
 -- Occupied --
-19.1791 -19.1581 -19.1403 -19.1340 -10.2870 -10.2821 -10.2664 -10.2503
-10.2233 -10.2163 -10.2116 -10.2075 -10.1796 -10.1780 -10.1740 -10.1726
-10.1694 -10.1663 -10.1659 -10.1652 -10.1641 -10.1638 -10.1601 -10.1581
-10.1578 -10.1575 -10.1572 -10.1572  -1.1038  -1.0806  -1.0677  -1.0546
 -0.8638  -0.8286  -0.8207  -0.8091  -0.8017  -0.7685  -0.7512  -0.7424
 -0.7314  -0.7167  -0.6887  -0.6885  -0.6840  -0.6750  -0.6657  -0.6509
 -0.6200  -0.5973  -0.5945  -0.5845  -0.5555  -0.5324  -0.5220  -0.5176
 -0.5139  -0.5110  -0.4948  -0.4783  -0.4754  -0.4736  -0.4666  -0.4634
 -0.4630  -0.4529  -0.4449  -0.4435  -0.4404  -0.4336  -0.4299  -0.4284
 -0.4238  -0.4188  -0.4121  -0.4092  -0.4080  -0.4049  -0.4026  -0.3945
 -0.3868  -0.3812  -0.3776  -0.3718  -0.3705  -0.3693  -0.3678  -0.3625
 -0.3618  -0.3576  -0.3557  -0.3549  -0.3489  -0.3346  -0.3293  -0.3261
 -0.3162  -0.3129  -0.2882  -0.2855  -0.2742  -0.2496  -0.2439  -0.2391
 -0.2270

          Ground-State Mulliken Net Atomic Charges

     Atom                 Charge (a.u.)
  ----------------------------------------
      1 C                    -0.753265
      2 C                     0.709664
      3 C                     1.220223
      4 C                    -0.921303
      5 C                    -0.131305
      6 C                     0.144644
      7 O                    -0.308154
      8 O                    -0.265582
      9 C                    -0.315450
     10 C                    -0.325229
     11 H                     0.176828
     12 H                     0.173618
     13 H                     0.157890
     14 H                     0.202437
     15 H                     0.203113
     16 C                     0.053029
     17 C                    -0.850497
     18 C                     0.774216
     19 C                    -0.553286
     20 C                    -0.128693
     21 C                    -0.353185
     22 C                     0.538861
     23 C                    -0.607175
     24 C                    -0.246434
     25 C                    -0.014276
     26 C                     0.317489
     27 C                    -0.651889
     28 C                    -0.772377
     29 C                    -0.790546
     30 C                    -0.722419
     31 H                     0.221260
     32 H                     0.228995
     33 H                     0.242017
     34 H                     0.168762
     35 H                     0.154974
     36 H                     0.143312
     37 H                     0.127935
     38 H                     0.211916
     39 H                     0.170118
     40 H                     0.143142
     41 H                     0.133479
     42 H                     0.146848
     43 H                     0.208583
     44 H                     0.157530
     45 H                     0.153463
     46 H                     0.128169
     47 H                     0.173187
     48 H                     0.177414
     49 H                     0.140020
     50 H                     0.178865
     51 H                     0.170537
     52 H                     0.151888
     53 H                     0.154195
     54 H                     0.151787
     55 H                     0.157989
     56 O                    -0.205480
     57 O                    -0.225060
     58 C                    -0.537098
     59 H                     0.199762
     60 H                     0.190946
     61 H                     0.226257
     62 H                     0.193132
  ----------------------------------------
  Sum of atomic charges =    -0.000207

                    Cartesian Multipole Moments
 -----------------------------------------------------------------
    Charge (ESU x 10^10)
                -0.0010
    Dipole Moment (Debye)
         X       2.2822      Y      -0.6075      Z       0.2825
       Tot       2.3785
    Quadrupole Moments (Debye-Ang)
        XX    -145.4716     XY      14.6394     YY    -155.5622
        XZ       8.6270     YZ      -9.2776     ZZ    -185.1718

 Total job time:  722.60s(wall), 4917.87s(cpu)
        *  Thank you very much for using Q-Chem.  Have a nice day.  *
