 Q-Chem 5.4, Q-Chem, Inc., Pleasanton, CA (2021)
 Q-Chem 5.4.0 for Intel X86 EM64T Linux

User input:
--------------------------------------------------------------
$molecule
-1 2
C                 16.1749680000      2.8925640000      0.7186210000
C                 15.5501730000      1.8118970000      1.4447750000
C                 15.9595940000      1.4028840000      2.6867300000
C                 17.0812690000      2.0549730000      3.3489950000
C                 17.7239260000      3.1496700000      2.6297380000
C                 17.2969090000      3.5509170000      1.3801430000
O                 15.7637640000      3.2418110000     -0.4284850000
O                 17.4742210000      1.6804670000      4.4954760000
C                 17.9669080000      4.6840420000      0.6432950000
C                 18.8841430000      3.8302250000      3.3150820000
H                 14.7178940000      1.3242210000      0.9452240000
H                 17.9133590000      5.6245930000      1.2067820000
H                 17.4752780000      4.8258130000     -0.3199440000
H                 19.0318650000      4.4834240000      0.4689400000
H                 19.0491100000      3.3698870000      4.2896750000
H                 18.6985830000      4.9024240000      3.4582640000
H                 19.8076020000      3.7479350000      2.7273960000
C                 15.3072240000      0.2485980000      3.4301880000
C                 13.8592510000      0.0363260000      3.0997830000
C                 13.2545650000     -1.0349390000      2.5660550000
C                 11.7613850000     -1.0145580000      2.3042990000
C                 11.3865590000     -0.9339410000      0.8017740000
C                  9.9002270000     -0.9442580000      0.5815100000
C                  9.1187880000      0.0141540000      0.0626280000
C                  7.6215860000     -0.2006440000     -0.0414310000
C                  6.7873340000      0.6829430000      0.9199200000
C                  5.3081190000      0.4825880000      0.7444230000
C                  4.4116940000      0.0110190000      1.6229020000
C                  2.9525180000     -0.1083900000      1.2315220000
C                 13.9649400000     -2.3095400000      2.1776020000
C                  9.6227830000      1.3393060000     -0.4555440000
C                  4.7466790000     -0.4312540000      3.0272030000
C                  2.0121880000      0.8661820000      1.9846960000
C                  0.5713950000      0.6817490000      1.5973660000
C                 -0.2544680000      1.5436030000      0.9868140000
C                 -1.6803580000      1.1370670000      0.6720850000
C                 -1.9720010000      0.9608300000     -0.8396350000
C                 -3.4111400000      0.6160270000     -1.1049230000
C                 -3.9259510000     -0.5030130000     -1.6343280000
C                 -5.4261710000     -0.6458900000     -1.7966530000
C                 -6.0693490000     -1.6987630000     -0.8589950000
C                 -7.5480420000     -1.8400980000     -1.0916030000
C                 -8.5616290000     -1.5693680000     -0.2568260000
C                 -9.9938440000     -1.7720570000     -0.7096130000
C                -10.7933790000     -0.4577270000     -0.8961710000
C                -12.2221080000     -0.7117130000     -1.2898550000
C                -12.8528630000     -0.3863550000     -2.4272950000
C                  0.1249030000      2.9465740000      0.5788820000
C                 -3.1066980000     -1.6766470000     -2.1136480000
C                 -8.3933700000     -1.0713050000      1.1580970000
C                -12.2158210000      0.3600610000     -3.5741630000
C                -14.3092980000     -0.7582870000     -2.6215420000
C                -14.5480120000     -1.8569130000     -3.6880880000
C                -16.0096390000     -2.1494810000     -3.8855400000
C                -16.6822630000     -3.2831020000     -3.6407160000
C                -16.0550070000     -4.5529020000     -3.1187110000
C                -18.1739190000     -3.3528450000     -3.9001720000
C                -19.0380970000     -3.4525100000     -2.6179830000
C                -20.5043350000     -3.5754840000     -2.9275180000
C                -21.4975720000     -2.7273430000     -2.6289930000
C                -21.3281600000     -1.4301440000     -1.8785220000
C                -22.9197830000     -3.0273490000     -3.0372640000
H                 15.4127130000      0.4650840000      4.4998490000
H                 15.8939010000     -0.6631420000      3.2701080000
H                 13.2261350000      0.8956530000      3.3222160000
H                 11.3136370000     -0.1577660000      2.8167380000
H                 11.2951610000     -1.9150240000      2.7310470000
H                 11.8238140000     -1.7939200000      0.2794900000
H                 11.8536700000     -0.0446030000      0.3750000000
H                  9.4031470000     -1.8578260000      0.9121080000
H                  7.3860720000     -1.2500070000      0.1605330000
H                  7.2934340000      0.0022140000     -1.0706190000
H                  7.0204000000      1.7370850000      0.7269340000
H                  7.1042340000      0.4833200000      1.9458540000
H                  4.9343440000      0.7504100000     -0.2446440000
H                  2.6079810000     -1.1351850000      1.4179730000
H                  2.8457470000      0.0669060000      0.1569720000
H                 15.0337300000     -2.2692460000      2.3851520000
H                 13.8454180000     -2.5256270000      1.1095400000
H                 13.5467760000     -3.1676730000      2.7205800000
H                 10.7064740000      1.4323200000     -0.4058870000
H                  9.1968950000      2.1765980000      0.1082650000
H                  9.3211970000      1.4804710000     -1.5007340000
H                  5.8189660000     -0.4561820000      3.2176660000
H                  4.3484700000     -1.4352400000      3.2159790000
H                  4.2948230000      0.2304710000      3.7747780000
H                  2.3515670000      1.8887130000      1.8051960000
H                  2.1089990000      0.6921640000      3.0633170000
H                  0.1640800000     -0.2994000000      1.8441380000
H                 -2.3707810000      1.8921340000      1.0727340000
H                 -1.9150940000      0.1980390000      1.1817920000
H                 -1.2941390000      0.2043700000     -1.2409330000
H                 -1.7356090000      1.8965980000     -1.3605410000
H                 -4.1186340000      1.3910000000     -0.8079480000
H                 -5.6550290000     -0.9205060000     -2.8355520000
H                 -5.9079800000      0.3193650000     -1.6158610000
H                 -5.8471120000     -1.4283390000      0.1755910000
H                 -5.5937660000     -2.6713920000     -1.0342840000
H                 -7.8118580000     -2.2032420000     -2.0854460000
H                -10.5214100000     -2.3981760000      0.0229560000
H                -10.0052960000     -2.3217040000     -1.6552470000
H                -10.2767130000      0.1651160000     -1.6296600000
H                -10.7854960000      0.1024230000      0.0467620000
H                -12.8052930000     -1.2445980000     -0.5381410000
H                  1.1415470000      3.2125640000      0.8657290000
H                 -0.5553380000      3.6743070000      1.0374830000
H                  0.0424520000      3.0821410000     -0.5049000000
H                 -2.0336650000     -1.5131910000     -2.0209260000
H                 -3.3245750000     -1.8887650000     -3.1671830000
H                 -3.3509370000     -2.5866900000     -1.5552170000
H                 -7.3496020000     -0.9780700000      1.4558330000
H                 -8.8844570000     -1.7528920000      1.8628410000
H                 -8.8636400000     -0.0914070000      1.2929310000
H                -11.1816110000      0.6408830000     -3.3781770000
H                -12.7776940000      1.2763010000     -3.7912980000
H                -12.2271580000     -0.2374030000     -4.4919930000
H                -14.8770450000      0.1363550000     -2.9117110000
H                -14.7303970000     -1.1002670000     -1.6716980000
H                -13.9920580000     -2.7516340000     -3.3994100000
H                -14.1260300000     -1.5246900000     -4.6444080000
H                -16.5861290000     -1.3078800000     -4.2708490000
H                -14.9768170000     -4.4723100000     -2.9848640000
H                -16.2470510000     -5.3837610000     -3.8079710000
H                -16.4866300000     -4.8417180000     -2.1544490000
H                -18.3919980000     -4.2231020000     -4.5341990000
H                -18.4901470000     -2.4701180000     -4.4633790000
H                -18.8309680000     -2.5855680000     -1.9865810000
H                -18.7270650000     -4.3340230000     -2.0441770000
H                -20.7727960000     -4.4762100000     -3.4800050000
H                -20.2938130000     -1.2183470000     -1.6096950000
H                -21.9210880000     -1.4396990000     -0.9561070000
H                -21.6996920000     -0.5902380000     -2.4773500000
H                -22.9964640000     -3.9738590000     -3.5762470000
H                -23.3194360000     -2.2342370000     -3.6806580000
H                -23.5773830000     -3.0792680000     -2.1610690000
$end
$rem
MAX_SCF_CYCLES=200
BASIS  =  6-311++G(d,p)
GUI  =  2
JOB_TYPE  =  SP
METHOD  =  B3LYP
THRESH = 14
SCF_CONVERGENCE = 8
SCF_ALGORITHM = RCA_DIIS
scf_guess = core
SOLVENT_METHOD = PCM
$end
$pcm
theory = CPCM
$end
$solvent
dielectric 37.219
opticaldielectric 1.43
$end

--------------------------------------------------------------

             Standard Nuclear Orientation (Angstroms)
    I     Atom           X                Y                Z
 ----------------------------------------------------------------
    1      C      16.1749680000     2.8925640000     0.7186210000
    2      C      15.5501730000     1.8118970000     1.4447750000
    3      C      15.9595940000     1.4028840000     2.6867300000
    4      C      17.0812690000     2.0549730000     3.3489950000
    5      C      17.7239260000     3.1496700000     2.6297380000
    6      C      17.2969090000     3.5509170000     1.3801430000
    7      O      15.7637640000     3.2418110000    -0.4284850000
    8      O      17.4742210000     1.6804670000     4.4954760000
    9      C      17.9669080000     4.6840420000     0.6432950000
   10      C      18.8841430000     3.8302250000     3.3150820000
   11      H      14.7178940000     1.3242210000     0.9452240000
   12      H      17.9133590000     5.6245930000     1.2067820000
   13      H      17.4752780000     4.8258130000    -0.3199440000
   14      H      19.0318650000     4.4834240000     0.4689400000
   15      H      19.0491100000     3.3698870000     4.2896750000
   16      H      18.6985830000     4.9024240000     3.4582640000
   17      H      19.8076020000     3.7479350000     2.7273960000
   18      C      15.3072240000     0.2485980000     3.4301880000
   19      C      13.8592510000     0.0363260000     3.0997830000
   20      C      13.2545650000    -1.0349390000     2.5660550000
   21      C      11.7613850000    -1.0145580000     2.3042990000
   22      C      11.3865590000    -0.9339410000     0.8017740000
   23      C       9.9002270000    -0.9442580000     0.5815100000
   24      C       9.1187880000     0.0141540000     0.0626280000
   25      C       7.6215860000    -0.2006440000    -0.0414310000
   26      C       6.7873340000     0.6829430000     0.9199200000
   27      C       5.3081190000     0.4825880000     0.7444230000
   28      C       4.4116940000     0.0110190000     1.6229020000
   29      C       2.9525180000    -0.1083900000     1.2315220000
   30      C      13.9649400000    -2.3095400000     2.1776020000
   31      C       9.6227830000     1.3393060000    -0.4555440000
   32      C       4.7466790000    -0.4312540000     3.0272030000
   33      C       2.0121880000     0.8661820000     1.9846960000
   34      C       0.5713950000     0.6817490000     1.5973660000
   35      C      -0.2544680000     1.5436030000     0.9868140000
   36      C      -1.6803580000     1.1370670000     0.6720850000
   37      C      -1.9720010000     0.9608300000    -0.8396350000
   38      C      -3.4111400000     0.6160270000    -1.1049230000
   39      C      -3.9259510000    -0.5030130000    -1.6343280000
   40      C      -5.4261710000    -0.6458900000    -1.7966530000
   41      C      -6.0693490000    -1.6987630000    -0.8589950000
   42      C      -7.5480420000    -1.8400980000    -1.0916030000
   43      C      -8.5616290000    -1.5693680000    -0.2568260000
   44      C      -9.9938440000    -1.7720570000    -0.7096130000
   45      C     -10.7933790000    -0.4577270000    -0.8961710000
   46      C     -12.2221080000    -0.7117130000    -1.2898550000
   47      C     -12.8528630000    -0.3863550000    -2.4272950000
   48      C       0.1249030000     2.9465740000     0.5788820000
   49      C      -3.1066980000    -1.6766470000    -2.1136480000
   50      C      -8.3933700000    -1.0713050000     1.1580970000
   51      C     -12.2158210000     0.3600610000    -3.5741630000
   52      C     -14.3092980000    -0.7582870000    -2.6215420000
   53      C     -14.5480120000    -1.8569130000    -3.6880880000
   54      C     -16.0096390000    -2.1494810000    -3.8855400000
   55      C     -16.6822630000    -3.2831020000    -3.6407160000
   56      C     -16.0550070000    -4.5529020000    -3.1187110000
   57      C     -18.1739190000    -3.3528450000    -3.9001720000
   58      C     -19.0380970000    -3.4525100000    -2.6179830000
   59      C     -20.5043350000    -3.5754840000    -2.9275180000
   60      C     -21.4975720000    -2.7273430000    -2.6289930000
   61      C     -21.3281600000    -1.4301440000    -1.8785220000
   62      C     -22.9197830000    -3.0273490000    -3.0372640000
   63      H      15.4127130000     0.4650840000     4.4998490000
   64      H      15.8939010000    -0.6631420000     3.2701080000
   65      H      13.2261350000     0.8956530000     3.3222160000
   66      H      11.3136370000    -0.1577660000     2.8167380000
   67      H      11.2951610000    -1.9150240000     2.7310470000
   68      H      11.8238140000    -1.7939200000     0.2794900000
   69      H      11.8536700000    -0.0446030000     0.3750000000
   70      H       9.4031470000    -1.8578260000     0.9121080000
   71      H       7.3860720000    -1.2500070000     0.1605330000
   72      H       7.2934340000     0.0022140000    -1.0706190000
   73      H       7.0204000000     1.7370850000     0.7269340000
   74      H       7.1042340000     0.4833200000     1.9458540000
   75      H       4.9343440000     0.7504100000    -0.2446440000
   76      H       2.6079810000    -1.1351850000     1.4179730000
   77      H       2.8457470000     0.0669060000     0.1569720000
   78      H      15.0337300000    -2.2692460000     2.3851520000
   79      H      13.8454180000    -2.5256270000     1.1095400000
   80      H      13.5467760000    -3.1676730000     2.7205800000
   81      H      10.7064740000     1.4323200000    -0.4058870000
   82      H       9.1968950000     2.1765980000     0.1082650000
   83      H       9.3211970000     1.4804710000    -1.5007340000
   84      H       5.8189660000    -0.4561820000     3.2176660000
   85      H       4.3484700000    -1.4352400000     3.2159790000
   86      H       4.2948230000     0.2304710000     3.7747780000
   87      H       2.3515670000     1.8887130000     1.8051960000
   88      H       2.1089990000     0.6921640000     3.0633170000
   89      H       0.1640800000    -0.2994000000     1.8441380000
   90      H      -2.3707810000     1.8921340000     1.0727340000
   91      H      -1.9150940000     0.1980390000     1.1817920000
   92      H      -1.2941390000     0.2043700000    -1.2409330000
   93      H      -1.7356090000     1.8965980000    -1.3605410000
   94      H      -4.1186340000     1.3910000000    -0.8079480000
   95      H      -5.6550290000    -0.9205060000    -2.8355520000
   96      H      -5.9079800000     0.3193650000    -1.6158610000
   97      H      -5.8471120000    -1.4283390000     0.1755910000
   98      H      -5.5937660000    -2.6713920000    -1.0342840000
   99      H      -7.8118580000    -2.2032420000    -2.0854460000
  100      H     -10.5214100000    -2.3981760000     0.0229560000
  101      H     -10.0052960000    -2.3217040000    -1.6552470000
  102      H     -10.2767130000     0.1651160000    -1.6296600000
  103      H     -10.7854960000     0.1024230000     0.0467620000
  104      H     -12.8052930000    -1.2445980000    -0.5381410000
  105      H       1.1415470000     3.2125640000     0.8657290000
  106      H      -0.5553380000     3.6743070000     1.0374830000
  107      H       0.0424520000     3.0821410000    -0.5049000000
  108      H      -2.0336650000    -1.5131910000    -2.0209260000
  109      H      -3.3245750000    -1.8887650000    -3.1671830000
  110      H      -3.3509370000    -2.5866900000    -1.5552170000
  111      H      -7.3496020000    -0.9780700000     1.4558330000
  112      H      -8.8844570000    -1.7528920000     1.8628410000
  113      H      -8.8636400000    -0.0914070000     1.2929310000
  114      H     -11.1816110000     0.6408830000    -3.3781770000
  115      H     -12.7776940000     1.2763010000    -3.7912980000
  116      H     -12.2271580000    -0.2374030000    -4.4919930000
  117      H     -14.8770450000     0.1363550000    -2.9117110000
  118      H     -14.7303970000    -1.1002670000    -1.6716980000
  119      H     -13.9920580000    -2.7516340000    -3.3994100000
  120      H     -14.1260300000    -1.5246900000    -4.6444080000
  121      H     -16.5861290000    -1.3078800000    -4.2708490000
  122      H     -14.9768170000    -4.4723100000    -2.9848640000
  123      H     -16.2470510000    -5.3837610000    -3.8079710000
  124      H     -16.4866300000    -4.8417180000    -2.1544490000
  125      H     -18.3919980000    -4.2231020000    -4.5341990000
  126      H     -18.4901470000    -2.4701180000    -4.4633790000
  127      H     -18.8309680000    -2.5855680000    -1.9865810000
  128      H     -18.7270650000    -4.3340230000    -2.0441770000
  129      H     -20.7727960000    -4.4762100000    -3.4800050000
  130      H     -20.2938130000    -1.2183470000    -1.6096950000
  131      H     -21.9210880000    -1.4396990000    -0.9561070000
  132      H     -21.6996920000    -0.5902380000    -2.4773500000
  133      H     -22.9964640000    -3.9738590000    -3.5762470000
  134      H     -23.3194360000    -2.2342370000    -3.6806580000
  135      H     -23.5773830000    -3.0792680000    -2.1610690000
 ----------------------------------------------------------------

   95   -2218.9201725222      5.61E-09 Convergence criterion met
 Total energy in the final basis set = -2218.92017252

                    Orbital Energies (a.u.)
 --------------------------------------------------------------

 Alpha MOs
 -- Occupied --
-19.0725 -19.0720 -10.2123 -10.2121 -10.1737 -10.1719 -10.1719 -10.1718
-10.1717 -10.1716 -10.1712 -10.1707 -10.1690 -10.1659 -10.1638 -10.1637
-10.1637 -10.1636 -10.1635 -10.1634 -10.1634 -10.1633 -10.1633 -10.1633
-10.1632 -10.1630 -10.1628 -10.1625 -10.1624 -10.1620 -10.1618 -10.1613
-10.1606 -10.1574 -10.1574 -10.1574 -10.1574 -10.1572 -10.1571 -10.1570
-10.1569 -10.1569 -10.1568 -10.1568 -10.1567 -10.1567 -10.1565 -10.1563
-10.1562 -10.1555 -10.1552 -10.1552 -10.1504 -10.1490 -10.1489  -0.9945
 -0.9917  -0.8290  -0.8284  -0.8270  -0.8246  -0.8215  -0.8177  -0.8135
 -0.8089  -0.8043  -0.8011  -0.7829  -0.7733  -0.7662  -0.7578  -0.7489
 -0.7399  -0.7313  -0.7239  -0.7191  -0.7183  -0.7131  -0.6884  -0.6851
 -0.6845  -0.6836  -0.6823  -0.6803  -0.6772  -0.6726  -0.6669  -0.6622
 -0.6562  -0.6428  -0.6344  -0.6252  -0.6154  -0.6053  -0.5963  -0.5887
 -0.5829  -0.5796  -0.5559  -0.5379  -0.5199  -0.5194  -0.5181  -0.5163
 -0.5144  -0.5122  -0.5101  -0.5086  -0.5075  -0.4874  -0.4759  -0.4757
 -0.4745  -0.4742  -0.4732  -0.4711  -0.4683  -0.4640  -0.4606  -0.4512
 -0.4440  -0.4425  -0.4403  -0.4369  -0.4339  -0.4325  -0.4305  -0.4292
 -0.4285  -0.4270  -0.4264  -0.4195  -0.4164  -0.4149  -0.4132  -0.4119
 -0.4092  -0.4082  -0.4065  -0.4044  -0.4030  -0.4010  -0.3998  -0.3986
 -0.3984  -0.3961  -0.3924  -0.3911  -0.3898  -0.3886  -0.3874  -0.3832
 -0.3808  -0.3806  -0.3795  -0.3702  -0.3696  -0.3696  -0.3693  -0.3687
 -0.3683  -0.3675  -0.3667  -0.3663  -0.3653  -0.3640  -0.3630  -0.3619
 -0.3613  -0.3596  -0.3581  -0.3563  -0.3546  -0.3524  -0.3516  -0.3499
 -0.3454  -0.3434  -0.3397  -0.3359  -0.3339  -0.3331  -0.3318  -0.3309
 -0.3287  -0.3255  -0.3246  -0.3244  -0.3237  -0.3218  -0.3165  -0.3115
 -0.3075  -0.3051  -0.2705  -0.2505  -0.2489  -0.2465  -0.2440  -0.2412
 -0.2385  -0.2340  -0.2328  -0.2297  -0.2256  -0.2220  -0.2202  -0.1553

 Beta MOs
 -- Occupied --
-19.0658 -19.0654 -10.2107 -10.2103 -10.1737 -10.1719 -10.1719 -10.1718
-10.1717 -10.1716 -10.1712 -10.1707 -10.1690 -10.1646 -10.1638 -10.1637
-10.1637 -10.1636 -10.1635 -10.1634 -10.1634 -10.1633 -10.1633 -10.1633
-10.1632 -10.1630 -10.1628 -10.1625 -10.1620 -10.1618 -10.1616 -10.1607
-10.1603 -10.1574 -10.1574 -10.1574 -10.1574 -10.1572 -10.1571 -10.1570
-10.1569 -10.1569 -10.1568 -10.1568 -10.1567 -10.1567 -10.1565 -10.1563
-10.1562 -10.1555 -10.1552 -10.1551 -10.1494 -10.1491 -10.1489  -0.9828
 -0.9798  -0.8290  -0.8276  -0.8258  -0.8236  -0.8206  -0.8171  -0.8130
 -0.8086  -0.8041  -0.8010  -0.7816  -0.7732  -0.7661  -0.7577  -0.7487
 -0.7397  -0.7311  -0.7237  -0.7185  -0.7157  -0.7123  -0.6884  -0.6851
 -0.6845  -0.6836  -0.6823  -0.6803  -0.6771  -0.6724  -0.6665  -0.6602
 -0.6524  -0.6423  -0.6332  -0.6240  -0.6146  -0.6049  -0.5961  -0.5886
 -0.5829  -0.5795  -0.5525  -0.5338  -0.5199  -0.5194  -0.5181  -0.5163
 -0.5143  -0.5121  -0.5100  -0.5086  -0.5074  -0.4856  -0.4759  -0.4757
 -0.4745  -0.4742  -0.4732  -0.4710  -0.4681  -0.4637  -0.4605  -0.4478
 -0.4440  -0.4424  -0.4401  -0.4368  -0.4337  -0.4322  -0.4292  -0.4287
 -0.4273  -0.4263  -0.4230  -0.4169  -0.4148  -0.4145  -0.4131  -0.4118
 -0.4090  -0.4081  -0.4064  -0.4042  -0.4026  -0.4000  -0.3997  -0.3984
 -0.3978  -0.3949  -0.3916  -0.3889  -0.3879  -0.3872  -0.3861  -0.3815
 -0.3808  -0.3788  -0.3747  -0.3702  -0.3696  -0.3693  -0.3687  -0.3683
 -0.3675  -0.3667  -0.3663  -0.3653  -0.3640  -0.3630  -0.3618  -0.3613
 -0.3593  -0.3581  -0.3562  -0.3545  -0.3523  -0.3515  -0.3500  -0.3457
 -0.3415  -0.3402  -0.3364  -0.3340  -0.3329  -0.3323  -0.3312  -0.3306
 -0.3277  -0.3255  -0.3246  -0.3244  -0.3234  -0.3216  -0.3163  -0.3114
 -0.3075  -0.3051  -0.2505  -0.2489  -0.2464  -0.2437  -0.2403  -0.2385
 -0.2353  -0.2324  -0.2284  -0.2254  -0.2248  -0.2216  -0.2181

          Ground-State Mulliken Net Atomic Charges

     Atom                 Charge (a.u.)    Spin (a.u.)
  --------------------------------------------------------
      1 C                    -1.011284       0.113487
      2 C                    -0.636096       0.027444
      3 C                     0.902764       0.081831
      4 C                    -0.877112       0.126847
      5 C                     0.206213       0.032034
      6 C                     1.016035       0.115863
      7 O                    -0.518809       0.233612
      8 O                    -0.501307       0.242292
      9 C                    -0.460509       0.007398
     10 C                    -0.476898      -0.005967
     11 H                     0.146608      -0.008700
     12 H                     0.157975       0.003756
     13 H                     0.178256      -0.001836
     14 H                     0.157256       0.003651
     15 H                     0.185285      -0.001925
     16 H                     0.155951       0.002847
     17 H                     0.159025       0.002845
     18 C                    -0.335736       0.016714
     19 C                    -0.246768       0.000327
     20 C                     0.522645      -0.002791
     21 C                    -0.516291       0.000667
     22 C                    -0.324464       0.000019
     23 C                    -0.121762       0.000231
     24 C                     0.505116      -0.000134
     25 C                    -0.597143      -0.000037
     26 C                    -0.336264       0.000034
     27 C                    -0.355136      -0.000037
     28 C                     0.639347       0.000012
     29 C                    -0.428772      -0.000002
     30 C                    -0.661871      -0.000546
     31 C                    -0.779070       0.000142
     32 C                    -0.734834      -0.000003
     33 C                    -0.384696       0.000001
     34 C                    -0.334098      -0.000002
     35 C                     0.547549       0.000002
     36 C                    -0.441524       0.000000
     37 C                    -0.289682      -0.000001
     38 C                    -0.336512       0.000038
     39 C                     0.497013      -0.000028
     40 C                    -0.414641       0.000008
     41 C                    -0.306690      -0.000039
     42 C                    -0.321683       0.000520
     43 C                     0.521956      -0.000496
     44 C                    -0.452925       0.000042
     45 C                    -0.273935      -0.000007
     46 C                    -0.419520      -0.000024
     47 C                     0.548756       0.000023
     48 C                    -0.729709      -0.000000
     49 C                    -0.748007      -0.000001
     50 C                    -0.744752       0.000069
     51 C                    -0.741327      -0.000004
     52 C                    -0.403434      -0.000003
     53 C                    -0.221329       0.000001
     54 C                    -0.219992      -0.000000
     55 C                     0.467126       0.000000
     56 C                    -0.779258       0.000000
     57 C                    -0.586073      -0.000000
     58 C                    -0.282407       0.000001
     59 C                     0.016221      -0.000000
     60 C                     0.295104       0.000000
     61 C                    -0.711081      -0.000000
     62 C                    -0.642501      -0.000000
     63 H                     0.199715       0.000730
     64 H                     0.179222       0.009144
     65 H                     0.164261       0.000656
     66 H                     0.196328      -0.000223
     67 H                     0.139237      -0.000099
     68 H                     0.140566       0.000065
     69 H                     0.179214       0.000318
     70 H                     0.217397      -0.000000
     71 H                     0.165402       0.000000
     72 H                     0.147530      -0.000002
     73 H                     0.144446      -0.000004
     74 H                     0.152312       0.000004
     75 H                     0.213552       0.000002
     76 H                     0.159822       0.000001
     77 H                     0.171625       0.000000
     78 H                     0.137475      -0.000411
     79 H                     0.176109      -0.000082
     80 H                     0.170127       0.000060
     81 H                     0.125771      -0.000247
     82 H                     0.177354       0.000012
     83 H                     0.166387      -0.000002
     84 H                     0.138503      -0.000001
     85 H                     0.168274       0.000001
     86 H                     0.180153       0.000001
     87 H                     0.144170      -0.000000
     88 H                     0.142138      -0.000000
     89 H                     0.195244      -0.000000
     90 H                     0.145130      -0.000000
     91 H                     0.179753      -0.000000
     92 H                     0.149332       0.000000
     93 H                     0.136662       0.000001
     94 H                     0.203338      -0.000003
     95 H                     0.146401      -0.000005
     96 H                     0.178607      -0.000003
     97 H                     0.145718       0.000004
     98 H                     0.137654       0.000021
     99 H                     0.203550      -0.000049
    100 H                     0.147679      -0.000019
    101 H                     0.174682      -0.000006
    102 H                     0.143058       0.000004
    103 H                     0.137217       0.000001
    104 H                     0.198265       0.000003
    105 H                     0.137725       0.000000
    106 H                     0.167277       0.000000
    107 H                     0.175411      -0.000000
    108 H                     0.139163       0.000000
    109 H                     0.168233      -0.000001
    110 H                     0.176005      -0.000002
    111 H                     0.139689      -0.000005
    112 H                     0.167880      -0.000021
    113 H                     0.175844      -0.000020
    114 H                     0.140086      -0.000000
    115 H                     0.168346       0.000001
    116 H                     0.175240       0.000001
    117 H                     0.141055       0.000001
    118 H                     0.182675       0.000000
    119 H                     0.150845      -0.000000
    120 H                     0.132997      -0.000000
    121 H                     0.217325      -0.000000
    122 H                     0.137469       0.000000
    123 H                     0.169201       0.000000
    124 H                     0.177633      -0.000000
    125 H                     0.144141       0.000000
    126 H                     0.169466       0.000000
    127 H                     0.145108      -0.000000
    128 H                     0.134090      -0.000000
    129 H                     0.204906       0.000000
    130 H                     0.149147       0.000000
    131 H                     0.151769       0.000000
    132 H                     0.154148       0.000000
    133 H                     0.157314       0.000000
    134 H                     0.157136       0.000000
    135 H                     0.152989       0.000000
  --------------------------------------------------------
  Sum of atomic charges =    -1.000000

                    Cartesian Multipole Moments
 -----------------------------------------------------------------
    Charge (ESU x 10^10)
                -4.8032
    Dipole Moment (Debye)
         X     -79.0604      Y     -11.3950      Z      -9.1876
       Tot      80.4040
    Quadrupole Moments (Debye-Ang)
        XX   -1647.2929     XY    -189.9316     YY    -376.2186
        XZ    -168.8438     YZ     -14.3704     ZZ    -406.1363

 Total job time:  29185.43s(wall), 175115.26s(cpu)
        *  Thank you very much for using Q-Chem.  Have a nice day.  *
