 Gaussian 16, Revision A.03,
 Gaussian 16:  ES64L-G16RevA.03 25-Dec-2016

 ----------------------------------------------------------------------
 #P UB3LYP/6-311++G(d,p) nosym opt freq SCRF=(PCM,Solvent=n,n-DiMethylF
 ormamide)
 ----------------------------------------------------------------------

 -------
 Reduced
 -------
 Symbolic Z-matrix:
 Charge = -2 Multiplicity = 1

 SCF Done:  E(UB3LYP) =  -751.776425791     A.U. after   19 cycles
 SCF Done:  E(UB3LYP) =  -751.778172666     A.U. after   15 cycles
 SCF Done:  E(UB3LYP) =  -751.778544062     A.U. after   13 cycles
 SCF Done:  E(UB3LYP) =  -751.778714403     A.U. after   14 cycles
 SCF Done:  E(UB3LYP) =  -751.778742418     A.U. after   13 cycles
 SCF Done:  E(UB3LYP) =  -751.778756234     A.U. after   12 cycles
 SCF Done:  E(UB3LYP) =  -751.778785425     A.U. after   13 cycles
 SCF Done:  E(UB3LYP) =  -751.778799680     A.U. after   14 cycles
 SCF Done:  E(UB3LYP) =  -751.778809453     A.U. after   12 cycles
 SCF Done:  E(UB3LYP) =  -751.778813132     A.U. after   11 cycles
 SCF Done:  E(UB3LYP) =  -751.778813930     A.U. after   11 cycles
 SCF Done:  E(UB3LYP) =  -751.778814007     A.U. after   10 cycles
 SCF Done:  E(UB3LYP) =  -751.778814046     A.U. after    8 cycles
 SCF Done:  E(UB3LYP) =  -751.778814084     A.U. after   10 cycles
 Optimization completed.
    -- Stationary point found.
 Normal termination of Gaussian 16 at Sat Feb 10 15:26:51 2024.

 ----------------------------------------------------------------------
 #P Geom=AllCheck Guess=TCheck SCRF=Check GenChk UB3LYP/6-311++G(d,p) F
 req
 ----------------------------------------------------------------------

 Structure from the checkpoint file:  "105-an.chk"
 -------
 Reduced
 -------
 Charge = -2 Multiplicity = 1

                          Input orientation:
 ---------------------------------------------------------------------
 Center     Atomic      Atomic             Coordinates (Angstroms)
 Number     Number       Type             X           Y           Z
 ---------------------------------------------------------------------
      1          6           0       -1.051013   -1.557145    3.586546
      2          6           0        0.256405   -1.817616    3.120487
      3          6           0        0.759945   -1.463986    1.850221
      4          6           0       -0.112039   -0.795440    0.922675
      5          6           0       -1.436826   -0.541330    1.391198
      6          6           0       -1.905226   -0.874634    2.665087
      7          8           0       -1.492514   -1.917629    4.788331
      8          8           0        0.242288   -0.431209   -0.296073
      9          7           0       -3.249963   -0.672918    3.110588
     10          6           0       -3.866007    0.681580    3.196728
     11          6           0       -5.095581    0.528266    4.108571
     12          6           0       -4.341154    1.167832    1.815873
     13          6           0       -2.905358    1.722937    3.808261
     14          6           0        2.216897   -1.791103    1.458189
     15          6           0        3.004520   -2.507617    2.572795
     16          6           0        2.232861   -2.714719    0.216790
     17          6           0        2.976339   -0.483991    1.125771
     18          1           0        0.905270   -2.329794    3.824792
     19          1           0       -2.106461   -0.066260    0.680983
     20          1           0       -3.243391   -1.076488    4.048920
     21          1           0       -4.802025    0.187391    5.106856
     22          1           0       -5.795843   -0.201296    3.691572
     23          1           0       -5.618094    1.482312    4.218905
     24          1           0       -4.972359    0.412021    1.339751
     25          1           0       -3.502125    1.381837    1.152616
     26          1           0       -4.925149    2.087727    1.921091
     27          1           0       -2.608860    1.428394    4.819584
     28          1           0       -3.381277    2.707241    3.865643
     29          1           0       -2.001325    1.814984    3.201814
     30          1           0        3.074675   -1.902208    3.481451
     31          1           0        4.024906   -2.705313    2.226678
     32          1           0        2.554807   -3.468079    2.841722
     33          1           0        1.774615   -3.681477    0.453212
     34          1           0        3.260756   -2.903518   -0.118425
     35          1           0        1.670423   -2.248964   -0.592666
     36          1           0        3.048150    0.153683    2.013851
     37          1           0        2.446365    0.061545    0.344593
     38          1           0        3.997030   -0.699803    0.785038
 ---------------------------------------------------------------------

 SCF Done:  E(UB3LYP) =  -751.778814084     A.U. after    1 cycles

 Alpha  occ. eigenvalues --  -19.00773 -18.99920 -14.27234 -10.19637 -10.15846
 Alpha  occ. eigenvalues --  -10.15635 -10.15143 -10.14781 -10.14544 -10.14345
 Alpha  occ. eigenvalues --  -10.14241 -10.13741 -10.12951 -10.12906 -10.11637
 Alpha  occ. eigenvalues --  -10.10939 -10.10629  -0.91615  -0.90370  -0.87687
 Alpha  occ. eigenvalues --   -0.79524  -0.77502  -0.74281  -0.68211  -0.67468
 Alpha  occ. eigenvalues --   -0.66861  -0.66243  -0.65874  -0.63056  -0.57118
 Alpha  occ. eigenvalues --   -0.53470  -0.52600  -0.49303  -0.45956  -0.44563
 Alpha  occ. eigenvalues --   -0.43457  -0.43208  -0.42357  -0.41454  -0.40759
 Alpha  occ. eigenvalues --   -0.39589  -0.39018  -0.37977  -0.37377  -0.37267
 Alpha  occ. eigenvalues --   -0.35849  -0.35710  -0.35435  -0.34597  -0.34276
 Alpha  occ. eigenvalues --   -0.33840  -0.33415  -0.32473  -0.31456  -0.30840
 Alpha  occ. eigenvalues --   -0.30553  -0.29604  -0.29056  -0.28875  -0.24867
 Alpha  occ. eigenvalues --   -0.20692  -0.19072  -0.17775  -0.17380  -0.10722
 Alpha virt. eigenvalues --   -0.00230   0.00439   0.01574   0.01740   0.02294
 Alpha virt. eigenvalues --    0.02636   0.02673   0.03450   0.03887   0.03949
 Alpha virt. eigenvalues --    0.04271   0.04476   0.05042   0.05316   0.05897

  Beta  occ. eigenvalues --  -19.00773 -18.99920 -14.27234 -10.19637 -10.15846
  Beta  occ. eigenvalues --  -10.15635 -10.15143 -10.14781 -10.14544 -10.14345
  Beta  occ. eigenvalues --  -10.14241 -10.13741 -10.12951 -10.12906 -10.11637
  Beta  occ. eigenvalues --  -10.10939 -10.10629  -0.91615  -0.90370  -0.87687
  Beta  occ. eigenvalues --   -0.79524  -0.77502  -0.74281  -0.68211  -0.67468
  Beta  occ. eigenvalues --   -0.66861  -0.66243  -0.65874  -0.63056  -0.57118
  Beta  occ. eigenvalues --   -0.53470  -0.52600  -0.49303  -0.45956  -0.44563
  Beta  occ. eigenvalues --   -0.43457  -0.43208  -0.42357  -0.41454  -0.40759
  Beta  occ. eigenvalues --   -0.39589  -0.39018  -0.37977  -0.37377  -0.37267
  Beta  occ. eigenvalues --   -0.35849  -0.35710  -0.35435  -0.34597  -0.34276
  Beta  occ. eigenvalues --   -0.33840  -0.33415  -0.32473  -0.31456  -0.30840
  Beta  occ. eigenvalues --   -0.30553  -0.29604  -0.29056  -0.28875  -0.24867
  Beta  occ. eigenvalues --   -0.20692  -0.19072  -0.17775  -0.17380  -0.10722
  Beta virt. eigenvalues --   -0.00230   0.00439   0.01574   0.01740   0.02294
  Beta virt. eigenvalues --    0.02636   0.02673   0.03450   0.03887   0.03949
  Beta virt. eigenvalues --    0.04271   0.04476   0.05042   0.05316   0.05897

 Mulliken charges and spin densities:
               1          2
     1  C   -0.793516   0.000000
     2  C   -0.527701   0.000000
     3  C    1.113149  -0.000000
     4  C   -0.661812   0.000000
     5  C    0.066123   0.000000
     6  C   -0.058941  -0.000000
     7  O   -0.748586  -0.000000
     8  O   -0.692618   0.000000
     9  N    0.041420   0.000000
    10  C    0.094918   0.000000
    11  C   -0.481110   0.000000
    12  C   -0.556947  -0.000000
    13  C   -0.558448  -0.000000
    14  C    0.560656   0.000000
    15  C   -0.515312  -0.000000
    16  C   -0.684990   0.000000
    17  C   -0.681026   0.000000
    18  H    0.139875  -0.000000
    19  H    0.134632   0.000000
    20  H    0.250650   0.000000
    21  H    0.143710  -0.000000
    22  H    0.144156   0.000000
    23  H    0.139211   0.000000
    24  H    0.153624   0.000000
    25  H    0.131419  -0.000000
    26  H    0.138010  -0.000000
    27  H    0.148709   0.000000
    28  H    0.147549   0.000000
    29  H    0.162353  -0.000000
    30  H    0.123629   0.000000
    31  H    0.157190   0.000000
    32  H    0.122862   0.000000
    33  H    0.115988   0.000000
    34  H    0.126701  -0.000000
    35  H    0.182328  -0.000000
    36  H    0.115449   0.000000
    37  H    0.181322  -0.000000
    38  H    0.125373  -0.000000
 Sum of Mulliken charges =  -2.00000  -0.00000

 Dipole moment (field-independent basis, Debye):
    X=              5.9689    Y=             12.2837    Z=            -20.8640  Tot=             24.9364
 Quadrupole moment (field-independent basis, Debye-Ang):
   XX=           -136.9217   YY=           -138.3758   ZZ=           -213.8883
   XY=            -13.7084   XZ=             28.8249   YZ=             42.1710

  Exact polarizability: 341.366 -30.200 249.664 -31.909 -22.596 312.351
 Approx polarizability: 344.430 -25.198 261.764 -30.321 -30.547 338.278

                      1                      2                      3
                      A                      A                      A
 Frequencies --     32.6999                53.7456                66.8682
 Red. masses --      2.9285                 3.6274                 3.4293
 Frc consts  --      0.0018                 0.0062                 0.0090
 IR Inten    --      3.2867                12.1690                 2.7061

                      4                      5                      6
                      A                      A                      A
 Frequencies --     95.4305               112.6659               174.1548
 Red. masses --      4.1487                 3.9789                 5.4199
 Frc consts  --      0.0223                 0.0298                 0.0969
 IR Inten    --     11.5087                 9.8660                16.4719

                      7                      8                      9
                      A                      A                      A
 Frequencies --    196.4991               219.6354               233.0168
 Red. masses --      2.9724                 1.2474                 1.6688
 Frc consts  --      0.0676                 0.0355                 0.0534
 IR Inten    --      8.2918                 0.1626                 3.1080

                     10                     11                     12
                      A                      A                      A
 Frequencies --    243.1659               246.6381               260.6242
 Red. masses --      2.5498                 1.5822                 1.9870
 Frc consts  --      0.0888                 0.0567                 0.0795
 IR Inten    --      1.0366                 0.5070                 6.1533

                     13                     14                     15
                      A                      A                      A
 Frequencies --    275.6351               279.9180               289.1572
 Red. masses --      1.2386                 1.4443                 1.2635
 Frc consts  --      0.0554                 0.0667                 0.0622
 IR Inten    --      0.8633                 2.5601                 1.1999

                     16                     17                     18
                      A                      A                      A
 Frequencies --    302.4471               310.4069               324.9527
 Red. masses --      2.0891                 2.9280                 1.4980
 Frc consts  --      0.1126                 0.1662                 0.0932
 IR Inten    --      5.2855                 1.8301                 8.8110

                     19                     20                     21
                      A                      A                      A
 Frequencies --    330.0852               357.9543               379.5927
 Red. masses --      1.6669                 2.4647                 2.7713
 Frc consts  --      0.1070                 0.1861                 0.2353
 IR Inten    --     15.2948                 0.2963                 0.9553

                     22                     23                     24
                      A                      A                      A
 Frequencies --    386.7139               414.1568               431.0904
 Red. masses --      2.4989                 2.6544                 2.8799
 Frc consts  --      0.2202                 0.2683                 0.3153
 IR Inten    --      0.6731                 5.7862                 3.0371

                     25                     26                     27
                      A                      A                      A
 Frequencies --    440.8576               458.8223               478.7189
 Red. masses --      3.5922                 2.5820                 3.6387
 Frc consts  --      0.4113                 0.3203                 0.4913
 IR Inten    --      5.3725                13.5666                 0.4851

                     28                     29                     30
                      A                      A                      A
 Frequencies --    496.9971               508.8609               562.9008
 Red. masses --      4.3261                 3.5964                 3.5591
 Frc consts  --      0.6296                 0.5487                 0.6644
 IR Inten    --      3.0721                 5.6164                 8.9435

                     31                     32                     33
                      A                      A                      A
 Frequencies --    645.7092               656.4695               704.5384
 Red. masses --      4.6922                 4.5618                 4.7593
 Frc consts  --      1.1527                 1.1583                 1.3919
 IR Inten    --      6.5630                19.0498                10.6320

                     34                     35                     36
                      A                      A                      A
 Frequencies --    735.4784               759.2831               770.1839
 Red. masses --      2.7631                 4.9643                 4.0299
 Frc consts  --      0.8806                 1.6862                 1.4084
 IR Inten    --      0.5790                28.8942                39.5762

                     37                     38                     39
                      A                      A                      A
 Frequencies --    808.7897               832.6452               838.8428
 Red. masses --      3.4308                 1.9827                 2.4082
 Frc consts  --      1.3223                 0.8099                 0.9984
 IR Inten    --     91.8776                32.5687               196.9543

                     40                     41                     42
                      A                      A                      A
 Frequencies --    856.6059               903.3358               908.0819
 Red. masses --      1.5460                 2.2415                 1.8151
 Frc consts  --      0.6684                 1.0777                 0.8819
 IR Inten    --     58.2799                67.8431                 3.4350

                     43                     44                     45
                      A                      A                      A
 Frequencies --    917.3768               919.0906               927.4946
 Red. masses --      1.9453                 1.7776                 1.7396
 Frc consts  --      0.9645                 0.8847                 0.8817
 IR Inten    --      3.0891                 1.0936                 8.2520

                     46                     47                     48
                      A                      A                      A
 Frequencies --    950.8299               954.9466               964.3708
 Red. masses --      1.2048                 1.2004                 1.4916
 Frc consts  --      0.6417                 0.6449                 0.8173
 IR Inten    --      0.7043                 0.5854                15.1645

                     49                     50                     51
                      A                      A                      A
 Frequencies --   1031.0924              1041.6630              1043.1591
 Red. masses --      1.4868                 1.4102                 1.3844
 Frc consts  --      0.9313                 0.9016                 0.8876
 IR Inten    --     47.3517                13.1331                 0.8433

                     52                     53                     54
                      A                      A                      A
 Frequencies --   1047.2579              1066.1234              1150.3660
 Red. masses --      1.5399                 2.2424                 4.2745
 Frc consts  --      0.9951                 1.5017                 3.3327
 IR Inten    --      5.7067                21.7166               543.9656

                     55                     56                     57
                      A                      A                      A
 Frequencies --   1186.9031              1205.7889              1208.5440
 Red. masses --      8.0747                 2.0625                 2.6965
 Frc consts  --      6.7021                 1.7668                 2.3204
 IR Inten    --    355.7586               113.4388                11.9622

                     58                     59                     60
                      A                      A                      A
 Frequencies --   1213.8581              1221.5819              1238.2483
 Red. masses --      2.3652                 2.4163                 2.5683
 Frc consts  --      2.0533                 2.1244                 2.3201
 IR Inten    --     15.4561               100.0828               192.0061

                     61                     62                     63
                      A                      A                      A
 Frequencies --   1244.9204              1264.2288              1269.8342
 Red. masses --      2.4260                 1.7068                 3.8308
 Frc consts  --      2.2153                 1.6072                 3.6395
 IR Inten    --    217.2713                11.8242               143.2041

                     64                     65                     66
                      A                      A                      A
 Frequencies --   1314.2132              1358.9575              1367.2043
 Red. masses --      7.1197                 1.2317                 1.6880
 Frc consts  --      7.2451                 1.3402                 1.8590
 IR Inten    --     74.9565                29.1795               356.7594

                     67                     68                     69
                      A                      A                      A
 Frequencies --   1381.2548              1383.6062              1386.6542
 Red. masses --      1.7996                 1.2813                 1.2536
 Frc consts  --      2.0229                 1.4452                 1.4202
 IR Inten    --    319.9243                58.9942                10.3266

                     70                     71                     72
                      A                      A                      A
 Frequencies --   1405.2537              1409.5551              1455.3485
 Red. masses --      1.4449                 1.2415                 2.1153
 Frc consts  --      1.6811                 1.4533                 2.6397
 IR Inten    --    145.9262                23.3430                58.8918

                     73                     74                     75
                      A                      A                      A
 Frequencies --   1463.7471              1469.7839              1473.3634
 Red. masses --      1.0483                 1.1540                 2.1129
 Frc consts  --      1.3233                 1.4688                 2.7024
 IR Inten    --      0.3866                43.5531               272.3056

                     76                     77                     78
                      A                      A                      A
 Frequencies --   1477.5845              1481.3736              1484.1576
 Red. masses --      1.0623                 1.0560                 1.0503
 Frc consts  --      1.3665                 1.3653                 1.3631
 IR Inten    --      6.1906                 5.9715                 2.7292

                     79                     80                     81
                      A                      A                      A
 Frequencies --   1485.0452              1487.2170              1491.5606
 Red. masses --      1.1191                 1.0661                 1.2211
 Frc consts  --      1.4542                 1.3894                 1.6006
 IR Inten    --     48.1290                12.4576                 2.5213

                     82                     83                     84
                      A                      A                      A
 Frequencies --   1493.7926              1502.5798              1507.3299
 Red. masses --      1.1121                 1.0539                 1.0564
 Frc consts  --      1.4621                 1.4020                 1.4141
 IR Inten    --     39.6583                 6.2131                14.2859

                     85                     86                     87
                      A                      A                      A
 Frequencies --   1519.6752              1551.6842              1610.1308
 Red. masses --      1.0547                 1.7996                 5.1265
 Frc consts  --      1.4351                 2.5530                 7.8306
 IR Inten    --      6.7702               186.2372                 5.3419

                     88                     89                     90
                      A                      A                      A
 Frequencies --   2986.8441              2992.2218              3009.0464
 Red. masses --      1.0396                 1.0397                 1.0358
 Frc consts  --      5.4642                 5.4848                 5.5255
 IR Inten    --     97.3271               162.6065               113.9468

                     91                     92                     93
                      A                      A                      A
 Frequencies --   3012.5578              3015.0306              3024.2842
 Red. masses --      1.0350                 1.0357                 1.0377
 Frc consts  --      5.5342                 5.5469                 5.5918
 IR Inten    --     52.1972                60.1633                52.0819

                     94                     95                     96
                      A                      A                      A
 Frequencies --   3043.2663              3046.2301              3063.7644
 Red. masses --      1.0988                 1.0979                 1.1000
 Frc consts  --      5.9960                 6.0025                 6.0835
 IR Inten    --     62.0141                96.7889               139.3016

                     97                     98                     99
                      A                      A                      A
 Frequencies --   3073.1764              3075.1863              3077.4426
 Red. masses --      1.1016                 1.1015                 1.1008
 Frc consts  --      6.1299                 6.1373                 6.1426
 IR Inten    --      7.8613                79.6621                71.4615

                    100                    101                    102
                      A                      A                      A
 Frequencies --   3079.3082              3089.7355              3092.4805
 Red. masses --      1.1011                 1.1015                 1.1010
 Frc consts  --      6.1516                 6.1958                 6.2039
 IR Inten    --     73.4081                97.8946                41.9968

                    103                    104                    105
                      A                      A                      A
 Frequencies --   3102.8058              3106.7140              3107.1967
 Red. masses --      1.0987                 1.0976                 1.0991
 Frc consts  --      6.2324                 6.2419                 6.2518
 IR Inten    --      3.4076                20.1696                60.1045

                    106                    107                    108
                      A                      A                      A
 Frequencies --   3141.3186              3150.4307              3415.2127
 Red. masses --      1.0855                 1.0867                 1.0722
 Frc consts  --      6.3111                 6.3545                 7.3683
 IR Inten    --    100.2953                43.4146                98.8040

 - Thermochemistry -
 -------------------
 Temperature   298.150 Kelvin.  Pressure   1.00000 Atm.
 Atom     1 has atomic number  6 and mass  12.00000

 Molecular mass:   235.15723 amu.
 Principal axes and moments of inertia in atomic units:
                           1         2         3
     Eigenvalues --  1858.686197233.588808199.78548
           X            0.89050   0.11831   0.43932
           Y           -0.33483  -0.48336   0.80886
           Z           -0.30805   0.86739   0.39082
 This molecule is an asymmetric top.
 Rotational symmetry number  1.
 Warning -- assumption of classical behavior for rotation
           may cause significant error
 Rotational temperatures (Kelvin)      0.04660     0.01197     0.01056
 Rotational constants (GHZ):           0.97098     0.24949     0.22010
 Zero-point vibrational energy     844069.4 (Joules/Mol)
                                  201.73742 (Kcal/Mol)
 Warning -- explicit consideration of  30 degrees of freedom as
           vibrations may cause significant error
 Vibrational temperatures:     47.05    77.33    96.21   137.30   162.10
          (Kelvin)            250.57   282.72   316.01   335.26   349.86
                              354.86   374.98   396.58   402.74   416.03
                              435.15   446.61   467.53   474.92   515.02
                              546.15   556.39   595.88   620.24   634.30
                              660.14   688.77   715.07   732.14   809.89
                              929.03   944.51  1013.67  1058.19  1092.44
                             1108.12  1163.67  1197.99  1206.91  1232.46
                             1299.70  1306.53  1319.90  1322.37  1334.46
                             1368.03  1373.96  1387.51  1483.51  1498.72
                             1500.87  1506.77  1533.91  1655.12  1707.69
                             1734.86  1738.83  1746.47  1757.58  1781.56
                             1791.16  1818.94  1827.01  1890.86  1955.24
                             1967.10  1987.32  1990.70  1995.09  2021.85
                             2028.04  2093.92  2106.01  2114.69  2119.84
                             2125.91  2131.37  2135.37  2136.65  2139.77
                             2146.02  2149.23  2161.88  2168.71  2186.47
                             2232.53  2316.62  4297.40  4305.14  4329.35
                             4334.40  4337.96  4351.27  4378.58  4382.85
                             4408.07  4421.62  4424.51  4427.75  4430.44
                             4445.44  4449.39  4464.25  4469.87  4470.56
                             4519.66  4532.77  4913.73

 Zero-point correction=                           0.321489 (Hartree/Particle)
 Thermal correction to Energy=                    0.339624
 Thermal correction to Enthalpy=                  0.340568
 Thermal correction to Gibbs Free Energy=         0.276980
 Sum of electronic and zero-point Energies=           -751.457325
 Sum of electronic and thermal Energies=              -751.439191
 Sum of electronic and thermal Enthalpies=            -751.438246
 Sum of electronic and thermal Free Energies=         -751.501834

                     E (Thermal)             CV                S
                      KCal/Mol        Cal/Mol-Kelvin    Cal/Mol-Kelvin
 Total                  213.117             71.755            133.831
 Electronic               0.000              0.000              0.000
 Translational            0.889              2.981             42.267
 Rotational               0.889              2.981             33.066
 Vibrational            211.340             65.793             58.498
 Vibration     1          0.594              1.983              5.659
 Vibration     2          0.596              1.976              4.675
 Vibration     3          0.598              1.970              4.243
 Vibration     4          0.603              1.952              3.546
 Vibration     5          0.607              1.939              3.222
 Vibration     6          0.627              1.874              2.390
 Vibration     7          0.636              1.845              2.166
 Vibration     8          0.647              1.811              1.962
 Vibration     9          0.654              1.790              1.856
 Vibration    10          0.659              1.774              1.780
 Vibration    11          0.661              1.768              1.754
 Vibration    12          0.669              1.745              1.658
 Vibration    13          0.677              1.718              1.561
 Vibration    14          0.680              1.711              1.534
 Vibration    15          0.686              1.694              1.479
 Vibration    16          0.694              1.669              1.403
 Vibration    17          0.699              1.654              1.360
 Vibration    18          0.709              1.626              1.285
 Vibration    19          0.713              1.615              1.260
 Vibration    20          0.733              1.559              1.131
 Vibration    21          0.750              1.514              1.041
 Vibration    22          0.755              1.499              1.013
 Vibration    23          0.778              1.439              0.912
 Vibration    24          0.792              1.403              0.855
 Vibration    25          0.801              1.381              0.824
 Vibration    26          0.817              1.341              0.770
 Vibration    27          0.835              1.297              0.714
 Vibration    28          0.853              1.257              0.666
 Vibration    29          0.864              1.230              0.636
 Vibration    30          0.919              1.112              0.518

 Optimization completed.
    -- Stationary point found.
 Normal termination of Gaussian 16 at Sat Feb 10 18:10:01 2024.
