 Q-Chem 5.4, Q-Chem, Inc., Pleasanton, CA (2021)
 Q-Chem 5.4.0 for Intel X86 EM64T Linux

User input:
--------------------------------------------------------------
$molecule
0 1
C                  6.7362830000      0.2424810000      0.5978930000
C                  5.2394750000      0.2865500000      0.4093080000
C                  4.6484880000      1.1724610000     -0.4978990000
C                  3.2734740000      1.1876930000     -0.7057890000
C                  2.4355850000      0.3207160000      0.0065920000
N                  1.0410130000      0.4224000000     -0.1839210000
C                  0.1174380000     -0.5893040000     -0.2418700000
C                  0.5335390000     -1.9311340000     -0.4122360000
C                 -0.3784060000     -2.9519510000     -0.4810920000
C                 -1.7623260000     -2.7187510000     -0.3841330000
O                 -2.6208260000     -3.7700920000     -0.4390100000
C                 -2.2288130000     -1.4049710000     -0.2459650000
C                 -3.6951970000     -1.1436260000     -0.1537050000
O                 -4.5287040000     -2.0329050000     -0.2144000000
C                 -4.1368840000      0.2700360000      0.0284630000
C                 -5.5036850000      0.5415320000      0.1563030000
C                 -5.9420360000      1.8481390000      0.3240610000
C                 -5.0184340000      2.8986120000      0.3610920000
C                 -3.6616460000      2.6374980000      0.2296420000
C                 -3.2127560000      1.3203360000      0.0657170000
C                 -1.7582680000      1.0638110000     -0.0773770000
O                 -0.9844920000      2.0327730000     -0.1031700000
C                 -1.2843760000     -0.3250040000     -0.1847460000
C                  3.0135760000     -0.5514390000      0.9374870000
C                  4.3929210000     -0.5688590000      1.1221220000
H                  7.0014500000     -0.1005740000      1.6007160000
H                  7.2046920000     -0.4433220000     -0.1169560000
H                  7.1863130000      1.2266850000      0.4475810000
H                  5.2737540000      1.8590350000     -1.0597960000
H                  2.8373620000      1.8736100000     -1.4236920000
H                  0.6254160000      1.3532830000     -0.2180830000
H                  1.5871590000     -2.1494700000     -0.5164620000
H                 -0.0271810000     -3.9702490000     -0.6261790000
H                 -2.1108910000     -4.5825380000     -0.5328750000
H                 -6.1981810000     -0.2883550000      0.1205720000
H                 -7.0016380000      2.0545110000      0.4253250000
H                 -5.3624830000      3.9184870000      0.4915640000
H                 -2.9294110000      3.4343830000      0.2510070000
H                  2.3828220000     -1.1933020000      1.5404820000
H                  4.8158730000     -1.2491810000      1.8546970000
$end
$rem
MAX_SCF_CYCLES=200
BASIS  =  6-311++G(d,p)
GUI  =  2
JOB_TYPE  =  SP
THRESH = 14
SCF_CONVERGENCE = 8
METHOD  =  B3LYP
SOLVENT_METHOD = COSMO
$end
$solvent
dielectric 37.219
opticaldielectric 1.43
$end

--------------------------------------------------------------

             Standard Nuclear Orientation (Angstroms)
    I     Atom           X                Y                Z
 ----------------------------------------------------------------
    1      C       7.2740695093     0.5100499994     0.3707800708
    2      C       5.7722947583     0.5125207459     0.2204236259
    3      C       5.1404217218     1.3144346272    -0.7360276628
    4      C       3.7604510782     1.2888375341    -0.9067308483
    5      C       2.9587850300     0.4650695384    -0.1067735866
    6      N       1.5579913119     0.5266506526    -0.2663061161
    7      C       0.6536068777    -0.5028583622    -0.2205476812
    8      C       1.0918580623    -1.8462157720    -0.2980017565
    9      C       0.1989966187    -2.8854493152    -0.2627276217
   10      C      -1.1863249166    -2.6702119915    -0.1462158524
   11      O      -2.0247982277    -3.7378280004    -0.0961139822
   12      C      -1.6752097224    -1.3582220723    -0.0973026185
   13      C      -3.1436348120    -1.1167708152     0.0146089476
   14      O      -3.9605148032    -2.0228477619     0.0456989545
   15      C      -3.6085864715     0.2986498025     0.0989728380
   16      C      -4.9767622694     0.5547701645     0.2428320168
   17      C      -5.4366159330     1.8624159648     0.3210194020
   18      C      -4.5335207319     2.9289429588     0.2514155081
   19      C      -3.1756534195     2.6827113732     0.1034301422
   20      C      -2.7049563178     1.3650311133     0.0295901592
   21      C      -1.2498347526     1.1242159829    -0.1330309164
   22      O      -0.4964864651     2.1019227107    -0.2548416161
   23      C      -0.7512525344    -0.2600402587    -0.1456508661
   24      C       3.5780084072    -0.3215215328     0.8725784119
   25      C       4.9617486234    -0.2998375355     1.0201554664
   26      H       7.5719375756     0.2508692309     1.3894822769
   27      H       7.7373899165    -0.2208076677    -0.3014721956
   28      H       7.7003131774     1.4874677757     0.1325595052
   29      H       5.7370809498     1.9662809114    -1.3662370362
   30      H       3.2922698451     1.9088977807    -1.6632968722
   31      H       1.1231466650     1.4444668704    -0.3609348204
   32      H       2.1465713140    -2.0531122013    -0.4138576863
   33      H       0.5666026283    -3.9055014512    -0.3382227644
   34      H      -1.5013492048    -4.5458596981    -0.1408212662
   35      H      -5.6552443278    -0.2876744715     0.2904026273
   36      H      -6.4971459043     2.0570490673     0.4350120943
   37      H      -4.8943649018     3.9495582027     0.3120264120
   38      H      -2.4591660766     3.4918167687     0.0430595522
   39      H       2.9760367817    -0.9256997436     1.5404410782
   40      H       5.4170455123    -0.9134144266     1.7912719882
 ----------------------------------------------------------------

   16   -1090.0002197385      4.19e-09  Convergence criterion met
 Total energy in the final basis set =    -1090.0002197385
   12   -1090.0250666389      4.45e-09  Convergence criterion met
 Total energy in the final basis set =    -1090.0250666389

                    Orbital Energies (a.u.)
 --------------------------------------------------------------

 Alpha MOs
 -- Occupied --
-19.1687 -19.1238 -19.1187 -14.3463 -10.2760 -10.2760 -10.2608 -10.2473
-10.2240 -10.2067 -10.2057 -10.2018 -10.2004 -10.2000 -10.1979 -10.1922
-10.1917 -10.1908 -10.1906 -10.1865 -10.1809 -10.1798 -10.1780 -10.1777
-10.1644  -1.0851  -1.0584  -1.0552  -0.9668  -0.8869  -0.8757  -0.8577
 -0.8097  -0.7860  -0.7727  -0.7701  -0.7565  -0.7490  -0.6935  -0.6865
 -0.6651  -0.6514  -0.6259  -0.6156  -0.5975  -0.5921  -0.5786  -0.5615
 -0.5423  -0.5302  -0.5092  -0.4948  -0.4846  -0.4822  -0.4760  -0.4704
 -0.4586  -0.4575  -0.4490  -0.4446  -0.4400  -0.4388  -0.4275  -0.4259
 -0.4219  -0.4179  -0.4148  -0.4048  -0.3960  -0.3855  -0.3816  -0.3743
 -0.3723  -0.3632  -0.3626  -0.3613  -0.3483  -0.3145  -0.2879  -0.2826
 -0.2739  -0.2734  -0.2663  -0.2648  -0.2542  -0.2065

          Ground-State Mulliken Net Atomic Charges

     Atom                 Charge (a.u.)
  ----------------------------------------
      1 C                    -0.601363
      2 C                     0.333352
      3 C                    -0.392947
      4 C                    -0.197420
      5 C                     0.007750
      6 N                     0.022679
      7 C                    -0.154212
      8 C                     0.028348
      9 C                    -0.305343
     10 C                    -0.328811
     11 O                    -0.232546
     12 C                     0.281316
     13 C                    -0.335633
     14 O                    -0.323026
     15 C                     0.233774
     16 C                     0.141787
     17 C                    -0.453160
     18 C                    -0.436487
     19 C                    -0.013713
     20 C                     0.269244
     21 C                    -0.298815
     22 O                    -0.331674
     23 C                     0.185465
     24 C                    -0.013115
     25 C                    -0.445861
     26 H                     0.160582
     27 H                     0.185738
     28 H                     0.159139
     29 H                     0.208067
     30 H                     0.204181
     31 H                     0.391002
     32 H                     0.239738
     33 H                     0.229889
     34 H                     0.324918
     35 H                     0.201794
     36 H                     0.219993
     37 H                     0.223659
     38 H                     0.192096
     39 H                     0.204647
     40 H                     0.214967
  ----------------------------------------
  Sum of atomic charges =     0.000000

                    Cartesian Multipole Moments
 -----------------------------------------------------------------
    Charge (ESU x 10^10)
                 0.0000
    Dipole Moment (Debye)
         X       5.3902      Y      -1.1944      Z       0.1314
       Tot       5.5225
    Quadrupole Moments (Debye-Ang)
        XX    -128.0441     XY     -24.3576     YY    -127.3425
        XZ      -1.2455     YZ      -1.3426     ZZ    -146.0615

 Total job time:  429.56s(wall), 3374.46s(cpu)
        *  Thank you very much for using Q-Chem.  Have a nice day.  *
