 Gaussian 16, Revision A.03,
 Gaussian 16:  ES64L-G16RevA.03 25-Dec-2016

 ----------------------------------------------------------------------
 #P UB3LYP/6-311++G(d,p) nosym opt freq SCRF=(PCM,Solvent=n,n-DiMethylF
 ormamide)
 ----------------------------------------------------------------------

 -------
 Radical
 -------
 Symbolic Z-matrix:
 Charge = -1 Multiplicity = 2

 SCF Done:  E(UB3LYP) =  -925.267401866     A.U. after   20 cycles
 SCF Done:  E(UB3LYP) =  -925.267664652     A.U. after   15 cycles
 SCF Done:  E(UB3LYP) =  -925.267703489     A.U. after   15 cycles
 SCF Done:  E(UB3LYP) =  -925.267721620     A.U. after   13 cycles
 SCF Done:  E(UB3LYP) =  -925.267731788     A.U. after   15 cycles
 SCF Done:  E(UB3LYP) =  -925.267735408     A.U. after   13 cycles
 SCF Done:  E(UB3LYP) =  -925.267736531     A.U. after   13 cycles
 SCF Done:  E(UB3LYP) =  -925.267736711     A.U. after   10 cycles
 SCF Done:  E(UB3LYP) =  -925.267736718     A.U. after   10 cycles
 SCF Done:  E(UB3LYP) =  -925.267736731     A.U. after   10 cycles
 Optimization completed.
    -- Stationary point found.
 Normal termination of Gaussian 16 at Sun Feb 11 04:00:56 2024.

 ----------------------------------------------------------------------
 #P Geom=AllCheck Guess=TCheck SCRF=Check GenChk UB3LYP/6-311++G(d,p) F
 req
 ----------------------------------------------------------------------

 Structure from the checkpoint file:  "286-rad.chk"
 -------
 Radical
 -------
 Charge = -1 Multiplicity = 2

                          Input orientation:
 ---------------------------------------------------------------------
 Center     Atomic      Atomic             Coordinates (Angstroms)
 Number     Number       Type             X           Y           Z
 ---------------------------------------------------------------------
      1          6           0       -0.250422    3.857176   -0.192062
      2          6           0       -1.485366    3.275954   -0.417489
      3          6           0       -1.569111    1.913742   -0.763412
      4          6           0        0.936970    3.101560   -0.303870
      5          6           0        0.855125    1.724055   -0.654626
      6          6           0       -0.413639    1.157516   -0.878143
      7          6           0        2.231185    3.707494   -0.066237
      8          6           0        3.386712    2.856870   -0.204988
      9          6           0        3.344969    1.517301   -0.539207
     10          6           0        2.067803    0.890926   -0.786007
     11          8           0        2.416309    4.930759    0.255534
     12          8           0        1.974398   -0.331305   -1.100188
     13          1           0       -0.172573    4.904484    0.075344
     14          1           0       -2.389433    3.868684   -0.327950
     15          1           0       -2.537389    1.457998   -0.939816
     16          1           0       -0.463764    0.108434   -1.144270
     17          8           0        4.573920    3.487486    0.031527
     18          6           0        4.609558    0.705891   -0.668634
     19          6           0        5.222124    0.738712   -2.083743
     20          6           0        6.500464   -0.097737   -2.205218
     21          6           0        7.116276   -0.075297   -3.608953
     22          6           0        8.397340   -0.908300   -3.732797
     23          1           0        4.301706    4.403047    0.250729
     24          1           0        4.384019   -0.331832   -0.407661
     25          1           0        5.353659    1.072466    0.045480
     26          1           0        5.438996    1.778042   -2.357170
     27          1           0        4.478777    0.376213   -2.802927
     28          1           0        6.281069   -1.135974   -1.923445
     29          1           0        7.240532    0.265653   -1.480036
     30          1           0        7.332498    0.963243   -3.891688
     31          1           0        6.376669   -0.441104   -4.333082
     32          1           0        8.181980   -1.946391   -3.447628
     33          1           0        9.138205   -0.540735   -3.010751
     34          6           0        9.009921   -0.888676   -5.137740
     35          1           0        9.224654    0.149248   -5.424505
     36          1           0        8.270002   -1.257727   -5.860184
     37          6           0       10.291947   -1.719799   -5.263143
     38          6           0       10.894734   -1.694936   -6.671082
     39          1           0       10.078269   -2.756789   -4.976329
     40          1           0       11.032320   -1.350445   -4.542943
     41          1           0       10.189712   -2.091251   -7.409032
     42          1           0       11.806900   -2.296060   -6.726534
     43          1           0       11.150179   -0.673964   -6.972845
 ---------------------------------------------------------------------

 SCF Done:  E(UB3LYP) =  -925.267736731     A.U. after    1 cycles

 Alpha  occ. eigenvalues --  -19.14334 -19.08414 -19.07220 -10.22211 -10.22077
 Alpha  occ. eigenvalues --  -10.21991 -10.17448 -10.17247 -10.17230 -10.17113
 Alpha  occ. eigenvalues --  -10.17081 -10.16940 -10.16214 -10.16033 -10.15773
 Alpha  occ. eigenvalues --  -10.15758 -10.15746 -10.15713 -10.15665 -10.15641
 Alpha  occ. eigenvalues --  -10.15416  -1.06220  -0.99495  -0.99296  -0.85799
 Alpha  occ. eigenvalues --   -0.81403  -0.80376  -0.78277  -0.75787  -0.75008
 Alpha  occ. eigenvalues --   -0.73110  -0.69729  -0.67032  -0.64396  -0.61850
 Alpha  occ. eigenvalues --   -0.60457  -0.58139  -0.57327  -0.57084  -0.56774
 Alpha  occ. eigenvalues --   -0.53575  -0.50454  -0.48403  -0.47896  -0.46357
 Alpha  occ. eigenvalues --   -0.45412  -0.45111  -0.43653  -0.43085  -0.42636
 Alpha  occ. eigenvalues --   -0.42447  -0.41524  -0.41446  -0.40636  -0.39803
 Alpha  occ. eigenvalues --   -0.38851  -0.38503  -0.38401  -0.37673  -0.36732
 Alpha  occ. eigenvalues --   -0.36067  -0.35224  -0.34870  -0.34333  -0.34196
 Alpha  occ. eigenvalues --   -0.33643  -0.32850  -0.32781  -0.32116  -0.31878
 Alpha  occ. eigenvalues --   -0.31705  -0.30343  -0.26628  -0.25759  -0.25701
 Alpha  occ. eigenvalues --   -0.23811  -0.22720  -0.15077
 Alpha virt. eigenvalues --   -0.03268  -0.00835  -0.00453  -0.00093   0.00588
 Alpha virt. eigenvalues --    0.00890   0.01090   0.01596   0.01839   0.02497
 Alpha virt. eigenvalues --    0.02794   0.03427   0.03891   0.04284   0.04607

  Beta  occ. eigenvalues --  -19.14285 -19.07778 -19.06677 -10.22076 -10.21975
  Beta  occ. eigenvalues --  -10.21707 -10.17432 -10.17225 -10.17138 -10.17037
  Beta  occ. eigenvalues --  -10.17030 -10.16959 -10.16135 -10.16033 -10.15773
  Beta  occ. eigenvalues --  -10.15764 -10.15746 -10.15713 -10.15659 -10.15637
  Beta  occ. eigenvalues --  -10.15416  -1.06013  -0.98542  -0.98210  -0.85566
  Beta  occ. eigenvalues --   -0.81237  -0.80235  -0.78154  -0.75653  -0.74802
  Beta  occ. eigenvalues --   -0.73028  -0.69547  -0.66352  -0.64220  -0.61687
  Beta  occ. eigenvalues --   -0.60293  -0.58026  -0.57323  -0.56998  -0.56593
  Beta  occ. eigenvalues --   -0.53402  -0.50227  -0.48269  -0.47747  -0.46235
  Beta  occ. eigenvalues --   -0.45347  -0.45027  -0.43193  -0.42611  -0.42570
  Beta  occ. eigenvalues --   -0.42387  -0.41125  -0.41064  -0.40360  -0.39612
  Beta  occ. eigenvalues --   -0.38464  -0.38342  -0.37709  -0.37427  -0.36295
  Beta  occ. eigenvalues --   -0.35541  -0.35178  -0.34245  -0.34104  -0.33530
  Beta  occ. eigenvalues --   -0.32900  -0.32784  -0.32529  -0.32102  -0.31863
  Beta  occ. eigenvalues --   -0.31655  -0.30267  -0.25197  -0.25000  -0.24640
  Beta  occ. eigenvalues --   -0.23298  -0.21785
  Beta virt. eigenvalues --   -0.08518  -0.02519  -0.00478  -0.00085   0.00261
  Beta virt. eigenvalues --    0.00624   0.00902   0.01097   0.01605   0.01845
  Beta virt. eigenvalues --    0.02510   0.02802   0.03444   0.03912   0.04291

 Mulliken charges and spin densities:
               1          2
     1  C    0.027970   0.072077
     2  C   -0.371574  -0.000741
     3  C   -0.437727   0.069249
     4  C    0.509481  -0.004104
     5  C   -0.091473   0.058508
     6  C    0.069391   0.003282
     7  C   -0.901384   0.163690
     8  C   -0.621773   0.061822
     9  C    2.001256   0.057014
    10  C   -0.733999   0.074405
    11  O   -0.528764   0.232391
    12  O   -0.465053   0.201269
    13  H    0.166182  -0.004077
    14  H    0.182507  -0.000615
    15  H    0.177978  -0.004968
    16  H    0.167714  -0.000414
    17  O   -0.278171   0.016348
    18  C   -0.367154   0.011463
    19  C   -0.713547  -0.002965
    20  C   -0.119015   0.001081
    21  C    0.024845  -0.003037
    22  C   -0.128434  -0.000613
    23  H    0.289618  -0.003606
    24  H    0.202805   0.001952
    25  H    0.210420  -0.000286
    26  H    0.168536   0.002518
    27  H    0.174588  -0.001603
    28  H    0.112161   0.000445
    29  H    0.113572  -0.000468
    30  H    0.124394  -0.000075
    31  H    0.122831  -0.000020
    32  H    0.128703  -0.000009
    33  H    0.127853  -0.000004
    34  C   -0.341193  -0.000012
    35  H    0.123608  -0.000005
    36  H    0.123603   0.000003
    37  C   -0.251053   0.000115
    38  C   -0.686514  -0.000007
    39  H    0.130713   0.000007
    40  H    0.130717  -0.000008
    41  H    0.139918   0.000001
    42  H    0.145578  -0.000002
    43  H    0.139886  -0.000002
 Sum of Mulliken charges =  -1.00000   1.00000

 Dipole moment (field-independent basis, Debye):
    X=            -11.2991    Y=            -10.3168    Z=              2.1964  Tot=             15.4573
 Quadrupole moment (field-independent basis, Debye-Ang):
   XX=           -161.2243   YY=           -183.5959   ZZ=           -139.2700
   XY=            -26.1944   XZ=              5.6689   YZ=             -2.1488

  Exact polarizability: 416.170 -12.916 387.071  -2.478  47.371 237.625
 Approx polarizability: 429.750   5.640 448.853  13.501  52.769 255.610

                      1                      2                      3
                      A                      A                      A
 Frequencies --     18.9714                25.9982                30.5147
 Red. masses --      5.1004                 5.0684                 1.5540
 Frc consts  --      0.0011                 0.0020                 0.0009
 IR Inten    --      0.2788                 0.8599                 0.0845

                      4                      5                      6
                      A                      A                      A
 Frequencies --     46.6626                65.5942                90.9357
 Red. masses --      3.8801                 4.5964                 2.3538
 Frc consts  --      0.0050                 0.0117                 0.0115
 IR Inten    --      1.5203                 5.1058                 2.6776

                      7                      8                      9
                      A                      A                      A
 Frequencies --     98.5685               105.1185               122.1060
 Red. masses --      2.5956                 3.1287                 4.7037
 Frc consts  --      0.0149                 0.0204                 0.0413
 IR Inten    --      3.7383                 1.8335                 1.0732

                     10                     11                     12
                      A                      A                      A
 Frequencies --    148.2116               153.2144               156.1865
 Red. masses --      1.7999                 5.3881                 2.2102
 Frc consts  --      0.0233                 0.0745                 0.0318
 IR Inten    --      0.0146                 0.4341                 0.1560

                     13                     14                     15
                      A                      A                      A
 Frequencies --    165.5656               182.3581               242.6169
 Red. masses --      3.8883                 7.1953                 1.1206
 Frc consts  --      0.0628                 0.1410                 0.0389
 IR Inten    --      0.2170                 2.0695                 0.0026

                     16                     17                     18
                      A                      A                      A
 Frequencies --    254.6652               259.1077               305.8228
 Red. masses --      4.3984                 4.4219                 2.8189
 Frc consts  --      0.1681                 0.1749                 0.1553
 IR Inten    --      3.6988                 1.4857                 5.4714

                     19                     20                     21
                      A                      A                      A
 Frequencies --    311.5141               332.7337               358.9441
 Red. masses --      3.7448                 4.8620                 5.1142
 Frc consts  --      0.2141                 0.3171                 0.3882
 IR Inten    --      2.1072                18.6317                17.8459

                     22                     23                     24
                      A                      A                      A
 Frequencies --    378.9564               412.5772               430.6851
 Red. masses --      9.4824                 4.8636                 9.1316
 Frc consts  --      0.8023                 0.4878                 0.9980
 IR Inten    --     22.5628                 3.4321                 3.2294

                     25                     26                     27
                      A                      A                      A
 Frequencies --    441.3701               457.2189               471.4234
 Red. masses --      4.1427                 3.2693                 4.2200
 Frc consts  --      0.4755                 0.4027                 0.5526
 IR Inten    --      2.1520                 1.7354                 4.5590

                     28                     29                     30
                      A                      A                      A
 Frequencies --    495.5535               533.3844               574.3867
 Red. masses --      4.6138                 6.6219                 5.3006
 Frc consts  --      0.6676                 1.1100                 1.0303
 IR Inten    --      3.0354                 1.4436                 3.2485

                     31                     32                     33
                      A                      A                      A
 Frequencies --    643.9045               657.1870               674.8672
 Red. masses --      6.1850                 1.1141                 5.7510
 Frc consts  --      1.5109                 0.2835                 1.5432
 IR Inten    --     33.0441               134.3858                 9.9943

                     34                     35                     36
                      A                      A                      A
 Frequencies --    697.3589               706.6989               713.5511
 Red. masses --      3.1145                 3.5756                 5.0252
 Frc consts  --      0.8924                 1.0521                 1.5075
 IR Inten    --      2.8606                66.6227                27.2039

                     37                     38                     39
                      A                      A                      A
 Frequencies --    727.9478               731.5673               748.9384
 Red. masses --      1.0807                 1.1397                 1.2198
 Frc consts  --      0.3374                 0.3594                 0.4031
 IR Inten    --     14.9580                 0.0041                 2.0858

                     40                     41                     42
                      A                      A                      A
 Frequencies --    763.1734               786.7460               789.7044
 Red. masses --      3.5367                 2.0023                 1.3353
 Frc consts  --      1.2136                 0.7302                 0.4906
 IR Inten    --     27.2828                27.3440                 3.5168

                     43                     44                     45
                      A                      A                      A
 Frequencies --    844.2647               882.0049               889.9903
 Red. masses --      1.6687                 1.3761                 1.8963
 Frc consts  --      0.7008                 0.6307                 0.8850
 IR Inten    --     12.0619                 0.0291                38.7888

                     46                     47                     48
                      A                      A                      A
 Frequencies --    893.6858               939.6824               952.4798
 Red. masses --      1.9765                 4.5770                 1.4759
 Frc consts  --      0.9301                 2.3812                 0.7889
 IR Inten    --      5.4613                33.9582                 9.2527

                     49                     50                     51
                      A                      A                      A
 Frequencies --    982.9380               987.0409               997.1931
 Red. masses --      1.3676                 4.4948                 1.2795
 Frc consts  --      0.7785                 2.5801                 0.7496
 IR Inten    --      3.0606                 5.9223                 0.0479

                     52                     53                     54
                      A                      A                      A
 Frequencies --   1003.5383              1022.5695              1037.9146
 Red. masses --      3.9229                 1.4342                 2.5200
 Frc consts  --      2.3277                 0.8836                 1.5995
 IR Inten    --     21.1366                 0.9361                37.4326

                     55                     56                     57
                      A                      A                      A
 Frequencies --   1042.6552              1052.5957              1056.8090
 Red. masses --      2.3172                 2.8748                 2.3258
 Frc consts  --      1.4842                 1.8766                 1.5305
 IR Inten    --      4.6220                 5.1024                90.5683

                     58                     59                     60
                      A                      A                      A
 Frequencies --   1062.6926              1066.9541              1109.6177
 Red. masses --      2.3458                 2.3148                 2.1420
 Frc consts  --      1.5608                 1.5526                 1.5539
 IR Inten    --      0.8220                 1.5992                 8.9493

                     61                     62                     63
                      A                      A                      A
 Frequencies --   1126.5405              1134.2344              1153.8699
 Red. masses --      1.7144                 2.6115                 1.3282
 Frc consts  --      1.2819                 1.9794                 1.0419
 IR Inten    --    129.0491                11.8274                 2.9901

                     64                     65                     66
                      A                      A                      A
 Frequencies --   1193.4170              1202.2910              1210.1686
 Red. masses --      2.5233                 2.0565                 1.8467
 Frc consts  --      2.1174                 1.7514                 1.5935
 IR Inten    --     33.9945                13.7731                36.0402

                     67                     68                     69
                      A                      A                      A
 Frequencies --   1235.6536              1245.9166              1260.0289
 Red. masses --      1.2597                 1.9647                 1.7957
 Frc consts  --      1.1333                 1.7969                 1.6798
 IR Inten    --      0.2572                14.9812               124.1878

                     70                     71                     72
                      A                      A                      A
 Frequencies --   1279.7622              1287.3209              1299.6003
 Red. masses --      1.4538                 1.7217                 1.4782
 Frc consts  --      1.4028                 1.6810                 1.4710
 IR Inten    --      6.7305                58.2395                36.2306

                     73                     74                     75
                      A                      A                      A
 Frequencies --   1319.1510              1323.5715              1325.2765
 Red. masses --      1.4261                 1.0981                 1.2077
 Frc consts  --      1.4622                 1.1334                 1.2497
 IR Inten    --    185.2569                 5.8462                 0.0817

                     76                     77                     78
                      A                      A                      A
 Frequencies --   1329.1451              1331.2273              1334.1225
 Red. masses --      1.4690                 1.0663                 1.1514
 Frc consts  --      1.5290                 1.1134                 1.2075
 IR Inten    --     57.8796                 0.2155                 0.4103

                     79                     80                     81
                      A                      A                      A
 Frequencies --   1350.1360              1359.2598              1377.9223
 Red. masses --      8.8328                 1.4461                 1.4895
 Frc consts  --      9.4864                 1.5742                 1.6663
 IR Inten    --     47.1363                 8.1266                 1.1080

                     82                     83                     84
                      A                      A                      A
 Frequencies --   1391.6509              1395.2346              1403.3105
 Red. masses --      1.5796                 1.6099                 1.2629
 Frc consts  --      1.8024                 1.8465                 1.4653
 IR Inten    --      1.1319                 0.8988                 2.3157

                     85                     86                     87
                      A                      A                      A
 Frequencies --   1423.0796              1454.7558              1458.8161
 Red. masses --      2.7789                 1.8930                 2.2263
 Frc consts  --      3.3157                 2.3604                 2.7914
 IR Inten    --    732.4036               373.0217                47.7209

                     88                     89                     90
                      A                      A                      A
 Frequencies --   1470.4802              1472.0863              1476.2798
 Red. masses --      1.0699                 1.0899                 1.3527
 Frc consts  --      1.3631                 1.3915                 1.7370
 IR Inten    --      0.4511                 7.6705                79.9502

                     91                     92                     93
                      A                      A                      A
 Frequencies --   1479.4998              1485.6440              1487.5861
 Red. masses --      1.4594                 1.1114                 1.0404
 Frc consts  --      1.8821                 1.4452                 1.3565
 IR Inten    --     52.1421                 5.3988                10.9597

                     94                     95                     96
                      A                      A                      A
 Frequencies --   1493.7032              1499.5658              1501.5251
 Red. masses --      1.1009                 3.8006                 1.1213
 Frc consts  --      1.4472                 5.0353                 1.4895
 IR Inten    --     12.6757               934.9868                33.1825

                     97                     98                     99
                      A                      A                      A
 Frequencies --   1506.9692              1529.2402              1571.7649
 Red. masses --      1.0988                 5.2185                 5.3528
 Frc consts  --      1.4702                 7.1903                 7.7913
 IR Inten    --     21.0740                19.8333                17.0279

                    100                    101                    102
                      A                      A                      A
 Frequencies --   1622.7325              1631.0797              2987.2537
 Red. masses --      5.9044                 6.5810                 1.0572
 Frc consts  --      9.1605                10.3156                 5.5585
 IR Inten    --      7.8745                 6.6173                 7.9995

                    103                    104                    105
                      A                      A                      A
 Frequencies --   2989.1895              2990.5707              2996.3919
 Red. masses --      1.0575                 1.0580                 1.0591
 Frc consts  --      5.5671                 5.5751                 5.6024
 IR Inten    --      0.0459                 0.9703               109.6319

                    106                    107                    108
                      A                      A                      A
 Frequencies --   3002.7184              3003.5753              3008.0814
 Red. masses --      1.0595                 1.0982                 1.0956
 Frc consts  --      5.6282                 5.8375                 5.8410
 IR Inten    --    182.2491                 0.0712                 8.8363

                    109                    110                    111
                      A                      A                      A
 Frequencies --   3009.4841              3012.9433              3018.3029
 Red. masses --      1.0629                 1.0355                 1.1027
 Frc consts  --      5.6718                 5.5383                 5.9186
 IR Inten    --     59.1920                59.0807                 2.0842

                    112                    113                    114
                      A                      A                      A
 Frequencies --   3028.4706              3030.9937              3040.5201
 Red. masses --      1.0654                 1.0990                 1.1046
 Frc consts  --      5.7571                 5.9484                 6.0166
 IR Inten    --    101.8066                16.9630                82.3379

                    115                    116                    117
                      A                      A                      A
 Frequencies --   3046.2938              3071.6063              3074.2644
 Red. masses --      1.1040                 1.1026                 1.1043
 Frc consts  --      6.0364                 6.1292                 6.1495
 IR Inten    --    231.0170               117.0861                72.6018

                    118                    119                    120
                      A                      A                      A
 Frequencies --   3076.4856              3158.4491              3172.0020
 Red. masses --      1.1011                 1.0858                 1.0897
 Frc consts  --      6.1404                 6.3818                 6.4601
 IR Inten    --     73.1820                 8.5500                19.1195

                    121                    122                    123
                      A                      A                      A
 Frequencies --   3185.4414              3190.6615              3534.4476
 Red. masses --      1.0927                 1.0943                 1.0639
 Frc consts  --      6.5324                 6.5636                 7.8304
 IR Inten    --     24.6751                34.6179               195.1282

 - Thermochemistry -
 -------------------
 Temperature   298.150 Kelvin.  Pressure   1.00000 Atm.
 Atom     1 has atomic number  6 and mass  12.00000

 Molecular mass:   286.15689 amu.
 Principal axes and moments of inertia in atomic units:
                           1         2         3
     Eigenvalues --  2467.61706********************
           X            0.82553   0.52947   0.19534
           Y           -0.36926   0.76852  -0.52252
           Z           -0.42678   0.35923   0.82995
 This molecule is an asymmetric top.
 Rotational symmetry number  1.
 Warning -- assumption of classical behavior for rotation
           may cause significant error
 Rotational temperatures (Kelvin)      0.03510     0.00430     0.00402
 Rotational constants (GHZ):           0.73137     0.08961     0.08382
 Zero-point vibrational energy     946240.2 (Joules/Mol)
                                  226.15683 (Kcal/Mol)
 Warning -- explicit consideration of  30 degrees of freedom as
           vibrations may cause significant error
 Vibrational temperatures:     27.30    37.41    43.90    67.14    94.38
          (Kelvin)            130.84   141.82   151.24   175.68   213.24
                              220.44   224.72   238.21   262.37   349.07
                              366.41   372.80   440.01   448.20   478.73
                              516.44   545.23   593.61   619.66   635.03
                              657.84   678.27   712.99   767.42   826.41
                              926.43   945.55   970.98  1003.34  1016.78
                             1026.64  1047.35  1052.56  1077.56  1098.04
                             1131.95  1136.21  1214.71  1269.01  1280.50
                             1285.81  1351.99  1370.41  1414.23  1420.13
                             1434.74  1443.87  1471.25  1493.33  1500.15
                             1514.45  1520.51  1528.98  1535.11  1596.49
                             1620.84  1631.91  1660.16  1717.06  1729.83
                             1741.16  1777.83  1792.60  1812.90  1841.29
                             1852.17  1869.83  1897.96  1904.32  1906.78
                             1912.34  1915.34  1919.50  1942.54  1955.67
                             1982.52  2002.28  2007.43  2019.05  2047.49
                             2093.07  2098.91  2115.69  2118.00  2124.04
                             2128.67  2137.51  2140.30  2149.11  2157.54
                             2160.36  2168.19  2200.24  2261.42  2334.75
                             2346.76  4297.99  4300.78  4302.76  4311.14
                             4320.24  4321.47  4327.96  4329.98  4334.95
                             4342.66  4357.29  4360.92  4374.63  4382.94
                             4419.36  4423.18  4426.38  4544.30  4563.80
                             4583.14  4590.65  5085.28

 Zero-point correction=                           0.360404 (Hartree/Particle)
 Thermal correction to Energy=                    0.381236
 Thermal correction to Enthalpy=                  0.382180
 Thermal correction to Gibbs Free Energy=         0.307554
 Sum of electronic and zero-point Energies=           -924.907333
 Sum of electronic and thermal Energies=              -924.886501
 Sum of electronic and thermal Enthalpies=            -924.885557
 Sum of electronic and thermal Free Energies=         -924.960183

                     E (Thermal)             CV                S
                      KCal/Mol        Cal/Mol-Kelvin    Cal/Mol-Kelvin
 Total                  239.229             78.533            157.064
 Electronic               0.000              0.000              1.377
 Translational            0.889              2.981             42.852
 Rotational               0.889              2.981             35.324
 Vibrational            237.452             72.571             77.511
 Vibration     1          0.593              1.986              6.739
 Vibration     2          0.593              1.985              6.113
 Vibration     3          0.594              1.984              5.796
 Vibration     4          0.595              1.979              4.954
 Vibration     5          0.597              1.971              4.281
 Vibration     6          0.602              1.956              3.640
 Vibration     7          0.604              1.950              3.482
 Vibration     8          0.605              1.945              3.357
 Vibration     9          0.610              1.931              3.067
 Vibration    10          0.618              1.905              2.695
 Vibration    11          0.619              1.899              2.632
 Vibration    12          0.620              1.896              2.595
 Vibration    13          0.624              1.885              2.485
 Vibration    14          0.630              1.864              2.304
 Vibration    15          0.659              1.775              1.784
 Vibration    16          0.665              1.755              1.698
 Vibration    17          0.668              1.747              1.668
 Vibration    18          0.696              1.663              1.385
 Vibration    19          0.700              1.652              1.354
 Vibration    20          0.715              1.610              1.247
 Vibration    21          0.734              1.557              1.127
 Vibration    22          0.749              1.515              1.043
 Vibration    23          0.776              1.443              0.918
 Vibration    24          0.792              1.403              0.856
 Vibration    25          0.801              1.380              0.822
 Vibration    26          0.815              1.345              0.774
 Vibration    27          0.828              1.313              0.734
 Vibration    28          0.851              1.260              0.669
 Vibration    29          0.888              1.176              0.580
 Vibration    30          0.931              1.087              0.496

 Optimization completed.
    -- Stationary point found.
 Normal termination of Gaussian 16 at Sun Feb 11 06:57:12 2024.
