 Q-Chem 5.4, Q-Chem, Inc., Pleasanton, CA (2021)
 Q-Chem 5.4.0 for Intel X86 EM64T Linux

User input:
--------------------------------------------------------------
$molecule
0 1
C                 -3.1850150000      1.4045140000      0.2465200000
C                 -2.4388040000      0.7149670000     -0.9119290000
C                 -1.1012210000      0.1558050000     -0.4914350000
C                 -0.9149170000     -1.1026640000     -0.0196900000
C                 -2.0058460000     -2.1226980000      0.1476660000
C                  0.4443660000     -1.5887480000      0.3740240000
O                  0.5936000000     -2.7346690000      0.7710680000
C                  1.5994190000     -0.6547990000      0.2727990000
C                  2.8768790000     -1.0827030000      0.6423690000
C                  3.9543630000     -0.2077150000      0.5507150000
C                  3.7616770000      1.0974080000      0.0899980000
C                  2.4917010000      1.5279680000     -0.2799630000
C                  1.4060150000      0.6533000000     -0.1897640000
C                  0.0467570000      1.1134230000     -0.5905640000
O                 -0.1324270000      2.2528660000     -0.9942060000
H                 -4.1373980000      1.8107940000     -0.1039590000
H                 -2.5958110000      2.2306630000      0.6500830000
H                 -3.3935050000      0.7044720000      1.0600600000
H                 -3.0598870000     -0.0779400000     -1.3323090000
H                 -2.2674570000      1.4481670000     -1.7017530000
H                 -1.9944540000     -2.5189080000      1.1660510000
H                 -2.9928480000     -1.7170520000     -0.0613090000
H                 -1.8279140000     -2.9798420000     -0.5087810000
H                  3.0030820000     -2.0982090000      0.9968980000
H                  4.9456870000     -0.5396500000      0.8377390000
H                  4.6037600000      1.7766010000      0.0201100000
H                  2.3202010000      2.5346490000     -0.6404400000
$end
$rem
MAX_SCF_CYCLES=200
BASIS  =  6-311++G(d,p)
GUI  =  2
JOB_TYPE  =  SP
METHOD  =  B3LYP
SOLVENT_METHOD = COSMO
$end
$solvent
dielectric 37.219
opticaldielectric 1.43
$end

--------------------------------------------------------------

             Standard Nuclear Orientation (Angstroms)
    I     Atom           X                Y                Z
 ----------------------------------------------------------------
    1      C      -3.5260361064     1.1815919235     0.9320713018
    2      C      -2.8805992056     0.8355979170    -0.4236607374
    3      C      -1.4997272008     0.2438567393    -0.2765535891
    4      C      -1.2477592010    -1.0840256566    -0.1572337705
    5      C      -2.3000270003    -2.1570260592    -0.1597014651
    6      C       0.1509074664    -1.5974864703    -0.0192910675
    7      O       0.3569577284    -2.7992918250     0.0598091334
    8      C       1.2747505713    -0.6217165323     0.0194951644
    9      C       2.5886763449    -1.0761869584     0.1560365979
   10      C       3.6372425280    -0.1630053440     0.1958426902
   11      C       3.3791481475     1.2069745011     0.0995275375
   12      C       2.0725884797     1.6644168898    -0.0373680106
   13      C       1.0157152298     0.7515753243    -0.0777817510
   14      C      -0.3831420208     1.2417050094    -0.2291336918
   15      O      -0.6195136741     2.4376787242    -0.3136288710
   16      H      -4.5142065843     1.6236110820     0.7801814847
   17      H      -2.9158856624     1.9034459486     1.4790537704
   18      H      -3.6445239338     0.2920066795     1.5565494375
   19      H      -3.5246498562     0.1488129533    -0.9756481658
   20      H      -2.7974229420     1.7497917508    -1.0136567787
   21      H      -2.1856166552    -2.7951561729     0.7200259818
   22      H      -3.3092855946    -1.7525168766    -0.1724131511
   23      H      -2.1699199007    -2.8141712442    -1.0248665625
   24      H       2.7655096516    -2.1421337291     0.2292343355
   25      H       4.6568842686    -0.5156187703     0.3020565598
   26      H       4.1988765198     1.9157320275     0.1311409368
   27      H       1.8502600594     2.7214734579    -0.1145951991
 ----------------------------------------------------------------

    9    -653.2414230359      3.03e-06  Convergence criterion met
 Total energy in the final basis set =     -653.2414230359
    5    -653.2539806575      2.40e-06  Convergence criterion met
 Total energy in the final basis set =     -653.2539806575

                    Orbital Energies (a.u.)
 --------------------------------------------------------------

 Alpha MOs
 -- Occupied --
-19.1335 -19.1334 -10.2815 -10.2811 -10.2127 -10.2096 -10.2050 -10.2045
-10.1953 -10.1952 -10.1947 -10.1944 -10.1763 -10.1711 -10.1627  -1.0680
 -1.0662  -0.8884  -0.8506  -0.7898  -0.7758  -0.7668  -0.7173  -0.6800
 -0.6537  -0.6248  -0.6003  -0.5816  -0.5496  -0.5175  -0.4998  -0.4754
 -0.4628  -0.4616  -0.4569  -0.4490  -0.4366  -0.4313  -0.4255  -0.4085
 -0.4070  -0.3957  -0.3864  -0.3786  -0.3743  -0.3674  -0.3583  -0.3461
 -0.2908  -0.2892  -0.2770  -0.2725  -0.2702

          Ground-State Mulliken Net Atomic Charges

     Atom                 Charge (a.u.)
  ----------------------------------------
      1 C                    -0.675295
      2 C                    -0.331754
      3 C                     0.738596
      4 C                     0.798137
      5 C                    -0.415251
      6 C                    -0.812314
      7 O                    -0.289871
      8 C                     0.693169
      9 C                     0.066607
     10 C                    -0.487465
     11 C                    -0.441389
     12 C                     0.009070
     13 C                     0.619852
     14 C                    -1.465448
     15 O                    -0.283457
     16 H                     0.156219
     17 H                     0.172751
     18 H                     0.153931
     19 H                     0.186148
     20 H                     0.196822
     21 H                     0.196906
     22 H                     0.153666
     23 H                     0.207948
     24 H                     0.199915
     25 H                     0.226236
     26 H                     0.228057
     27 H                     0.198212
  ----------------------------------------
  Sum of atomic charges =     0.000000

                    Cartesian Multipole Moments
 -----------------------------------------------------------------
    Charge (ESU x 10^10)
                 0.0000
    Dipole Moment (Debye)
         X       0.5805      Y       0.1544      Z       0.1396
       Tot       0.6167
    Quadrupole Moments (Debye-Ang)
        XX     -66.0724     XY       7.1057     YY    -103.4172
        XZ       1.3504     YZ       1.3700     ZZ     -89.6043

 Total job time:  44.62s(wall), 306.42s(cpu)
        *  Thank you very much for using Q-Chem.  Have a nice day.  *
