 Gaussian 16, Revision A.03,
 Gaussian 16:  ES64L-G16RevA.03 25-Dec-2016

 --------------------------------------
 #P UB3LYP/6-311++G(d,p) nosym opt freq
 --------------------------------------

 --------
 Oxidized
 --------
 Symbolic Z-matrix:
 Charge =  0 Multiplicity = 1

 SCF Done:  E(UB3LYP) =  -778.572688878     A.U. after   14 cycles
 SCF Done:  E(UB3LYP) =  -778.596447954     A.U. after   14 cycles
 SCF Done:  E(UB3LYP) =  -778.598969287     A.U. after   12 cycles
 SCF Done:  E(UB3LYP) =  -778.599096655     A.U. after   11 cycles
 SCF Done:  E(UB3LYP) =  -778.599106856     A.U. after   10 cycles
 Optimization completed.
    -- Stationary point found.
 Normal termination of Gaussian 16 at Sun Dec 17 20:53:41 2023.

 ----------------------------------------------------------------------
 #P Geom=AllCheck Guess=TCheck SCRF=Check GenChk UB3LYP/6-311++G(d,p) F
 req
 ----------------------------------------------------------------------

 Structure from the checkpoint file:  "028.chk"
 --------
 Oxidized
 --------
 Charge =  0 Multiplicity = 1

                          Input orientation:
 ---------------------------------------------------------------------
 Center     Atomic      Atomic             Coordinates (Angstroms)
 Number     Number       Type             X           Y           Z
 ---------------------------------------------------------------------
      1          9           0       -2.702695    0.521627   -0.015151
      2          6           0       -1.394724    0.320551   -0.008449
      3          6           0       -0.517492    1.334252   -0.017925
      4          9           0       -0.904273    2.599659   -0.034571
      5          6           0        0.955169    1.103574   -0.010323
      6          8           0        1.745486    2.016535   -0.018856
      7          6           0        1.394699   -0.320609    0.008450
      8          6           0        0.517522   -1.334212    0.017925
      9          9           0        0.904261   -2.599634    0.034570
     10          6           0       -0.955185   -1.103601    0.010323
     11          8           0       -1.745550   -2.016666    0.018857
     12          9           0        2.702782   -0.521476    0.015149
 ---------------------------------------------------------------------

 SCF Done:  E(UB3LYP) =  -778.599106856     A.U. after    1 cycles

 Alpha  occ. eigenvalues --  -24.75755 -24.75754 -24.75752 -24.75750 -19.18759
 Alpha  occ. eigenvalues --  -19.18758 -10.34128 -10.34126 -10.33782 -10.33779
 Alpha  occ. eigenvalues --  -10.33703 -10.33702  -1.31018  -1.30930  -1.29681
 Alpha  occ. eigenvalues --   -1.29605  -1.12163  -1.12011  -0.92055  -0.83937
 Alpha  occ. eigenvalues --   -0.76969  -0.70343  -0.69527  -0.64176  -0.62136
 Alpha  occ. eigenvalues --   -0.61659  -0.60237  -0.56855  -0.56685  -0.54808
 Alpha  occ. eigenvalues --   -0.52508  -0.52058  -0.51602  -0.50702  -0.48825
 Alpha  occ. eigenvalues --   -0.46653  -0.46488  -0.45708  -0.45368  -0.45331
 Alpha  occ. eigenvalues --   -0.34227  -0.33667  -0.33597  -0.31745
 Alpha virt. eigenvalues --   -0.17483  -0.05162  -0.04809  -0.04114  -0.00055
 Alpha virt. eigenvalues --    0.02013   0.02924   0.03363   0.05218   0.05739
 Alpha virt. eigenvalues --    0.07052   0.07218   0.07253   0.08072   0.08496

  Beta  occ. eigenvalues --  -24.75755 -24.75754 -24.75752 -24.75750 -19.18759
  Beta  occ. eigenvalues --  -19.18758 -10.34128 -10.34126 -10.33782 -10.33779
  Beta  occ. eigenvalues --  -10.33703 -10.33702  -1.31018  -1.30930  -1.29681
  Beta  occ. eigenvalues --   -1.29605  -1.12163  -1.12011  -0.92055  -0.83937
  Beta  occ. eigenvalues --   -0.76969  -0.70343  -0.69527  -0.64176  -0.62136
  Beta  occ. eigenvalues --   -0.61659  -0.60237  -0.56855  -0.56685  -0.54808
  Beta  occ. eigenvalues --   -0.52508  -0.52058  -0.51602  -0.50702  -0.48825
  Beta  occ. eigenvalues --   -0.46653  -0.46488  -0.45708  -0.45368  -0.45331
  Beta  occ. eigenvalues --   -0.34227  -0.33667  -0.33597  -0.31745
  Beta virt. eigenvalues --   -0.17483  -0.05162  -0.04809  -0.04114  -0.00055
  Beta virt. eigenvalues --    0.02013   0.02924   0.03363   0.05218   0.05739
  Beta virt. eigenvalues --    0.07052   0.07218   0.07253   0.08072   0.08496

 Mulliken charges and spin densities:
               1          2
     1  F   -0.159641  -0.000000
     2  C    0.193485   0.000000
     3  C    0.193377  -0.000000
     4  F   -0.159648   0.000000
     5  C    0.144735   0.000000
     6  O   -0.212121  -0.000000
     7  C    0.193162  -0.000000
     8  C    0.193729   0.000000
     9  F   -0.159663   0.000000
    10  C    0.144403  -0.000000
    11  O   -0.212135   0.000000
    12  F   -0.159682   0.000000
 Sum of Mulliken charges =   0.00000   0.00000

 Dipole moment (field-independent basis, Debye):
    X=             -0.0002    Y=              0.0005    Z=             -0.0000  Tot=              0.0006
 Quadrupole moment (field-independent basis, Debye-Ang):
   XX=            -74.1074   YY=            -75.6519   ZZ=            -60.0160
   XY=             -5.3542   XZ=              0.0193   YZ=              0.1728

  Exact polarizability:  93.470  23.506 100.276  -0.107  -0.677  38.351
 Approx polarizability: 167.084  78.894 189.949  -0.602  -1.358  57.202

                      1                      2                      3
                      A                      A                      A
 Frequencies --     82.5959               111.4964               115.2270
 Red. masses --     16.3589                18.2045                16.9986
 Frc consts  --      0.0658                 0.1333                 0.1330
 IR Inten    --      2.1722                 0.0000                 0.0000

                      4                      5                      6
                      A                      A                      A
 Frequencies --    214.8248               273.0952               287.9958
 Red. masses --     13.8439                18.2863                16.3820
 Frc consts  --      0.3764                 0.8035                 0.8006
 IR Inten    --     17.8632                 0.0000                 0.0000

                      7                      8                      9
                      A                      A                      A
 Frequencies --    294.6979               307.2907               350.4436
 Red. masses --     18.4590                17.3024                12.7056
 Frc consts  --      0.9445                 0.9626                 0.9194
 IR Inten    --      0.2810                 3.8115                 0.0000

                     10                     11                     12
                      A                      A                      A
 Frequencies --    367.9051               403.1674               421.2701
 Red. masses --     16.0123                15.8066                15.3881
 Frc consts  --      1.2770                 1.5138                 1.6090
 IR Inten    --      7.9378                 0.0000                 0.0000

                     13                     14                     15
                      A                      A                      A
 Frequencies --    472.0582               539.8194               603.1916
 Red. masses --     12.7533                15.2648                12.3399
 Frc consts  --      1.6744                 2.6208                 2.6453
 IR Inten    --      0.0000                 0.0000                 0.0000

                     16                     17                     18
                      A                      A                      A
 Frequencies --    621.6234               666.7497               750.6248
 Red. masses --     16.0701                12.2175                12.2269
 Frc consts  --      3.6587                 3.2001                 4.0589
 IR Inten    --      8.3527                 0.0000                 4.7392

                     19                     20                     21
                      A                      A                      A
 Frequencies --    816.0081              1001.2823              1046.2773
 Red. masses --     12.6446                13.9525                12.9296
 Frc consts  --      4.9607                 8.2417                 8.3393
 IR Inten    --      0.0000               366.5246                10.8074

                     22                     23                     24
                      A                      A                      A
 Frequencies --   1108.5315              1255.7156              1322.7132
 Red. masses --     13.6573                13.3989                12.7829
 Frc consts  --      9.8880                12.4480                13.1768
 IR Inten    --      0.0001                 0.0003               451.5052

                     25                     26                     27
                      A                      A                      A
 Frequencies --   1336.1046              1355.2994              1699.3419
 Red. masses --     12.4305                12.2900                12.1398
 Frc consts  --     13.0743                13.3006                20.6548
 IR Inten    --      1.8105                 0.0035               312.7526

                     28                     29                     30
                      A                      A                      A
 Frequencies --   1745.5114              1760.3010              1767.8297
 Red. masses --     12.2497                13.2400                13.0995
 Frc consts  --     21.9898                24.1720                24.1204
 IR Inten    --      0.0609               491.4471                 0.6850

 - Thermochemistry -
 -------------------
 Temperature   298.150 Kelvin.  Pressure   1.00000 Atm.
 Atom     1 has atomic number  9 and mass  18.99840

 Molecular mass:   179.98344 amu.
 Principal axes and moments of inertia in atomic units:
                           1         2         3
     Eigenvalues --  1584.720471817.864123402.58459
           X            0.75631   0.65421  -0.00326
           Y           -0.65414   0.75628   0.01217
           Z            0.01042  -0.00707   0.99992
 This molecule is an asymmetric top.
 Rotational symmetry number  1.
 Warning -- assumption of classical behavior for rotation
           may cause significant error
 Rotational temperatures (Kelvin)      0.05466     0.04765     0.02546
 Rotational constants (GHZ):           1.13884     0.99278     0.53040
 Zero-point vibrational energy     138162.7 (Joules/Mol)
                                   33.02167 (Kcal/Mol)
 Warning -- explicit consideration of  15 degrees of freedom as
           vibrations may cause significant error
 Vibrational temperatures:    118.84   160.42   165.79   309.09   392.92
          (Kelvin)            414.36   424.00   442.12   504.21   529.33
                              580.07   606.11   679.19   776.68   867.86
                              894.38   959.30  1079.98  1174.05  1440.62
                             1505.36  1594.93  1806.69  1903.09  1922.36
                             1949.97  2444.97  2511.40  2532.68  2543.51

 Zero-point correction=                           0.052623 (Hartree/Particle)
 Thermal correction to Energy=                    0.062391
 Thermal correction to Enthalpy=                  0.063336
 Thermal correction to Gibbs Free Energy=         0.016934
 Sum of electronic and zero-point Energies=           -778.546483
 Sum of electronic and thermal Energies=              -778.536715
 Sum of electronic and thermal Enthalpies=            -778.535771
 Sum of electronic and thermal Free Energies=         -778.582173

                     E (Thermal)             CV                S
                      KCal/Mol        Cal/Mol-Kelvin    Cal/Mol-Kelvin
 Total                   39.151             34.786             97.661
 Electronic               0.000              0.000              0.000
 Translational            0.889              2.981             41.470
 Rotational               0.889              2.981             30.662
 Vibrational             37.374             28.825             25.530
 Vibration     1          0.600              1.961              3.828
 Vibration     2          0.607              1.940              3.243
 Vibration     3          0.608              1.937              3.179
 Vibration     4          0.645              1.818              2.002
 Vibration     5          0.676              1.723              1.577
 Vibration     6          0.685              1.696              1.486
 Vibration     7          0.689              1.684              1.447
 Vibration     8          0.697              1.660              1.377
 Vibration     9          0.727              1.574              1.164
 Vibration    10          0.741              1.538              1.089
 Vibration    11          0.769              1.463              0.951
 Vibration    12          0.784              1.424              0.888
 Vibration    13          0.829              1.312              0.732
 Vibration    14          0.895              1.162              0.566
 Vibration    15          0.962              1.025              0.444

 Optimization completed.
    -- Stationary point found.
 Normal termination of Gaussian 16 at Sun Dec 17 20:57:11 2023.
