 Gaussian 16, Revision A.03,
 Gaussian 16:  ES64L-G16RevA.03 25-Dec-2016

 ----------------------------------------------------------------
 #P UB3LYP/6-311++G(d,p) SCRF=(PCM,Solvent=n,n-DiMethylFormamide)
 ----------------------------------------------------------------

 ------------------
 Radical PCM in DMF
 ------------------
 Symbolic Z-matrix:
 Charge = -1 Multiplicity = 2

                         Standard orientation:
 ---------------------------------------------------------------------
 Center     Atomic      Atomic             Coordinates (Angstroms)
 Number     Number       Type             X           Y           Z
 ---------------------------------------------------------------------
      1          8           0        2.012428    2.873919    0.000783
      2          6           0        1.426488    1.760919    0.000281
      3          6           0        0.021361    1.572106   -0.000098
      4          6           0       -0.606945    0.327941   -0.000470
      5          8           0        0.178791   -0.829921   -0.000626
      6          6           0        1.538077   -0.740498   -0.000355
      7          6           0        2.246868   -1.944859   -0.000639
      8          6           0        3.643260   -1.922810   -0.000335
      9          6           0        4.326163   -0.705767    0.000269
     10          6           0        3.607419    0.489940    0.000506
     11          6           0        2.207043    0.494298    0.000147
     12          6           0       -2.007897    0.052467   -0.000390
     13          6           0       -2.984744    1.095889   -0.001115
     14          6           0       -4.339791    0.817242   -0.000611
     15          6           0       -4.815147   -0.504846    0.000597
     16          6           0       -3.872271   -1.544272    0.001180
     17          6           0       -2.511688   -1.284264    0.000641
     18          1           0       -0.591189    2.464124    0.000161
     19          1           0        1.694378   -2.877538   -0.001095
     20          1           0        4.192174   -2.859373   -0.000569
     21          1           0        5.411508   -0.690270    0.000560
     22          1           0        4.100419    1.455399    0.000978
     23          1           0       -2.662676    2.130004   -0.002074
     24          1           0       -5.046282    1.643040   -0.001197
     25          1           0       -5.878954   -0.715120    0.001016
     26          1           0       -4.210517   -2.577237    0.002089
     27          1           0       -1.807786   -2.105940    0.001215
 ---------------------------------------------------------------------

 SCF Done:  E(UB3LYP) =  -728.368618248     A.U. after   20 cycles

 The electronic state is 2-A.
 Alpha  occ. eigenvalues --  -19.16789 -19.05810 -10.23839 -10.22244 -10.21409
 Alpha  occ. eigenvalues --  -10.17557 -10.17433 -10.17303 -10.17096 -10.16919
 Alpha  occ. eigenvalues --  -10.16863 -10.16571 -10.16517 -10.16367 -10.16091
 Alpha  occ. eigenvalues --  -10.15897 -10.14775  -1.08736  -0.98500  -0.85914
 Alpha  occ. eigenvalues --   -0.84660  -0.79328  -0.76598  -0.74422  -0.73678
 Alpha  occ. eigenvalues --   -0.72486  -0.65425  -0.63136  -0.60074  -0.58997
 Alpha  occ. eigenvalues --   -0.57740  -0.53231  -0.52190  -0.51421  -0.47915
 Alpha  occ. eigenvalues --   -0.46057  -0.45611  -0.45302  -0.43612  -0.42876
 Alpha  occ. eigenvalues --   -0.42101  -0.41426  -0.40290  -0.39821  -0.37890
 Alpha  occ. eigenvalues --   -0.37585  -0.36865  -0.35766  -0.35033  -0.34994
 Alpha  occ. eigenvalues --   -0.33812  -0.32105  -0.29042  -0.25625  -0.25507
 Alpha  occ. eigenvalues --   -0.23653  -0.23077  -0.22242  -0.10995
 Alpha virt. eigenvalues --   -0.03149  -0.01000  -0.00428  -0.00237   0.00325
 Alpha virt. eigenvalues --    0.01108   0.01776   0.02166   0.02435   0.03646
 Alpha virt. eigenvalues --    0.03856   0.04130   0.04463   0.05712   0.05928

  Beta  occ. eigenvalues --  -19.16633 -19.05472 -10.23845 -10.21754 -10.21200
  Beta  occ. eigenvalues --  -10.17510 -10.17452 -10.17348 -10.17045 -10.16900
  Beta  occ. eigenvalues --  -10.16794 -10.16660 -10.16609 -10.16174 -10.15893
  Beta  occ. eigenvalues --  -10.15613 -10.14792  -1.08400  -0.97879  -0.85724
  Beta  occ. eigenvalues --   -0.84413  -0.78813  -0.76372  -0.74228  -0.73462
  Beta  occ. eigenvalues --   -0.72210  -0.64911  -0.62931  -0.59858  -0.58867
  Beta  occ. eigenvalues --   -0.57462  -0.52983  -0.52032  -0.51242  -0.47739
  Beta  occ. eigenvalues --   -0.45979  -0.45402  -0.44396  -0.43522  -0.42786
  Beta  occ. eigenvalues --   -0.41984  -0.41355  -0.40131  -0.39513  -0.37486
  Beta  occ. eigenvalues --   -0.36956  -0.35737  -0.35693  -0.34840  -0.34224
  Beta  occ. eigenvalues --   -0.33728  -0.32008  -0.27715  -0.25049  -0.24812
  Beta  occ. eigenvalues --   -0.22998  -0.22779  -0.20863
  Beta virt. eigenvalues --   -0.05437  -0.02411  -0.00594  -0.00421   0.00117
  Beta virt. eigenvalues --    0.00321   0.01104   0.01781   0.02157   0.03649
  Beta virt. eigenvalues --    0.03852   0.04140   0.04152   0.04546   0.05722

 Mulliken charges and spin densities:
               1          2
     1  O   -0.555656   0.122617
     2  C   -0.762402   0.160351
     3  C   -0.525686  -0.016008
     4  C    0.547446   0.271228
     5  O   -0.050665   0.034289
     6  C   -1.610719  -0.020002
     7  C   -0.344850   0.029876
     8  C   -0.475249   0.035340
     9  C   -0.192487   0.004493
    10  C    0.296050   0.075853
    11  C    1.993769  -0.019783
    12  C    1.030039  -0.061307
    13  C   -0.599085   0.159519
    14  C   -0.575157  -0.067345
    15  C   -0.416618   0.226117
    16  C   -0.405870  -0.071396
    17  C   -0.028991   0.175732
    18  H    0.180924   0.001220
    19  H    0.177028  -0.003131
    20  H    0.188484  -0.002580
    21  H    0.175918  -0.000398
    22  H    0.172448  -0.006496
    23  H    0.093764  -0.009895
    24  H    0.190121   0.003766
    25  H    0.153554  -0.015573
    26  H    0.185202   0.004023
    27  H    0.158688  -0.010513
 Sum of Mulliken charges =  -1.00000   1.00000

 Dipole moment (field-independent basis, Debye):
    X=             -2.2409    Y=             -7.3750    Z=             -0.0012  Tot=              7.7079
 Quadrupole moment (field-independent basis, Debye-Ang):
   XX=           -123.2712   YY=           -121.4575   ZZ=           -109.5541
   XY=            -18.8223   XZ=             -0.0048   YZ=             -0.0109

 Normal termination of Gaussian 16 at Sat Jan 13 19:21:22 2024.
