 Gaussian 16, Revision A.03,
 Gaussian 16:  ES64L-G16RevA.03 25-Dec-2016

 --------------------------------------
 #P UB3LYP/6-311++G(d,p) nosym opt freq
 --------------------------------------

 -------
 Radical
 -------
 Symbolic Z-matrix:
 Charge = -1 Multiplicity = 2

 SCF Done:  E(UB3LYP) =  -728.294651536     A.U. after   23 cycles
 Optimization completed.
    -- Stationary point found.
 Normal termination of Gaussian 16 at Tue Jan  9 20:35:14 2024.

 ----------------------------------------------------------------------
 #P Geom=AllCheck Guess=TCheck SCRF=Check GenChk UB3LYP/6-311++G(d,p) F
 req
 ----------------------------------------------------------------------

 Structure from the checkpoint file:  "345-rad.chk"
 -------
 Radical
 -------
 Charge = -1 Multiplicity = 2

                          Input orientation:
 ---------------------------------------------------------------------
 Center     Atomic      Atomic             Coordinates (Angstroms)
 Number     Number       Type             X           Y           Z
 ---------------------------------------------------------------------
      1          8           0        1.979088   -3.074681    0.856572
      2          6           0        1.469279   -1.957262    0.585343
      3          6           0        0.080276   -1.688320    0.493829
      4          6           0       -0.462989   -0.440879    0.191388
      5          8           0        0.398518    0.636742   -0.042202
      6          6           0        1.748460    0.467204    0.025380
      7          6           0        2.536330    1.594720   -0.221276
      8          6           0        3.927809    1.488401   -0.167629
      9          6           0        4.527362    0.263951    0.130380
     10          6           0        3.730144   -0.854539    0.374780
     11          6           0        2.332917   -0.773630    0.327007
     12          6           0       -1.842001   -0.088069    0.080017
     13          6           0       -2.886485   -1.042659    0.281937
     14          6           0       -4.219484   -0.689650    0.171047
     15          6           0       -4.604914    0.623873   -0.145154
     16          6           0       -3.594588    1.576674   -0.347225
     17          6           0       -2.254817    1.241452   -0.240313
     18          1           0       -0.590627   -2.518113    0.673399
     19          1           0        2.047787    2.534845   -0.450684
     20          1           0        4.538223    2.365347   -0.359507
     21          1           0        5.609000    0.182897    0.171653
     22          1           0        4.157143   -1.822911    0.609484
     23          1           0       -2.634634   -2.067049    0.527534
     24          1           0       -4.979670   -1.449187    0.333201
     25          1           0       -5.651980    0.892759   -0.230318
     26          1           0       -3.862656    2.600941   -0.593080
     27          1           0       -1.497490    1.997143   -0.401616
 ---------------------------------------------------------------------

 SCF Done:  E(UB3LYP) =  -728.294651536     A.U. after    2 cycles

 Alpha  occ. eigenvalues --  -19.05007 -18.92766 -10.12423 -10.10289 -10.08903
 Alpha  occ. eigenvalues --  -10.06913 -10.06142 -10.06119 -10.05677 -10.05636
 Alpha  occ. eigenvalues --  -10.05573 -10.05500 -10.05495 -10.04998 -10.04811
 Alpha  occ. eigenvalues --  -10.04703 -10.02559  -0.96891  -0.85333  -0.74563
 Alpha  occ. eigenvalues --   -0.73272  -0.67552  -0.65123  -0.63138  -0.62456
 Alpha  occ. eigenvalues --   -0.60940  -0.53947  -0.51695  -0.48809  -0.47824
 Alpha  occ. eigenvalues --   -0.46224  -0.41745  -0.40970  -0.39947  -0.36671
 Alpha  occ. eigenvalues --   -0.34942  -0.34425  -0.33312  -0.32352  -0.31644
 Alpha  occ. eigenvalues --   -0.30883  -0.30355  -0.28936  -0.26818  -0.26360
 Alpha  occ. eigenvalues --   -0.26043  -0.24513  -0.24482  -0.23903  -0.23270
 Alpha  occ. eigenvalues --   -0.22518  -0.20557  -0.17368  -0.14124  -0.14041
 Alpha  occ. eigenvalues --   -0.12154  -0.09974  -0.09807   0.01101
 Alpha virt. eigenvalues --    0.07647   0.07898   0.08263   0.09181   0.09732
 Alpha virt. eigenvalues --    0.10202   0.10388   0.10948   0.11760   0.12353
 Alpha virt. eigenvalues --    0.13473   0.14001   0.14377   0.14776   0.15748

  Beta  occ. eigenvalues --  -19.04892 -18.92395 -10.12439 -10.09881 -10.08761
  Beta  occ. eigenvalues --  -10.06872 -10.06117 -10.06076 -10.05672 -10.05655
  Beta  occ. eigenvalues --  -10.05638 -10.05574 -10.05413 -10.04816 -10.04524
  Beta  occ. eigenvalues --  -10.04516 -10.02523  -0.96632  -0.84684  -0.74395
  Beta  occ. eigenvalues --   -0.73002  -0.67055  -0.64923  -0.62927  -0.62237
  Beta  occ. eigenvalues --   -0.60615  -0.53453  -0.51523  -0.48561  -0.47693
  Beta  occ. eigenvalues --   -0.45975  -0.41530  -0.40825  -0.39751  -0.36499
  Beta  occ. eigenvalues --   -0.34865  -0.34222  -0.32591  -0.32263  -0.31544
  Beta  occ. eigenvalues --   -0.30752  -0.30295  -0.28826  -0.26470  -0.26258
  Beta  occ. eigenvalues --   -0.25271  -0.24396  -0.23702  -0.23678  -0.22420
  Beta  occ. eigenvalues --   -0.22181  -0.20446  -0.16099  -0.13465  -0.13376
  Beta  occ. eigenvalues --   -0.11480  -0.09467  -0.08361
  Beta virt. eigenvalues --    0.06385   0.07634   0.07880   0.09039   0.09151
  Beta virt. eigenvalues --    0.09709   0.10383   0.10599   0.11285   0.11746
  Beta virt. eigenvalues --    0.12336   0.13460   0.14384   0.14820   0.15634

 Mulliken charges and spin densities:
               1          2
     1  O   -0.428611   0.137723
     2  C   -0.955878   0.113802
     3  C   -0.493664   0.028641
     4  C    0.610737   0.212421
     5  O   -0.020731   0.024973
     6  C   -1.704431  -0.026777
     7  C   -0.356987   0.042517
     8  C   -0.427031   0.032804
     9  C   -0.123223   0.002704
    10  C    0.259974   0.082310
    11  C    2.167149  -0.016405
    12  C    1.166651  -0.029821
    13  C   -0.629678   0.156680
    14  C   -0.576405  -0.058086
    15  C   -0.383222   0.236998
    16  C   -0.373010  -0.058559
    17  C   -0.004354   0.163103
    18  H    0.163607  -0.001286
    19  H    0.132553  -0.004099
    20  H    0.131136  -0.002475
    21  H    0.121763  -0.000239
    22  H    0.172145  -0.007327
    23  H    0.051646  -0.009691
    24  H    0.139474   0.003544
    25  H    0.098128  -0.017349
    26  H    0.134153   0.003384
    27  H    0.128108  -0.009491
 Sum of Mulliken charges =  -1.00000   1.00000

 Dipole moment (field-independent basis, Debye):
    X=             -1.2326    Y=              5.5000    Z=             -1.7786  Tot=              5.9104
 Quadrupole moment (field-independent basis, Debye-Ang):
   XX=           -137.7320   YY=           -124.4756   ZZ=           -110.9114
   XY=             15.0951   XZ=             -4.2322   YZ=              4.3085

  Exact polarizability: 499.204 -22.500 214.434  13.463 -25.669 112.883
 Approx polarizability: 727.904 -59.862 376.474  25.747 -50.641 177.483

                      1                      2                      3
                      A                      A                      A
 Frequencies --     42.3357                56.0495               113.0995
 Red. masses --      4.4720                 5.0349                 5.1286
 Frc consts  --      0.0047                 0.0093                 0.0387
 IR Inten    --      0.9048                 0.1079                 0.6487

                      4                      5                      6
                      A                      A                      A
 Frequencies --    124.6728               146.6508               188.0573
 Red. masses --      5.0684                 4.8582                 4.8988
 Frc consts  --      0.0464                 0.0616                 0.1021
 IR Inten    --      1.1650                 0.0940                 1.2705

                      7                      8                      9
                      A                      A                      A
 Frequencies --    258.1549               266.4311               292.6360
 Red. masses --      5.9658                 7.0516                 6.1929
 Frc consts  --      0.2343                 0.2949                 0.3125
 IR Inten    --      0.0099                 2.2681                 1.2658

                     10                     11                     12
                      A                      A                      A
 Frequencies --    348.8958               396.8310               420.6206
 Red. masses --      6.3005                 4.0322                 3.2139
 Frc consts  --      0.4519                 0.3741                 0.3350
 IR Inten    --      0.2782                 1.8985                 0.5433

                     13                     14                     15
                      A                      A                      A
 Frequencies --    428.1069               493.4257               508.5903
 Red. masses --      3.4407                10.5064                 6.7320
 Frc consts  --      0.3715                 1.5071                 1.0260
 IR Inten    --      1.9144                 9.0504                 0.8332

                     16                     17                     18
                      A                      A                      A
 Frequencies --    528.7124               568.8670               584.0921
 Red. masses --      3.6175                 4.2489                 8.5785
 Frc consts  --      0.5958                 0.8101                 1.7243
 IR Inten    --      5.4025                13.0632                 3.4022

                     19                     20                     21
                      A                      A                      A
 Frequencies --    606.8465               631.3467               640.7889
 Red. masses --      6.0763                 6.3805                 3.2366
 Frc consts  --      1.3184                 1.4984                 0.7830
 IR Inten    --      1.7386                 0.2559                 4.6245

                     22                     23                     24
                      A                      A                      A
 Frequencies --    673.3254               674.6902               713.8025
 Red. masses --      6.5989                 1.4251                 2.5146
 Frc consts  --      1.7627                 0.3822                 0.7549
 IR Inten    --      7.2567                51.8181                22.5555

                     25                     26                     27
                      A                      A                      A
 Frequencies --    743.1550               745.2565               749.4319
 Red. masses --      3.1763                 1.3883                 5.5088
 Frc consts  --      1.0336                 0.4543                 1.8229
 IR Inten    --     10.3006                69.3983                 2.5720

                     28                     29                     30
                      A                      A                      A
 Frequencies --    794.4044               814.9631               822.1272
 Red. masses --      1.3911                 1.4785                 1.5674
 Frc consts  --      0.5172                 0.5785                 0.6242
 IR Inten    --      1.7174                23.6720                15.4007

                     31                     32                     33
                      A                      A                      A
 Frequencies --    839.7250               850.3737               885.0626
 Red. masses --      1.4769                 5.8954                 6.1195
 Frc consts  --      0.6136                 2.5118                 2.8243
 IR Inten    --      0.2743                28.9655                51.0891

                     34                     35                     36
                      A                      A                      A
 Frequencies --    911.7567               939.4419               946.6837
 Red. masses --      1.3011                 1.2530                 1.2880
 Frc consts  --      0.6372                 0.6515                 0.6801
 IR Inten    --      3.7230                 0.0833                 0.0876

                     37                     38                     39
                      A                      A                      A
 Frequencies --    949.1606               983.1574              1004.5537
 Red. masses --      1.2633                 5.3296                 6.0927
 Frc consts  --      0.6706                 3.0352                 3.6225
 IR Inten    --      2.6234               133.6601                 7.1732

                     40                     41                     42
                      A                      A                      A
 Frequencies --   1027.0406              1046.8499              1091.6031
 Red. masses --      2.1785                 1.9558                 1.6752
 Frc consts  --      1.3539                 1.2628                 1.1761
 IR Inten    --     68.1370                43.6412                11.6307

                     43                     44                     45
                      A                      A                      A
 Frequencies --   1101.9776              1139.8054              1160.6886
 Red. masses --      2.2425                 1.9084                 1.1359
 Frc consts  --      1.6044                 1.4608                 0.9017
 IR Inten    --      4.2333                36.3366                15.8376

                     46                     47                     48
                      A                      A                      A
 Frequencies --   1164.4969              1197.0350              1245.9146
 Red. masses --      1.1465                 1.1813                 3.3345
 Frc consts  --      0.9160                 0.9973                 3.0497
 IR Inten    --     17.0675                62.9506               131.2946

                     49                     50                     51
                      A                      A                      A
 Frequencies --   1255.0169              1266.5921              1299.2803
 Red. masses --      1.7389                 1.8847                 3.5855
 Frc consts  --      1.6137                 1.7814                 3.5662
 IR Inten    --    127.9606                17.4889                 4.3331

                     52                     53                     54
                      A                      A                      A
 Frequencies --   1316.8908              1338.4310              1355.5893
 Red. masses --      4.2357                 3.2950                 2.3883
 Frc consts  --      4.3279                 3.4777                 2.5858
 IR Inten    --     15.7046                46.7866                22.4842

                     55                     56                     57
                      A                      A                      A
 Frequencies --   1359.8687              1436.1534              1464.7318
 Red. masses --      6.6279                 2.6977                 2.5681
 Frc consts  --      7.2213                 3.2783                 3.2462
 IR Inten    --     61.2761               221.6782                16.6022

                     58                     59                     60
                      A                      A                      A
 Frequencies --   1485.1283              1497.1831              1523.4262
 Red. masses --      2.4902                 2.6145                 3.3172
 Frc consts  --      3.2361                 3.4529                 4.5359
 IR Inten    --     52.3163                 9.4571               299.0413

                     61                     62                     63
                      A                      A                      A
 Frequencies --   1539.4966              1587.8698              1605.1541
 Red. masses --      4.0517                 6.0074                 6.8445
 Frc consts  --      5.6578                 8.9242                10.3903
 IR Inten    --     40.0179               429.7518               110.7483

                     64                     65                     66
                      A                      A                      A
 Frequencies --   1619.1962              1623.6907              3129.1267
 Red. masses --      5.5784                 7.0756                 1.0844
 Frc consts  --      8.6171                10.9906                 6.2560
 IR Inten    --    452.4124               253.1503                29.9280

                     67                     68                     69
                      A                      A                      A
 Frequencies --   3134.6971              3140.8484              3159.2075
 Red. masses --      1.0880                 1.0843                 1.0909
 Frc consts  --      6.2989                 6.3020                 6.4151
 IR Inten    --     47.7610                12.5120                67.8940

                     70                     71                     72
                      A                      A                      A
 Frequencies --   3167.2696              3178.6568              3179.4839
 Red. masses --      1.0923                 1.0927                 1.0920
 Frc consts  --      6.4561                 6.5050                 6.5040
 IR Inten    --     42.2478                18.6838                14.2007

                     73                     74                     75
                      A                      A                      A
 Frequencies --   3184.3940              3197.6584              3198.8860
 Red. masses --      1.0924                 1.0886                 1.0894
 Frc consts  --      6.5268                 6.5580                 6.5679
 IR Inten    --      8.4447                25.8655                 0.6876

 - Thermochemistry -
 -------------------
 Temperature   298.150 Kelvin.  Pressure   1.00000 Atm.
 Atom     1 has atomic number  8 and mass  15.99491

 Molecular mass:   222.06808 amu.
 Principal axes and moments of inertia in atomic units:
                           1         2         3
     Eigenvalues --  1562.227636616.974448179.20140
           X            0.99699   0.07485  -0.02037
           Y           -0.06828   0.97139   0.22745
           Z            0.03682  -0.22537   0.97358
 This molecule is an asymmetric top.
 Rotational symmetry number  1.
 Warning -- assumption of classical behavior for rotation
           may cause significant error
 Rotational temperatures (Kelvin)      0.05544     0.01309     0.01059
 Rotational constants (GHZ):           1.15524     0.27274     0.22065
 Zero-point vibrational energy     532970.0 (Joules/Mol)
                                  127.38288 (Kcal/Mol)
 Warning -- explicit consideration of  19 degrees of freedom as
           vibrations may cause significant error
 Vibrational temperatures:     60.91    80.64   162.72   179.38   211.00
          (Kelvin)            270.57   371.43   383.33   421.04   501.98
                              570.95   605.18   615.95   709.93   731.75
                              760.70   818.47   840.38   873.12   908.37
                              921.95   968.77   970.73  1027.00  1069.23
                             1072.26  1078.27  1142.97  1172.55  1182.86
                             1208.18  1223.50  1273.41  1311.81  1351.65
                             1362.07  1365.63  1414.54  1445.33  1477.68
                             1506.18  1570.57  1585.50  1639.93  1669.97
                             1675.45  1722.27  1792.59  1805.69  1822.34
                             1869.37  1894.71  1925.70  1950.39  1956.55
                             2066.30  2107.42  2136.77  2154.11  2191.87
                             2214.99  2284.59  2309.46  2329.66  2336.13
                             4502.12  4510.13  4518.98  4545.39  4556.99
                             4573.38  4574.57  4581.63  4600.72  4602.48

 Zero-point correction=                           0.202998 (Hartree/Particle)
 Thermal correction to Energy=                    0.215828
 Thermal correction to Enthalpy=                  0.216772
 Thermal correction to Gibbs Free Energy=         0.162473
 Sum of electronic and zero-point Energies=           -728.091654
 Sum of electronic and thermal Energies=              -728.078824
 Sum of electronic and thermal Enthalpies=            -728.077880
 Sum of electronic and thermal Free Energies=         -728.132179

                     E (Thermal)             CV                S
                      KCal/Mol        Cal/Mol-Kelvin    Cal/Mol-Kelvin
 Total                  135.434             52.341            114.282
 Electronic               0.000              0.000              1.377
 Translational            0.889              2.981             42.096
 Rotational               0.889              2.981             32.803
 Vibrational            133.656             46.380             38.006
 Vibration     1          0.595              1.980              5.147
 Vibration     2          0.596              1.975              4.592
 Vibration     3          0.607              1.939              3.215
 Vibration     4          0.610              1.928              3.027
 Vibration     5          0.617              1.906              2.715
 Vibration     6          0.633              1.856              2.247
 Vibration     7          0.667              1.749              1.674
 Vibration     8          0.672              1.735              1.619
 Vibration     9          0.688              1.687              1.459
 Vibration    10          0.726              1.578              1.171
 Vibration    11          0.763              1.477              0.974
 Vibration    12          0.783              1.425              0.890
 Vibration    13          0.790              1.409              0.865
 Vibration    14          0.849              1.265              0.675
 Vibration    15          0.864              1.231              0.637
 Vibration    16          0.884              1.186              0.590
 Vibration    17          0.925              1.099              0.506
 Vibration    18          0.941              1.066              0.478
 Vibration    19          0.966              1.017              0.438

 Optimization completed.
    -- Stationary point found.
 Normal termination of Gaussian 16 at Tue Jan  9 21:29:31 2024.
