 Q-Chem 5.4, Q-Chem, Inc., Pleasanton, CA (2021)
 Q-Chem 5.4.0 for Intel X86 EM64T Linux

User input:
--------------------------------------------------------------
$molecule
0 1
C                 -1.2221700000      2.8827750000     -0.1184570000
C                 -2.5313270000      2.4155920000     -0.1621690000
C                 -2.7879330000      1.0437260000     -0.1038100000
C                 -0.1610300000      1.9785600000     -0.0168520000
C                 -0.4195520000      0.5993970000      0.0416420000
C                 -1.7357580000      0.1383870000     -0.0021470000
C                  1.2329100000      2.5004800000      0.0300600000
C                  2.3392720000      1.4765420000      0.1326850000
C                  2.0723390000      0.1500430000      0.1901430000
C                  0.7066980000     -0.3797270000      0.1502480000
O                  1.4898670000      3.6858750000     -0.0086130000
O                  0.4988730000     -1.5844110000      0.2031560000
H                 -1.0008380000      3.9420900000     -0.1618360000
H                 -1.9114140000     -0.9293300000      0.0446780000
O                  3.5457010000      2.0456320000      0.1590830000
C                  4.7073140000      1.2012140000      0.2875180000
C                  5.9141750000      2.0825360000      0.3310430000
C                  6.9688480000      1.9264090000     -0.4627000000
H                 -3.3530300000      3.1181370000     -0.2414440000
H                 -3.8094760000      0.6823090000     -0.1378610000
H                  2.8506440000     -0.5978360000      0.2655290000
H                  4.7527960000      0.5055610000     -0.5567230000
H                  4.6110500000      0.6218610000      1.2145960000
H                  5.8959930000      2.8680260000      1.0813350000
H                  7.0010640000      1.1543620000     -1.2254050000
H                  7.8410920000      2.5634990000     -0.3757900000
$end

$rem
BASIS  =  6-311++G(d,p)
GUI  =  2
JOB_TYPE  =  SP
METHOD  =  B3LYP
SCF_CONVERGENCE  = 8
SOLVENT_METHOD = sm12
$end

$smx
solvent dimethylformamide
charges CM5
$end

--------------------------------------------------------------

             Standard Nuclear Orientation (Angstroms)
    I     Atom           X                Y                Z
 ----------------------------------------------------------------
    1      C      -1.2221700000     2.8827750000    -0.1184570000
    2      C      -2.5313270000     2.4155920000    -0.1621690000
    3      C      -2.7879330000     1.0437260000    -0.1038100000
    4      C      -0.1610300000     1.9785600000    -0.0168520000
    5      C      -0.4195520000     0.5993970000     0.0416420000
    6      C      -1.7357580000     0.1383870000    -0.0021470000
    7      C       1.2329100000     2.5004800000     0.0300600000
    8      C       2.3392720000     1.4765420000     0.1326850000
    9      C       2.0723390000     0.1500430000     0.1901430000
   10      C       0.7066980000    -0.3797270000     0.1502480000
   11      O       1.4898670000     3.6858750000    -0.0086130000
   12      O       0.4988730000    -1.5844110000     0.2031560000
   13      H      -1.0008380000     3.9420900000    -0.1618360000
   14      H      -1.9114140000    -0.9293300000     0.0446780000
   15      O       3.5457010000     2.0456320000     0.1590830000
   16      C       4.7073140000     1.2012140000     0.2875180000
   17      C       5.9141750000     2.0825360000     0.3310430000
   18      C       6.9688480000     1.9264090000    -0.4627000000
   19      H      -3.3530300000     3.1181370000    -0.2414440000
   20      H      -3.8094760000     0.6823090000    -0.1378610000
   21      H       2.8506440000    -0.5978360000     0.2655290000
   22      H       4.7527960000     0.5055610000    -0.5567230000
   23      H       4.6110500000     0.6218610000     1.2145960000
   24      H       5.8959930000     2.8680260000     1.0813350000
   25      H       7.0010640000     1.1543620000    -1.2254050000
   26      H       7.8410920000     2.5634990000    -0.3757900000
 ----------------------------------------------------------------

   15    -727.2328755611      9.20e-09  Convergence criterion met
 Total energy in the final basis set =     -727.2530212835

                    Orbital Energies (a.u.)
 --------------------------------------------------------------

 Alpha MOs
 -- Occupied --
-19.1829 -19.1377 -19.1229 -10.2879 -10.2769 -10.2734 -10.2411 -10.2092
-10.2076 -10.1988 -10.1982 -10.1969 -10.1967 -10.1953 -10.1831 -10.1737
 -1.1060  -1.0676  -1.0559  -0.8901  -0.8382  -0.8046  -0.7784  -0.7705
 -0.7259  -0.6831  -0.6513  -0.6286  -0.5943  -0.5762  -0.5527  -0.5461
 -0.5222  -0.5032  -0.4948  -0.4724  -0.4670  -0.4583  -0.4513  -0.4485
 -0.4414  -0.4338  -0.4244  -0.4163  -0.3877  -0.3829  -0.3794  -0.3687
 -0.3606  -0.3517  -0.2879  -0.2873  -0.2792  -0.2785  -0.2736  -0.2650

          Ground-State Mulliken Net Atomic Charges

     Atom                 Charge (a.u.)
  ----------------------------------------
      1 C                     0.129031
      2 C                     0.298095
      3 C                     0.303847
      4 C                    -0.436936
      5 C                    -0.182618
      6 C                     0.124485
      7 C                    -0.950209
      8 C                    -0.521422
      9 C                     0.858290
     10 C                    -0.743192
     11 O                    -0.298177
     12 O                    -0.328465
     13 H                     0.188281
     14 H                     0.170467
     15 O                    -0.073131
     16 C                     0.091654
     17 C                    -0.178956
     18 C                    -0.427317
     19 H                     0.323936
     20 H                     0.323887
     21 H                     0.340712
     22 H                     0.233482
     23 H                     0.248848
     24 H                     0.180495
     25 H                     0.157019
     26 H                     0.167895
  ----------------------------------------
  Sum of atomic charges =     0.000000

                    Cartesian Multipole Moments
 -----------------------------------------------------------------
    Charge (ESU x 10^10)
                 0.0000
    Dipole Moment (Debye)
         X       0.3987      Y       0.2214      Z      -0.0386
       Tot       0.4577
    Quadrupole Moments (Debye-Ang)
        XX     -60.1926     XY      -6.8306     YY    -108.3678
        XZ       0.8365     YZ       1.5859     ZZ     -93.3543

 Total job time:  442.87s(wall), 3435.25s(cpu)
        *  Thank you very much for using Q-Chem.  Have a nice day.  *
