 Gaussian 16, Revision A.03,
 Gaussian 16:  ES64L-G16RevA.03 25-Dec-2016

 --------------------------------------
 #P UB3LYP/6-311++G(d,p) nosym opt freq
 --------------------------------------

 --------
 Oxidized
 --------
 Symbolic Z-matrix:
 Charge =  0 Multiplicity = 1

 SCF Done:  E(UB3LYP) =  -727.232127777     A.U. after   16 cycles
 SCF Done:  E(UB3LYP) =  -727.232128390     A.U. after    9 cycles
 SCF Done:  E(UB3LYP) =  -727.232139387     A.U. after   11 cycles
 SCF Done:  E(UB3LYP) =  -727.217265684     A.U. after   16 cycles
 SCF Done:  E(UB3LYP) =  -727.232630248     A.U. after   14 cycles
 SCF Done:  E(UB3LYP) =  -727.215617618     A.U. after   15 cycles
 SCF Done:  E(UB3LYP) =  -727.233669747     A.U. after   13 cycles
 SCF Done:  E(UB3LYP) =  -727.234043602     A.U. after   15 cycles
 SCF Done:  E(UB3LYP) =  -727.234355236     A.U. after   13 cycles
 SCF Done:  E(UB3LYP) =  -727.234279175     A.U. after   13 cycles
 SCF Done:  E(UB3LYP) =  -727.234286792     A.U. after   13 cycles
 SCF Done:  E(UB3LYP) =  -727.234408745     A.U. after   12 cycles
 SCF Done:  E(UB3LYP) =  -727.234428374     A.U. after   11 cycles
 SCF Done:  E(UB3LYP) =  -727.234431254     A.U. after   11 cycles
 SCF Done:  E(UB3LYP) =  -727.234431746     A.U. after   11 cycles
 Optimization completed.
    -- Stationary point found.
 Normal termination of Gaussian 16 at Mon Jan 15 18:00:01 2024.

 ----------------------------------------------------------------------
 #P Geom=AllCheck Guess=TCheck SCRF=Check GenChk UB3LYP/6-311++G(d,p) F
 req
 ----------------------------------------------------------------------

 Structure from the checkpoint file:  "266.chk"
 --------
 Oxidized
 --------
 Charge =  0 Multiplicity = 1

                          Input orientation:
 ---------------------------------------------------------------------
 Center     Atomic      Atomic             Coordinates (Angstroms)
 Number     Number       Type             X           Y           Z
 ---------------------------------------------------------------------
      1          6           0       -1.222170    2.882775   -0.118457
      2          6           0       -2.531327    2.415592   -0.162169
      3          6           0       -2.787933    1.043726   -0.103810
      4          6           0       -0.161030    1.978560   -0.016852
      5          6           0       -0.419552    0.599397    0.041642
      6          6           0       -1.735758    0.138387   -0.002147
      7          6           0        1.232910    2.500480    0.030060
      8          6           0        2.339272    1.476542    0.132685
      9          6           0        2.072339    0.150043    0.190143
     10          6           0        0.706698   -0.379727    0.150248
     11          8           0        1.489867    3.685875   -0.008613
     12          8           0        0.498873   -1.584411    0.203156
     13          1           0       -1.000838    3.942090   -0.161836
     14          1           0       -1.911414   -0.929330    0.044678
     15          8           0        3.545701    2.045632    0.159083
     16          6           0        4.707314    1.201214    0.287518
     17          6           0        5.914175    2.082536    0.331043
     18          6           0        6.968848    1.926409   -0.462700
     19          1           0       -3.353030    3.118137   -0.241444
     20          1           0       -3.809476    0.682309   -0.137861
     21          1           0        2.850644   -0.597836    0.265529
     22          1           0        4.752796    0.505561   -0.556723
     23          1           0        4.611050    0.621861    1.214596
     24          1           0        5.895993    2.868026    1.081335
     25          1           0        7.001064    1.154362   -1.225405
     26          1           0        7.841092    2.563499   -0.375790
 ---------------------------------------------------------------------

 SCF Done:  E(UB3LYP) =  -727.234431746     A.U. after    1 cycles

 Alpha  occ. eigenvalues --  -19.18983 -19.13586 -19.12128 -10.28650 -10.27595
 Alpha  occ. eigenvalues --  -10.27564 -10.25670 -10.21014 -10.20841 -10.20273
 Alpha  occ. eigenvalues --  -10.20185 -10.20086 -10.19870 -10.19852 -10.19847
 Alpha  occ. eigenvalues --  -10.18946  -1.11201  -1.06619  -1.05370  -0.89218
 Alpha  occ. eigenvalues --   -0.84291  -0.81584  -0.78045  -0.77466  -0.73546
 Alpha  occ. eigenvalues --   -0.68727  -0.65444  -0.63425  -0.59845  -0.58700
 Alpha  occ. eigenvalues --   -0.56065  -0.55021  -0.52613  -0.51596  -0.49673
 Alpha  occ. eigenvalues --   -0.48120  -0.47196  -0.45979  -0.45317  -0.45167
 Alpha  occ. eigenvalues --   -0.44238  -0.43792  -0.43370  -0.41447  -0.39567
 Alpha  occ. eigenvalues --   -0.38803  -0.38602  -0.37340  -0.36632  -0.36306
 Alpha  occ. eigenvalues --   -0.29429  -0.28828  -0.28415  -0.28000  -0.27165
 Alpha  occ. eigenvalues --   -0.26907
 Alpha virt. eigenvalues --   -0.11909  -0.05664  -0.02895  -0.02641  -0.01179
 Alpha virt. eigenvalues --   -0.00704   0.00597   0.00902   0.01359   0.01787
 Alpha virt. eigenvalues --    0.02660   0.03138   0.03758   0.04177   0.04938

  Beta  occ. eigenvalues --  -19.18983 -19.13586 -19.12128 -10.28650 -10.27595
  Beta  occ. eigenvalues --  -10.27564 -10.25670 -10.21014 -10.20841 -10.20273
  Beta  occ. eigenvalues --  -10.20185 -10.20086 -10.19870 -10.19852 -10.19847
  Beta  occ. eigenvalues --  -10.18946  -1.11201  -1.06619  -1.05370  -0.89218
  Beta  occ. eigenvalues --   -0.84291  -0.81584  -0.78045  -0.77466  -0.73546
  Beta  occ. eigenvalues --   -0.68727  -0.65444  -0.63425  -0.59845  -0.58700
  Beta  occ. eigenvalues --   -0.56065  -0.55021  -0.52613  -0.51596  -0.49673
  Beta  occ. eigenvalues --   -0.48120  -0.47196  -0.45979  -0.45317  -0.45167
  Beta  occ. eigenvalues --   -0.44238  -0.43792  -0.43370  -0.41447  -0.39567
  Beta  occ. eigenvalues --   -0.38803  -0.38602  -0.37340  -0.36632  -0.36306
  Beta  occ. eigenvalues --   -0.29429  -0.28828  -0.28415  -0.28000  -0.27165
  Beta  occ. eigenvalues --   -0.26907
  Beta virt. eigenvalues --   -0.11909  -0.05664  -0.02895  -0.02641  -0.01179
  Beta virt. eigenvalues --   -0.00704   0.00597   0.00902   0.01359   0.01787
  Beta virt. eigenvalues --    0.02660   0.03138   0.03758   0.04177   0.04938

 Mulliken charges and spin densities:
               1          2
     1  C    0.236824  -0.000000
     2  C   -0.356190   0.000000
     3  C   -0.276984  -0.000000
     4  C    0.055379   0.000000
     5  C    0.531629   0.000000
     6  C    0.247214  -0.000000
     7  C   -0.460076  -0.000000
     8  C   -0.591236  -0.000000
     9  C    0.356275  -0.000000
    10  C   -0.283624   0.000000
    11  O   -0.211893   0.000000
    12  O   -0.232899  -0.000000
    13  H    0.179647   0.000000
    14  H    0.180515   0.000000
    15  O   -0.026824   0.000000
    16  C   -0.338601  -0.000000
    17  C    0.015314   0.000000
    18  C   -0.396843   0.000000
    19  H    0.177106   0.000000
    20  H    0.178289  -0.000000
    21  H    0.228367   0.000000
    22  H    0.142636   0.000000
    23  H    0.170258   0.000000
    24  H    0.193819   0.000000
    25  H    0.129262  -0.000000
    26  H    0.152635  -0.000000
 Sum of Mulliken charges =  -0.00000  -0.00000

 Dipole moment (field-independent basis, Debye):
    X=              0.5200    Y=              0.1900    Z=              0.0077  Tot=              0.5536
 Quadrupole moment (field-independent basis, Debye-Ang):
   XX=            -64.7408   YY=           -107.3784   ZZ=            -93.3809
   XY=             -5.4905   XZ=              0.8320   YZ=              1.6643

  Exact polarizability: 233.818  11.398 175.765  -3.115  -2.752  92.110
 Approx polarizability: 306.516  31.240 345.421  -6.995  -5.714 146.132

                      1                      2                      3
                      A                      A                      A
 Frequencies --     30.4486                63.2465                67.8887
 Red. masses --      5.5590                 2.9971                 5.5606
 Frc consts  --      0.0030                 0.0071                 0.0151
 IR Inten    --      2.4630                 1.2320                 3.6402

                      4                      5                      6
                      A                      A                      A
 Frequencies --    113.8742               117.8400               139.0552
 Red. masses --      2.5828                 4.7003                 3.9787
 Frc consts  --      0.0197                 0.0385                 0.0453
 IR Inten    --      1.1089                 0.0067                 0.4539

                      7                      8                      9
                      A                      A                      A
 Frequencies --    173.5946               200.9541               260.9842
 Red. masses --      6.4402                 4.8530                 5.2050
 Frc consts  --      0.1143                 0.1155                 0.2089
 IR Inten    --      2.8092                 0.5339                 4.7775

                     10                     11                     12
                      A                      A                      A
 Frequencies --    261.1602               308.5784               378.1894
 Red. masses --      4.4713                 3.6582                10.7516
 Frc consts  --      0.1797                 0.2052                 0.9060
 IR Inten    --      0.4306                 1.5119                18.4554

                     13                     14                     15
                      A                      A                      A
 Frequencies --    408.6468               450.5397               454.3058
 Red. masses --      3.5339                 4.6429                 2.6215
 Frc consts  --      0.3477                 0.5553                 0.3188
 IR Inten    --      0.0181                 1.6880                 0.3087

                     16                     17                     18
                      A                      A                      A
 Frequencies --    458.0375               458.7335               502.6191
 Red. masses --      8.9700                 6.8475                 3.8552
 Frc consts  --      1.1088                 0.8490                 0.5738
 IR Inten    --      6.3486                 5.0921                 3.1494

                     19                     20                     21
                      A                      A                      A
 Frequencies --    553.9066               630.4339               681.3638
 Red. masses --      5.4222                 2.2319                 3.8870
 Frc consts  --      0.9802                 0.5226                 1.0632
 IR Inten    --      0.9664                11.6728                 1.9761

                     22                     23                     24
                      A                      A                      A
 Frequencies --    688.6233               708.0244               719.3706
 Red. masses --      3.7065                 6.1856                 5.9910
 Frc consts  --      1.0356                 1.8270                 1.8266
 IR Inten    --      3.2478                 5.2817                 1.8764

                     25                     26                     27
                      A                      A                      A
 Frequencies --    737.4841               784.0833               816.2637
 Red. masses --      2.7983                 2.1329                 3.1682
 Frc consts  --      0.8967                 0.7726                 1.2437
 IR Inten    --     29.7872                32.5682                15.4303

                     28                     29                     30
                      A                      A                      A
 Frequencies --    829.0802               866.6239               914.4542
 Red. masses --      4.5259                 1.5425                 1.3527
 Frc consts  --      1.8329                 0.6826                 0.6665
 IR Inten    --      7.1058                22.5957                 0.0063

                     31                     32                     33
                      A                      A                      A
 Frequencies --    935.1097               958.4347               969.4990
 Red. masses --      1.8393                 2.7153                 1.3539
 Frc consts  --      0.9476                 1.4696                 0.7498
 IR Inten    --      3.2940                 3.0479                49.6408

                     34                     35                     36
                      A                      A                      A
 Frequencies --   1000.1334              1000.6389              1017.4783
 Red. masses --      1.6724                 1.3832                 1.3246
 Frc consts  --      0.9856                 0.8160                 0.8080
 IR Inten    --      8.9143                 1.5322                 0.0421

                     37                     38                     39
                      A                      A                      A
 Frequencies --   1027.5424              1034.6152              1059.7408
 Red. masses --      1.3608                 4.3117                 2.3428
 Frc consts  --      0.8465                 2.7193                 1.5502
 IR Inten    --     56.8886               149.4557                35.5108

                     40                     41                     42
                      A                      A                      A
 Frequencies --   1101.3791              1138.8120              1174.6617
 Red. masses --      2.9202                 1.8461                 1.8653
 Frc consts  --      2.0871                 1.4106                 1.5165
 IR Inten    --     29.7141                11.0383                 4.8816

                     43                     44                     45
                      A                      A                      A
 Frequencies --   1183.0445              1230.4103              1263.1994
 Red. masses --      1.1365                 2.8302                 2.3990
 Frc consts  --      0.9372                 2.5244                 2.2554
 IR Inten    --     20.0294               265.4397               379.1338

                     46                     47                     48
                      A                      A                      A
 Frequencies --   1268.8955              1282.7344              1317.8699
 Red. masses --      1.1515                 2.0358                 1.2624
 Frc consts  --      1.0924                 1.9736                 1.2918
 IR Inten    --     16.3251                69.4876                 1.1334

                     49                     50                     51
                      A                      A                      A
 Frequencies --   1322.5527              1356.5589              1362.4393
 Red. masses --      4.0581                 2.6120                 3.6631
 Frc consts  --      4.1821                 2.8320                 4.0062
 IR Inten    --     86.7766                46.1357                14.3358

                     52                     53                     54
                      A                      A                      A
 Frequencies --   1399.3621              1462.3088              1482.7657
 Red. masses --      1.6115                 1.2298                 2.3916
 Frc consts  --      1.8593                 1.5493                 3.0980
 IR Inten    --      3.4522                21.0876                 0.0938

                     55                     56                     57
                      A                      A                      A
 Frequencies --   1499.3515              1505.5900              1610.9454
 Red. masses --      1.1157                 2.5456                 6.5696
 Frc consts  --      1.4778                 3.3997                10.0450
 IR Inten    --     12.6052                 5.2417                58.9888

                     58                     59                     60
                      A                      A                      A
 Frequencies --   1629.3678              1645.5703              1706.7576
 Red. masses --      5.9136                 8.0446                10.7938
 Frc consts  --      9.2500                12.8348                18.5255
 IR Inten    --     49.4155               340.3527               218.1221

                     61                     62                     63
                      A                      A                      A
 Frequencies --   1711.0460              1746.2917              3001.7521
 Red. masses --      4.7123                12.8372                 1.0590
 Frc consts  --      8.1285                23.0650                 5.6222
 IR Inten    --      7.9159               217.1453                13.2431

                     64                     65                     66
                      A                      A                      A
 Frequencies --   3055.5925              3131.0968              3155.5102
 Red. masses --      1.1036                 1.0601                 1.0923
 Frc consts  --      6.0711                 6.1232                 6.4082
 IR Inten    --     15.0261                 7.0486                 3.2212

                     67                     68                     69
                      A                      A                      A
 Frequencies --   3170.4250              3184.6364              3198.9815
 Red. masses --      1.0869                 1.0916                 1.0926
 Frc consts  --      6.4371                 6.5225                 6.5876
 IR Inten    --      3.2946                 9.0350                 0.4142

                     70                     71                     72
                      A                      A                      A
 Frequencies --   3201.7024              3204.3932              3218.4461
 Red. masses --      1.0952                 1.0907                 1.1151
 Frc consts  --      6.6146                 6.5985                 6.8052
 IR Inten    --     11.7307                 5.2647                10.0972

 - Thermochemistry -
 -------------------
 Temperature   298.150 Kelvin.  Pressure   1.00000 Atm.
 Atom     1 has atomic number  6 and mass  12.00000

 Molecular mass:   214.06299 amu.
 Principal axes and moments of inertia in atomic units:
                           1         2         3
     Eigenvalues --  1466.486736169.115757559.60955
           X            0.99612  -0.08675  -0.01482
           Y            0.08741   0.99480   0.05230
           Z            0.01021  -0.05340   0.99852
 This molecule is an asymmetric top.
 Rotational symmetry number  1.
 Warning -- assumption of classical behavior for rotation
           may cause significant error
 Rotational temperatures (Kelvin)      0.05906     0.01404     0.01146
 Rotational constants (GHZ):           1.23066     0.29254     0.23873
 Zero-point vibrational energy     518617.4 (Joules/Mol)
                                  123.95252 (Kcal/Mol)
 Warning -- explicit consideration of  19 degrees of freedom as
           vibrations may cause significant error
 Vibrational temperatures:     43.81    91.00    97.68   163.84   169.55
          (Kelvin)            200.07   249.76   289.13   375.50   375.75
                              443.98   544.13   587.95   648.23   653.64
                              659.01   660.02   723.16   796.95   907.05
                              980.33   990.78  1018.69  1035.01  1061.08
                             1128.12  1174.42  1192.86  1246.88  1315.70
                             1345.41  1378.97  1394.89  1438.97  1439.70
                             1463.92  1478.40  1488.58  1524.73  1584.64
                             1638.50  1690.08  1702.14  1770.29  1817.46
                             1825.66  1845.57  1896.12  1902.86  1951.79
                             1960.25  2013.37  2103.94  2133.37  2157.23
                             2166.21  2317.79  2344.30  2367.61  2455.64
                             2461.81  2512.52  4318.85  4396.32  4504.95
                             4540.08  4561.53  4581.98  4602.62  4606.54
                             4610.41  4630.63

 Zero-point correction=                           0.197531 (Hartree/Particle)
 Thermal correction to Energy=                    0.211095
 Thermal correction to Enthalpy=                  0.212039
 Thermal correction to Gibbs Free Energy=         0.156094
 Sum of electronic and zero-point Energies=           -727.036901
 Sum of electronic and thermal Energies=              -727.023337
 Sum of electronic and thermal Enthalpies=            -727.022392
 Sum of electronic and thermal Free Energies=         -727.078338

                     E (Thermal)             CV                S
                      KCal/Mol        Cal/Mol-Kelvin    Cal/Mol-Kelvin
 Total                  132.464             51.486            117.748
 Electronic               0.000              0.000              0.000
 Translational            0.889              2.981             41.987
 Rotational               0.889              2.981             32.592
 Vibrational            130.687             45.525             43.170
 Vibration     1          0.594              1.984              5.800
 Vibration     2          0.597              1.972              4.353
 Vibration     3          0.598              1.970              4.214
 Vibration     4          0.607              1.938              3.202
 Vibration     5          0.608              1.935              3.135
 Vibration     6          0.615              1.914              2.817
 Vibration     7          0.627              1.875              2.396
 Vibration     8          0.638              1.839              2.124
 Vibration     9          0.669              1.744              1.655
 Vibration    10          0.669              1.744              1.654
 Vibration    11          0.698              1.657              1.370
 Vibration    12          0.748              1.517              1.046
 Vibration    13          0.773              1.451              0.931
 Vibration    14          0.809              1.360              0.794
 Vibration    15          0.813              1.351              0.783
 Vibration    16          0.816              1.343              0.772
 Vibration    17          0.817              1.342              0.770
 Vibration    18          0.858              1.244              0.652
 Vibration    19          0.909              1.131              0.536

                           ! Non-Optimized Parameters !
 Normal termination of Gaussian 16 at Mon Jan 15 18:39:45 2024.
