 Q-Chem 5.4, Q-Chem, Inc., Pleasanton, CA (2021)
 Q-Chem 5.4.0 for Intel X86 EM64T Linux

User input:
--------------------------------------------------------------
$molecule
0 1
Cl                 2.5930850000      3.1395560000     -0.6929400000
C                  2.4787410000      1.4434990000     -0.2834950000
C                  3.6819550000      0.7406150000     -0.2534130000
C                  3.6953370000     -0.6163910000      0.0488610000
C                  2.5050040000     -1.2824320000      0.3077360000
C                  1.2949150000     -0.5911970000      0.2585680000
C                  0.0505030000     -1.3903560000      0.5265690000
O                  0.1449480000     -2.5124840000      0.9856430000
C                 -1.2607740000     -0.7593900000      0.2005790000
C                 -2.4753170000     -1.4702840000      0.1353840000
Cl                -2.5851920000     -3.2030940000      0.3418910000
C                 -3.6733250000     -0.8107170000     -0.1336450000
C                 -3.6891570000      0.5660490000     -0.3267440000
C                 -2.5058100000      1.2897290000     -0.2673940000
C                 -1.3000180000      0.6344080000     -0.0200650000
C                 -0.0619690000      1.4863480000      0.0035860000
O                 -0.1672230000      2.6974260000      0.0360340000
C                  1.2570940000      0.7912370000     -0.0248940000
H                  4.6021630000      1.2690710000     -0.4669040000
H                  4.6382960000     -1.1499220000      0.0757740000
H                  2.4869150000     -2.3377720000      0.5458440000
H                 -4.5876640000     -1.3875400000     -0.1871900000
H                 -4.6283190000      1.0679160000     -0.5283810000
H                 -2.4897820000      2.3617310000     -0.4134110000
$end
$rem
MAX_SCF_CYCLES=200
BASIS  =  6-311++G(d,p)
GUI  =  2
JOB_TYPE  =  SP
METHOD  =  B3LYP
SOLVENT_METHOD = COSMO
$end
$solvent
dielectric 37.219
opticaldielectric 1.43
$end

--------------------------------------------------------------

             Standard Nuclear Orientation (Angstroms)
    I     Atom           X                Y                Z
 ----------------------------------------------------------------
    1      Cl      3.9065174048    -1.3296396900     0.1949031842
    2      C       2.8801798548     0.0822013773     0.0916310199
    3      C       3.5221152005     1.3133972432     0.2130827624
    4      C       2.7914964779     2.4949785286     0.1576221330
    5      C       1.4132381788     2.4528269524    -0.0040776992
    6      C       0.7608032583     1.2245285273    -0.1048266885
    7      C      -0.7343320209     1.2653474349    -0.2529657539
    8      O      -1.2842315780     2.3208344570    -0.5027610042
    9      C      -1.4827464162    -0.0118608916    -0.0728276746
   10      C      -2.8801374711    -0.0821943189     0.0917530497
   11      Cl     -3.9064619481     1.3296817504     0.1947685133
   12      C      -3.5221272678    -1.3133435628     0.2131986695
   13      C      -2.7915606733    -2.4949581392     0.1576834596
   14      C      -1.4133007585    -2.4528556001    -0.0040950023
   15      C      -0.7608083302    -1.2245773117    -0.1047810095
   16      C       0.7343381311    -1.2653827047    -0.2530997160
   17      O       1.2841833278    -2.3208909806    -0.5029271334
   18      C       1.4827855749     0.0118336710    -0.0729265651
   19      H       4.5958166283     1.3325731468     0.3488194298
   20      H       3.3034937560     3.4460422050     0.2464364551
   21      H       0.8207307334     3.3569932850    -0.0508036803
   22      H      -4.5958241810    -1.3324749657     0.3489063521
   23      H      -3.3036004661    -3.4460016251     0.2464796666
   24      H      -0.8208356636    -3.3570421159    -0.0509778885
 ----------------------------------------------------------------

    9   -1608.1753275750      2.53e-06  Convergence criterion met
 Total energy in the final basis set =    -1608.1753275750
    5   -1608.1905324751      3.68e-06  Convergence criterion met
 Total energy in the final basis set =    -1608.1905324751

                    Orbital Energies (a.u.)
 --------------------------------------------------------------

 Alpha MOs
 -- Occupied --
********-101.5671 -19.1371 -19.1371 -10.2932 -10.2932 -10.2659 -10.2659
-10.2253 -10.2253 -10.2188 -10.2188 -10.2068 -10.2068 -10.2045 -10.2045
-10.2007 -10.2007  -9.4820  -9.4820  -7.2467  -7.2467  -7.2372  -7.2372
 -7.2359  -7.2359  -1.0767  -1.0749  -0.9196  -0.9156  -0.8711  -0.8590
 -0.8196  -0.7820  -0.7692  -0.7621  -0.6954  -0.6748  -0.6565  -0.6132
 -0.5838  -0.5759  -0.5608  -0.5156  -0.5017  -0.4991  -0.4970  -0.4692
 -0.4677  -0.4595  -0.4593  -0.4569  -0.4505  -0.4304  -0.4163  -0.4053
 -0.3968  -0.3919  -0.3881  -0.3825  -0.3539  -0.3516  -0.3391  -0.3338
 -0.2981  -0.2900  -0.2839  -0.2730  -0.2714  -0.2695

          Ground-State Mulliken Net Atomic Charges

     Atom                 Charge (a.u.)
  ----------------------------------------
      1 Cl                    0.435326
      2 C                     0.918991
      3 C                    -0.323510
      4 C                    -0.919955
      5 C                     0.572660
      6 C                     0.412354
      7 C                    -2.015817
      8 O                    -0.193698
      9 C                     0.409239
     10 C                     0.919411
     11 Cl                    0.435284
     12 C                    -0.323403
     13 C                    -0.920323
     14 C                     0.573008
     15 C                     0.412917
     16 C                    -2.015166
     17 O                    -0.193740
     18 C                     0.409533
     19 H                     0.252268
     20 H                     0.234197
     21 H                     0.216982
     22 H                     0.252275
     23 H                     0.234190
     24 H                     0.216979
  ----------------------------------------
  Sum of atomic charges =     0.000000

                    Cartesian Multipole Moments
 -----------------------------------------------------------------
    Charge (ESU x 10^10)
                 0.0000
    Dipole Moment (Debye)
         X      -0.0000      Y       0.0003      Z       1.6528
       Tot       1.6528
    Quadrupole Moments (Debye-Ang)
        XX    -105.0913     XY      29.2901     YY    -113.1462
        XZ       0.0007     YZ      -0.0003     ZZ    -118.6539

 Total job time:  75.70s(wall), 459.22s(cpu)
        *  Thank you very much for using Q-Chem.  Have a nice day.  *
