 Q-Chem 5.4, Q-Chem, Inc., Pleasanton, CA (2021)
 Q-Chem 5.4.0 for Intel X86 EM64T Linux

User input:
--------------------------------------------------------------
$molecule
-3 1
C                 -1.7270390000      1.9745580000     -5.1533280000
C                 -1.7340340000      0.6467000000     -5.5345170000
C                 -1.4978350000     -0.3608210000     -4.5633970000
C                 -1.4864460000      2.3696730000     -3.8133090000
C                 -1.2169470000      1.3563080000     -2.8411740000
C                 -1.2526260000      0.0004860000     -3.2529490000
C                 -1.5231230000      3.7757190000     -3.4624840000
C                 -0.9310600000      1.6701740000     -1.4496340000
C                 -1.2178700000      4.1234470000     -2.0812750000
C                 -0.8611450000      3.0914020000     -1.1093830000
C                 -1.2600510000      5.5205980000     -1.6703850000
C                 -0.8755820000      5.8768280000     -0.3641080000
C                 -0.4523820000      4.8848670000      0.5349340000
C                 -0.4582360000      3.5593390000      0.1762900000
O                 -1.8019860000      4.6427160000     -4.3773320000
O                 -0.7681040000      0.7397610000     -0.6006990000
H                 -1.9123710000      2.7665800000     -5.8705640000
H                 -1.9231620000      0.3670460000     -6.5704610000
H                 -1.5086860000     -1.4097260000     -4.8581230000
H                 -1.0698380000     -0.7452500000     -2.4866680000
Br                 0.2863920000      2.3908360000      1.5806280000
N                 -1.6849180000      6.4711410000     -2.5547590000
S                 -0.9599190000      7.5854970000      0.2696470000
O                 -0.5694340000      8.4749040000     -0.8794290000
O                 -2.3659760000      7.8295530000      0.7098840000
O                  0.0140910000      7.6461570000      1.4000260000
H                 -0.1045040000      5.1949490000      1.5103070000
H                 -1.7714530000      6.1193510000     -3.5133400000
H                 -1.4236470000      7.4248260000     -2.3310200000
$end
$rem
MAX_SCF_CYCLES=200
BASIS  =  6-311++G(d,p)
GUI  =  2
JOB_TYPE  =  SP
METHOD  =  B3LYP
SOLVENT_METHOD = PCM
$end
$pcm
theory = CPCM
$end
$solvent
dielectric 37.219
opticaldielectric 1.43
$end

--------------------------------------------------------------

             Standard Nuclear Orientation (Angstroms)
    I     Atom           X                Y                Z
 ----------------------------------------------------------------
    1      C      -1.7270390000     1.9745580000    -5.1533280000
    2      C      -1.7340340000     0.6467000000    -5.5345170000
    3      C      -1.4978350000    -0.3608210000    -4.5633970000
    4      C      -1.4864460000     2.3696730000    -3.8133090000
    5      C      -1.2169470000     1.3563080000    -2.8411740000
    6      C      -1.2526260000     0.0004860000    -3.2529490000
    7      C      -1.5231230000     3.7757190000    -3.4624840000
    8      C      -0.9310600000     1.6701740000    -1.4496340000
    9      C      -1.2178700000     4.1234470000    -2.0812750000
   10      C      -0.8611450000     3.0914020000    -1.1093830000
   11      C      -1.2600510000     5.5205980000    -1.6703850000
   12      C      -0.8755820000     5.8768280000    -0.3641080000
   13      C      -0.4523820000     4.8848670000     0.5349340000
   14      C      -0.4582360000     3.5593390000     0.1762900000
   15      O      -1.8019860000     4.6427160000    -4.3773320000
   16      O      -0.7681040000     0.7397610000    -0.6006990000
   17      H      -1.9123710000     2.7665800000    -5.8705640000
   18      H      -1.9231620000     0.3670460000    -6.5704610000
   19      H      -1.5086860000    -1.4097260000    -4.8581230000
   20      H      -1.0698380000    -0.7452500000    -2.4866680000
   21      Br      0.2863920000     2.3908360000     1.5806280000
   22      N      -1.6849180000     6.4711410000    -2.5547590000
   23      S      -0.9599190000     7.5854970000     0.2696470000
   24      O      -0.5694340000     8.4749040000    -0.8794290000
   25      O      -2.3659760000     7.8295530000     0.7098840000
   26      O       0.0140910000     7.6461570000     1.4000260000
   27      H      -0.1045040000     5.1949490000     1.5103070000
   28      H      -1.7714530000     6.1193510000    -3.5133400000
   29      H      -1.4236470000     7.4248260000    -2.3310200000
 ----------------------------------------------------------------

    9   -3941.5788427408      5.82e-06  Convergence criterion met
 Total energy in the final basis set =    -3941.5788427408

                    Orbital Energies (a.u.)
 --------------------------------------------------------------

 Alpha MOs
 -- Occupied --
******** -89.0369 -62.4545 -56.2748 -56.2713 -56.2709 -19.0828 -19.0826
-19.0816 -19.0321 -19.0198 -14.2820 -10.2071 -10.1953 -10.1866 -10.1819
-10.1619 -10.1555 -10.1527 -10.1522 -10.1520 -10.1513 -10.1489 -10.1480
-10.1406 -10.1397  -8.6630  -8.0956  -6.4939  -6.4822  -6.4813  -6.0586
 -6.0583  -6.0570  -2.6049  -2.6017  -2.6010  -2.5918  -2.5917  -1.0971
 -0.9629  -0.9604  -0.9572  -0.9487  -0.8964  -0.8321  -0.8257  -0.7675
 -0.7578  -0.7250  -0.7181  -0.6898  -0.6469  -0.6233  -0.6036  -0.5798
 -0.5522  -0.5317  -0.5254  -0.4978  -0.4828  -0.4675  -0.4541  -0.4478
 -0.4435  -0.4369  -0.4211  -0.4162  -0.4005  -0.3950  -0.3926  -0.3812
 -0.3712  -0.3632  -0.3606  -0.3435  -0.3395  -0.3300  -0.3276  -0.3256
 -0.3178  -0.3105  -0.3058  -0.2897  -0.2880  -0.2803  -0.2698  -0.2651
 -0.2493  -0.2327  -0.2306  -0.2229  -0.2115  -0.1925  -0.1879  -0.1074

          Ground-State Mulliken Net Atomic Charges

     Atom                 Charge (a.u.)
  ----------------------------------------
      1 C                     0.040923
      2 C                    -0.594661
      3 C                    -0.450806
      4 C                    -0.113709
      5 C                     0.126581
      6 C                     0.030209
      7 C                    -0.324222
      8 C                    -1.100930
      9 C                     0.307832
     10 C                     0.847186
     11 C                     0.216153
     12 C                    -0.881879
     13 C                    -0.337411
     14 C                     0.181138
     15 O                    -0.612232
     16 O                    -0.554301
     17 H                     0.152947
     18 H                     0.176821
     19 H                     0.177323
     20 H                     0.149486
     21 Br                   -0.286716
     22 N                    -0.479802
     23 S                     0.724691
     24 O                    -0.471002
     25 O                    -0.377293
     26 O                    -0.406540
     27 H                     0.229977
     28 H                     0.351023
     29 H                     0.279202
  ----------------------------------------
  Sum of atomic charges =    -3.000012

                    Cartesian Multipole Moments
 -----------------------------------------------------------------
    Charge (ESU x 10^10)
               -14.4097
    Dipole Moment (Debye)
         X      15.4307      Y     -66.3513      Z      14.6049
       Tot      69.6700
    Quadrupole Moments (Debye-Ang)
        XX    -191.3228     XY      75.2322     YY    -596.0738
        XZ     -28.6248     YZ      38.7857     ZZ    -241.1326

 Total job time:  119.52s(wall), 562.85s(cpu)
        *  Thank you very much for using Q-Chem.  Have a nice day.  *
