 Gaussian 16, Revision A.03,
 Gaussian 16:  ES64L-G16RevA.03 25-Dec-2016

 --------------------------------------
 #P UB3LYP/6-311++G(d,p) nosym opt freq
 --------------------------------------

 --------
 Oxidized
 --------
 Symbolic Z-matrix:
 Charge =  0 Multiplicity = 1

 SCF Done:  E(UB3LYP) =  -845.385945460     A.U. after   16 cycles
 SCF Done:  E(UB3LYP) =  -845.391509422     A.U. after   16 cycles
 SCF Done:  E(UB3LYP) =  -845.392432800     A.U. after   15 cycles
 SCF Done:  E(UB3LYP) =  -845.392739555     A.U. after   14 cycles
 SCF Done:  E(UB3LYP) =  -845.392755883     A.U. after   13 cycles
 SCF Done:  E(UB3LYP) =  -845.392911338     A.U. after   13 cycles
 SCF Done:  E(UB3LYP) =  -845.393001824     A.U. after   13 cycles
 SCF Done:  E(UB3LYP) =  -845.393046994     A.U. after   13 cycles
 SCF Done:  E(UB3LYP) =  -845.393080216     A.U. after   13 cycles
 SCF Done:  E(UB3LYP) =  -845.393130729     A.U. after   13 cycles
 SCF Done:  E(UB3LYP) =  -845.393219513     A.U. after   12 cycles
 SCF Done:  E(UB3LYP) =  -845.393223728     A.U. after   14 cycles
 SCF Done:  E(UB3LYP) =  -845.393225730     A.U. after   12 cycles
 SCF Done:  E(UB3LYP) =  -845.393226095     A.U. after   11 cycles
 SCF Done:  E(UB3LYP) =  -845.393226129     A.U. after   11 cycles
 SCF Done:  E(UB3LYP) =  -845.393226191     A.U. after   10 cycles
 SCF Done:  E(UB3LYP) =  -845.393226287     A.U. after   11 cycles
 SCF Done:  E(UB3LYP) =  -845.393226289     A.U. after    8 cycles
 SCF Done:  E(UB3LYP) =  -845.393226293     A.U. after    9 cycles
 Optimization completed.
    -- Stationary point found.
 Normal termination of Gaussian 16 at Wed Dec 20 06:34:33 2023.

 ----------------------------------------------------------------------
 #P Geom=AllCheck Guess=TCheck SCRF=Check GenChk UB3LYP/6-311++G(d,p) F
 req
 ----------------------------------------------------------------------

 Structure from the checkpoint file:  "091.chk"
 --------
 Oxidized
 --------
 Charge =  0 Multiplicity = 1

                          Input orientation:
 ---------------------------------------------------------------------
 Center     Atomic      Atomic             Coordinates (Angstroms)
 Number     Number       Type             X           Y           Z
 ---------------------------------------------------------------------
      1          6           0       -0.918334    2.571200    0.182071
      2          6           0        0.490160    2.798518   -0.273461
      3          6           0        1.202024    1.794211   -0.823956
      4          6           0        0.584349    0.443462   -0.992690
      5          6           0       -0.820824    0.206458   -0.500675
      6          6           0       -1.519250    1.220198    0.077705
      7          8           0       -1.578171    3.502967    0.624890
      8          8           0        1.201861   -0.468847   -1.506977
      9          8           0       -2.831139    1.071094    0.424808
     10          8           0       -1.204546   -1.050187   -0.740778
     11          6           0       -3.192552    1.322534    1.794457
     12          6           0       -2.398745   -1.619565   -0.184634
     13          6           0        2.618763    1.942456   -1.307679
     14          6           0        1.033439    4.196405   -0.069527
     15          6           0        1.690713    4.352908    1.284063
     16          6           0        2.907630    4.837799    1.562816
     17          6           0        3.896509    5.341649    0.542131
     18          6           0        3.384012    4.938018    2.991909
     19          1           0       -3.019611    2.364087    2.060061
     20          1           0       -2.629859    0.660137    2.461985
     21          1           0       -4.254639    1.090994    1.863960
     22          1           0       -2.363583   -2.667074   -0.479434
     23          1           0       -3.290587   -1.139697   -0.583378
     24          1           0       -2.392956   -1.543424    0.905026
     25          1           0        3.227944    2.475269   -0.575458
     26          1           0        2.652756    2.508900   -2.244958
     27          1           0        3.057494    0.964520   -1.498529
     28          1           0        0.191568    4.892368   -0.131200
     29          1           0        1.723691    4.441061   -0.876596
     30          1           0        1.066870    4.044794    2.120292
     31          1           0        3.555051    5.232266   -0.486946
     32          1           0        4.853475    4.816141    0.640276
     33          1           0        4.108218    6.404034    0.710568
     34          1           0        2.635467    4.570765    3.696444
     35          1           0        3.619582    5.976160    3.254234
     36          1           0        4.304939    4.361369    3.138838
 ---------------------------------------------------------------------

 SCF Done:  E(UB3LYP) =  -845.393226293     A.U. after    2 cycles

 Alpha  occ. eigenvalues --  -19.17675 -19.15869 -19.13090 -19.12691 -10.27924
 Alpha  occ. eigenvalues --  -10.27634 -10.26420 -10.24833 -10.23373 -10.22591
 Alpha  occ. eigenvalues --  -10.20984 -10.20846 -10.18508 -10.18376 -10.17465
 Alpha  occ. eigenvalues --  -10.17208 -10.17170 -10.16843  -1.10136  -1.07762
 Alpha  occ. eigenvalues --   -1.05927  -1.05026  -0.86343  -0.82506  -0.80512
 Alpha  occ. eigenvalues --   -0.75941  -0.74697  -0.72255  -0.70125  -0.69137
 Alpha  occ. eigenvalues --   -0.66693  -0.64904  -0.59421  -0.59228  -0.55475
 Alpha  occ. eigenvalues --   -0.53361  -0.52551  -0.51560  -0.49708  -0.47535
 Alpha  occ. eigenvalues --   -0.46965  -0.46718  -0.45995  -0.45753  -0.45040
 Alpha  occ. eigenvalues --   -0.44143  -0.44047  -0.43803  -0.41669  -0.41623
 Alpha  occ. eigenvalues --   -0.41120  -0.40711  -0.39367  -0.38880  -0.38658
 Alpha  occ. eigenvalues --   -0.37947  -0.37577  -0.36474  -0.35927  -0.35516
 Alpha  occ. eigenvalues --   -0.34429  -0.31502  -0.28491  -0.27879  -0.26938
 Alpha  occ. eigenvalues --   -0.24667  -0.24131
 Alpha virt. eigenvalues --   -0.11954  -0.01621  -0.01287  -0.00830   0.00012
 Alpha virt. eigenvalues --    0.00348   0.00824   0.01166   0.01344   0.01869
 Alpha virt. eigenvalues --    0.02421   0.02642   0.03160   0.03545   0.03752

  Beta  occ. eigenvalues --  -19.17675 -19.15869 -19.13090 -19.12691 -10.27924
  Beta  occ. eigenvalues --  -10.27634 -10.26420 -10.24833 -10.23373 -10.22591
  Beta  occ. eigenvalues --  -10.20984 -10.20846 -10.18508 -10.18376 -10.17465
  Beta  occ. eigenvalues --  -10.17208 -10.17170 -10.16843  -1.10136  -1.07762
  Beta  occ. eigenvalues --   -1.05927  -1.05026  -0.86343  -0.82506  -0.80512
  Beta  occ. eigenvalues --   -0.75941  -0.74697  -0.72255  -0.70125  -0.69137
  Beta  occ. eigenvalues --   -0.66693  -0.64904  -0.59421  -0.59228  -0.55475
  Beta  occ. eigenvalues --   -0.53361  -0.52551  -0.51560  -0.49708  -0.47535
  Beta  occ. eigenvalues --   -0.46965  -0.46718  -0.45995  -0.45753  -0.45040
  Beta  occ. eigenvalues --   -0.44143  -0.44047  -0.43803  -0.41669  -0.41623
  Beta  occ. eigenvalues --   -0.41120  -0.40711  -0.39367  -0.38880  -0.38658
  Beta  occ. eigenvalues --   -0.37947  -0.37577  -0.36474  -0.35927  -0.35516
  Beta  occ. eigenvalues --   -0.34429  -0.31502  -0.28491  -0.27879  -0.26938
  Beta  occ. eigenvalues --   -0.24667  -0.24131
  Beta virt. eigenvalues --   -0.11954  -0.01621  -0.01287  -0.00830   0.00012
  Beta virt. eigenvalues --    0.00348   0.00824   0.01166   0.01344   0.01869
  Beta virt. eigenvalues --    0.02421   0.02642   0.03160   0.03545   0.03752

 Mulliken charges and spin densities:
               1          2
     1  C   -0.799677  -0.000000
     2  C    1.184577   0.000000
     3  C    0.475913   0.000000
     4  C   -0.850650   0.000000
     5  C    0.056800   0.000000
     6  C   -0.299010  -0.000000
     7  O   -0.230424  -0.000000
     8  O   -0.209890   0.000000
     9  O   -0.192292   0.000000
    10  O   -0.156623  -0.000000
    11  C   -0.291989  -0.000000
    12  C   -0.290522   0.000000
    13  C   -0.614911  -0.000000
    14  C    0.654915   0.000000
    15  C   -0.717663   0.000000
    16  C    0.493340  -0.000000
    17  C   -0.627794  -0.000000
    18  C   -0.587089  -0.000000
    19  H    0.173653   0.000000
    20  H    0.122674  -0.000000
    21  H    0.161398  -0.000000
    22  H    0.187694   0.000000
    23  H    0.192167  -0.000000
    24  H    0.164957  -0.000000
    25  H    0.177934   0.000000
    26  H    0.194042  -0.000000
    27  H    0.196343  -0.000000
    28  H    0.239613  -0.000000
    29  H    0.162479   0.000000
    30  H    0.188005  -0.000000
    31  H    0.113991  -0.000000
    32  H    0.146819   0.000000
    33  H    0.147692   0.000000
    34  H    0.148894  -0.000000
    35  H    0.139648   0.000000
    36  H    0.144987  -0.000000
 Sum of Mulliken charges =  -0.00000   0.00000

 Dipole moment (field-independent basis, Debye):
    X=              0.0572    Y=              0.3199    Z=              1.9852  Tot=              2.0116
 Quadrupole moment (field-independent basis, Debye-Ang):
   XX=           -100.2091   YY=           -109.4247   ZZ=           -106.3029
   XY=             17.1187   XZ=             -1.7508   YZ=             -4.0160

  Exact polarizability: 204.495  22.258 207.404 -15.219  33.238 153.640
 Approx polarizability: 297.855 -37.820 337.220 -39.497  67.810 233.940

                      1                      2                      3
                      A                      A                      A
 Frequencies --     17.9130                22.5535                35.6294
 Red. masses --      3.3576                 3.0787                 2.8545
 Frc consts  --      0.0006                 0.0009                 0.0021
 IR Inten    --      0.5680                 1.8650                 0.7977

                      4                      5                      6
                      A                      A                      A
 Frequencies --     48.7891                62.1040                69.9057
 Red. masses --      4.2180                 2.1604                 1.6480
 Frc consts  --      0.0059                 0.0049                 0.0047
 IR Inten    --      0.3967                 2.2063                 1.9017

                      7                      8                      9
                      A                      A                      A
 Frequencies --     81.0363                91.8597               109.2606
 Red. masses --      1.4783                 4.2000                 3.5826
 Frc consts  --      0.0057                 0.0209                 0.0252
 IR Inten    --      2.7124                 2.0759                 0.1512

                     10                     11                     12
                      A                      A                      A
 Frequencies --    137.9698               144.7919               179.0102
 Red. masses --      1.8076                 1.0831                 1.4082
 Frc consts  --      0.0203                 0.0134                 0.0266
 IR Inten    --      0.9603                 0.4753                 1.8453

                     13                     14                     15
                      A                      A                      A
 Frequencies --    187.0474               211.4450               224.1444
 Red. masses --      3.2547                 3.1066                 1.2901
 Frc consts  --      0.0671                 0.0818                 0.0382
 IR Inten    --      0.4641                 2.0770                 1.9192

                     16                     17                     18
                      A                      A                      A
 Frequencies --    240.9716               246.9497               279.3905
 Red. masses --      2.6128                 2.5315                 3.5444
 Frc consts  --      0.0894                 0.0910                 0.1630
 IR Inten    --      5.7502                 1.7345                 1.3478

                     19                     20                     21
                      A                      A                      A
 Frequencies --    327.7295               340.9169               343.6513
 Red. masses --      3.2552                 4.3010                 4.0459
 Frc consts  --      0.2060                 0.2945                 0.2815
 IR Inten    --      0.6947                 3.6319                 0.5067

                     22                     23                     24
                      A                      A                      A
 Frequencies --    359.3145               384.7910               395.5485
 Red. masses --      3.1005                 3.6491                 4.0555
 Frc consts  --      0.2358                 0.3183                 0.3739
 IR Inten    --      2.0347                 8.3728                 2.9272

                     25                     26                     27
                      A                      A                      A
 Frequencies --    431.2333               441.2976               452.6642
 Red. masses --      5.3064                 4.6441                 3.9182
 Frc consts  --      0.5814                 0.5329                 0.4730
 IR Inten    --     17.1971                13.0123                 1.5704

                     28                     29                     30
                      A                      A                      A
 Frequencies --    455.9631               486.2846               535.7791
 Red. masses --      3.6722                 5.1444                 3.4981
 Frc consts  --      0.4498                 0.7167                 0.5916
 IR Inten    --      3.2855                 2.1606                 9.9327

                     31                     32                     33
                      A                      A                      A
 Frequencies --    566.1350               638.6535               640.4799
 Red. masses --      6.4568                 6.4550                 5.4850
 Frc consts  --      1.2193                 1.5512                 1.3257
 IR Inten    --      4.4115                10.6264                 7.8949

                     34                     35                     36
                      A                      A                      A
 Frequencies --    722.6099               756.1080               782.2147
 Red. masses --      3.0794                 6.9450                 6.0629
 Frc consts  --      0.9474                 2.3393                 2.1857
 IR Inten    --      4.8639                11.3811                 1.0860

                     37                     38                     39
                      A                      A                      A
 Frequencies --    801.2416               849.6711               883.3200
 Red. masses --      2.4985                 2.2281                 2.9198
 Frc consts  --      0.9451                 0.9477                 1.3423
 IR Inten    --      6.3401                14.6082                 8.4300

                     40                     41                     42
                      A                      A                      A
 Frequencies --    939.6877               952.0992               959.4277
 Red. masses --      3.6809                 2.3964                 3.0351
 Frc consts  --      1.9150                 1.2799                 1.6461
 IR Inten    --     21.9520                38.4364                 8.6748

                     43                     44                     45
                      A                      A                      A
 Frequencies --    961.5986              1012.6752              1018.5666
 Red. masses --      1.8277                 1.3334                 2.4338
 Frc consts  --      0.9957                 0.8056                 1.4877
 IR Inten    --      3.3371                 4.7960                16.3234

                     46                     47                     48
                      A                      A                      A
 Frequencies --   1042.6867              1052.3090              1091.3622
 Red. masses --      1.8700                 2.4463                 2.3181
 Frc consts  --      1.1979                 1.5961                 1.6268
 IR Inten    --     50.4134                81.5572                47.8511

                     49                     50                     51
                      A                      A                      A
 Frequencies --   1100.5814              1119.6318              1122.7496
 Red. masses --      1.6684                 2.0193                 3.4058
 Frc consts  --      1.1907                 1.4914                 2.5295
 IR Inten    --      0.0436                30.2849                43.2215

                     52                     53                     54
                      A                      A                      A
 Frequencies --   1161.2199              1164.9113              1169.0485
 Red. masses --      1.2716                 1.2694                 2.8419
 Frc consts  --      1.0102                 1.0149                 2.2884
 IR Inten    --     19.9657                 2.9044               132.3198

                     55                     56                     57
                      A                      A                      A
 Frequencies --   1198.9926              1214.5226              1226.7771
 Red. masses --      1.7514                 1.6291                 2.2282
 Frc consts  --      1.4834                 1.4158                 1.9757
 IR Inten    --      2.6139                36.7179               130.5007

                     58                     59                     60
                      A                      A                      A
 Frequencies --   1261.1979              1280.7211              1313.6163
 Red. masses --      1.7141                 3.7611                 1.7693
 Frc consts  --      1.6064                 3.6347                 1.7988
 IR Inten    --     58.8639               343.5347                30.4143

                     61                     62                     63
                      A                      A                      A
 Frequencies --   1317.3913              1337.6002              1382.5248
 Red. masses --      8.8389                 2.8383                 1.3148
 Frc consts  --      9.0381                 2.9920                 1.4807
 IR Inten    --      8.7448                 2.7132                 3.9503

                     64                     65                     66
                      A                      A                      A
 Frequencies --   1406.3486              1410.3261              1421.2985
 Red. masses --      1.2577                 1.3474                 1.2482
 Frc consts  --      1.4655                 1.5790                 1.4856
 IR Inten    --      9.9948                12.1358                 2.5530

                     67                     68                     69
                      A                      A                      A
 Frequencies --   1460.8821              1471.2732              1472.6536
 Red. masses --      1.1614                 1.0763                 1.0763
 Frc consts  --      1.4604                 1.3726                 1.3753
 IR Inten    --     26.1308                 8.4700                 7.8334

                     70                     71                     72
                      A                      A                      A
 Frequencies --   1481.8237              1484.4352              1485.7595
 Red. masses --      1.0742                 1.1013                 1.1298
 Frc consts  --      1.3898                 1.4298                 1.4694
 IR Inten    --     11.8947                 9.3908                10.2704

                     73                     74                     75
                      A                      A                      A
 Frequencies --   1488.3651              1491.1467              1492.9009
 Red. masses --      1.0504                 1.0630                 1.0504
 Frc consts  --      1.3709                 1.3926                 1.3793
 IR Inten    --     14.3733                15.6800                 8.9972

                     76                     77                     78
                      A                      A                      A
 Frequencies --   1495.8664              1496.2038              1499.0038
 Red. masses --      1.0517                 1.0536                 1.0747
 Frc consts  --      1.3866                 1.3896                 1.4228
 IR Inten    --      7.9650                20.9354                 1.8681

                     79                     80                     81
                      A                      A                      A
 Frequencies --   1514.4013              1642.5324              1690.4193
 Red. masses --      1.0473                 9.2041                11.1230
 Frc consts  --      1.4152                14.6305                18.7266
 IR Inten    --     18.6217               331.4772               200.3041

                     82                     83                     84
                      A                      A                      A
 Frequencies --   1695.4681              1721.5694              1725.0779
 Red. masses --     10.1458                 6.3778                12.7627
 Frc consts  --     17.1837                11.1370                22.3774
 IR Inten    --     44.9113                 4.7783               234.9638

                     85                     86                     87
                      A                      A                      A
 Frequencies --   3004.9155              3012.5963              3013.1103
 Red. masses --      1.0385                 1.0408                 1.0435
 Frc consts  --      5.5250                 5.5654                 5.5815
 IR Inten    --     29.3944                59.2852                55.6012

                     88                     89                     90
                      A                      A                      A
 Frequencies --   3026.7941              3041.9072              3046.1027
 Red. masses --      1.0469                 1.0334                 1.0904
 Frc consts  --      5.6508                 5.6340                 5.9611
 IR Inten    --     12.2427                52.9010                12.0527

                     91                     92                     93
                      A                      A                      A
 Frequencies --   3046.6998              3049.6049              3089.6949
 Red. masses --      1.0730                 1.0988                 1.0900
 Frc consts  --      5.8684                 6.0208                 6.1305
 IR Inten    --      4.0692                34.4409                 7.0665

                     94                     95                     96
                      A                      A                      A
 Frequencies --   3099.6172              3103.1607              3109.4649
 Red. masses --      1.0988                 1.0960                 1.0887
 Frc consts  --      6.2200                 6.2183                 6.2022
 IR Inten    --     21.0792                 4.6476                30.6463

                     97                     98                     99
                      A                      A                      A
 Frequencies --   3118.3388              3123.1363              3130.5995
 Red. masses --      1.0933                 1.1004                 1.0887
 Frc consts  --      6.2637                 6.3239                 6.2868
 IR Inten    --     21.4986                27.2383                24.5389

                    100                    101                    102
                      A                      A                      A
 Frequencies --   3139.4775              3146.3749              3149.2889
 Red. masses --      1.0997                 1.1072                 1.1082
 Frc consts  --      6.3862                 6.4581                 6.4756
 IR Inten    --      1.8907                 8.3546                10.5327

 - Thermochemistry -
 -------------------
 Temperature   298.150 Kelvin.  Pressure   1.00000 Atm.
 Atom     1 has atomic number  6 and mass  12.00000

 Molecular mass:   250.12051 amu.
 Principal axes and moments of inertia in atomic units:
                           1         2         3
     Eigenvalues --  2634.386797420.275689132.22029
           X            0.68802   0.65313   0.31631
           Y            0.70143  -0.48673  -0.52066
           Z            0.18610  -0.58009   0.79300
 This molecule is an asymmetric top.
 Rotational symmetry number  1.
 Warning -- assumption of classical behavior for rotation
           may cause significant error
 Rotational temperatures (Kelvin)      0.03288     0.01167     0.00948
 Rotational constants (GHZ):           0.68507     0.24322     0.19762
 Zero-point vibrational energy     770915.0 (Joules/Mol)
                                  184.25310 (Kcal/Mol)
 Warning -- explicit consideration of  31 degrees of freedom as
           vibrations may cause significant error
 Vibrational temperatures:     25.77    32.45    51.26    70.20    89.35
          (Kelvin)            100.58   116.59   132.17   157.20   198.51
                              208.32   257.56   269.12   304.22   322.49
                              346.70   355.31   401.98   471.53   490.50
                              494.44   516.97   553.63   569.11   620.45
                              634.93   651.28   656.03   699.66   770.87
                              814.54   918.88   921.51  1039.67  1087.87
                             1125.43  1152.81  1222.49  1270.90  1352.00
                             1369.86  1380.40  1383.53  1457.01  1465.49
                             1500.19  1514.04  1570.23  1583.49  1610.90
                             1615.39  1670.74  1676.05  1682.00  1725.08
                             1747.43  1765.06  1814.58  1842.67  1890.00
                             1895.43  1924.51  1989.14  2023.42  2029.14
                             2044.93  2101.88  2116.83  2118.82  2132.01
                             2135.77  2137.68  2141.43  2145.43  2147.95
                             2152.22  2152.70  2156.73  2178.89  2363.24
                             2432.14  2439.40  2476.95  2482.00  4323.40
                             4334.45  4335.19  4354.88  4376.63  4382.66
                             4383.52  4387.70  4445.38  4459.66  4464.76
                             4473.83  4486.59  4493.50  4504.23  4517.01
                             4526.93  4531.12

 Zero-point correction=                           0.293626 (Hartree/Particle)
 Thermal correction to Energy=                    0.314030
 Thermal correction to Enthalpy=                  0.314974
 Thermal correction to Gibbs Free Energy=         0.241962
 Sum of electronic and zero-point Energies=           -845.099600
 Sum of electronic and thermal Energies=              -845.079196
 Sum of electronic and thermal Enthalpies=            -845.078252
 Sum of electronic and thermal Free Energies=         -845.151264

                     E (Thermal)             CV                S
                      KCal/Mol        Cal/Mol-Kelvin    Cal/Mol-Kelvin
 Total                  197.057             72.177            153.667
 Electronic               0.000              0.000              0.000
 Translational            0.889              2.981             42.451
 Rotational               0.889              2.981             33.545
 Vibrational            195.279             66.216             77.672
 Vibration     1          0.593              1.986              6.853
 Vibration     2          0.593              1.985              6.396
 Vibration     3          0.594              1.982              5.488
 Vibration     4          0.595              1.978              4.866
 Vibration     5          0.597              1.972              4.389
 Vibration     6          0.598              1.968              4.156
 Vibration     7          0.600              1.962              3.866
 Vibration     8          0.602              1.955              3.620
 Vibration     9          0.606              1.942              3.282
 Vibration    10          0.614              1.915              2.832
 Vibration    11          0.616              1.908              2.740
 Vibration    12          0.629              1.868              2.339
 Vibration    13          0.632              1.858              2.257
 Vibration    14          0.643              1.823              2.031
 Vibration    15          0.649              1.804              1.925
 Vibration    16          0.658              1.778              1.796
 Vibration    17          0.661              1.768              1.752
 Vibration    18          0.680              1.712              1.537
 Vibration    19          0.711              1.620              1.271
 Vibration    20          0.720              1.594              1.208
 Vibration    21          0.722              1.588              1.195
 Vibration    22          0.734              1.556              1.125
 Vibration    23          0.754              1.503              1.020
 Vibration    24          0.762              1.480              0.979
 Vibration    25          0.792              1.402              0.855
 Vibration    26          0.801              1.380              0.823
 Vibration    27          0.811              1.355              0.788
 Vibration    28          0.814              1.348              0.778
 Vibration    29          0.842              1.280              0.693
 Vibration    30          0.891              1.171              0.574
 Vibration    31          0.922              1.105              0.512

 Optimization completed.
    -- Stationary point found.
 Normal termination of Gaussian 16 at Wed Dec 20 07:38:05 2023.
