 Q-Chem 5.4, Q-Chem, Inc., Pleasanton, CA (2021)
 Q-Chem 5.4.0 for Intel X86 EM64T Linux

User input:
--------------------------------------------------------------
$molecule
-2 1
Cl                 2.3135120000     -2.0483560000      0.0546180000
C                  0.9415240000     -0.8886630000      0.0233380000
C                  1.1931240000      0.5019370000      0.0003960000
Cl                 2.8854490000      1.1079280000      0.0026180000
C                  0.1716920000      1.5075400000     -0.0254740000
O                  0.3778530000      2.7826350000     -0.0469680000
C                 -1.1329560000      0.9121360000     -0.0251590000
C                 -1.3810040000     -0.4569800000     -0.0025720000
C                 -0.3681100000     -1.4719520000      0.0236930000
O                 -0.6223910000     -2.7383180000      0.0441220000
H                 -1.9692810000      1.6114630000     -0.0443580000
H                 -2.4094130000     -0.8193690000     -0.0042540000
$end

$rem
BASIS  =  6-311++G(d,p)
GUI  =  2
JOB_TYPE  =  SP
METHOD  =  B3LYP
SCF_CONVERGENCE  = 8
SOLVENT_METHOD = sm12
$end

$smx
solvent dimethylformamide
charges CM5
$end

--------------------------------------------------------------

             Standard Nuclear Orientation (Angstroms)
    I     Atom           X                Y                Z
 ----------------------------------------------------------------
    1      Cl      2.3135120000    -2.0483560000     0.0546180000
    2      C       0.9415240000    -0.8886630000     0.0233380000
    3      C       1.1931240000     0.5019370000     0.0003960000
    4      Cl      2.8854490000     1.1079280000     0.0026180000
    5      C       0.1716920000     1.5075400000    -0.0254740000
    6      O       0.3778530000     2.7826350000    -0.0469680000
    7      C      -1.1329560000     0.9121360000    -0.0251590000
    8      C      -1.3810040000    -0.4569800000    -0.0025720000
    9      C      -0.3681100000    -1.4719520000     0.0236930000
   10      O      -0.6223910000    -2.7383180000     0.0441220000
   11      H      -1.9692810000     1.6114630000    -0.0443580000
   12      H      -2.4094130000    -0.8193690000    -0.0042540000
 ----------------------------------------------------------------

   16   -1300.7983808102      6.19e-09  Convergence criterion met
 Total energy in the final basis set =    -1301.0825032673

                    Orbital Energies (a.u.)
 --------------------------------------------------------------

 Alpha MOs
 -- Occupied --
********-101.5310 -19.0217 -19.0217 -10.1999 -10.1995 -10.1913 -10.1913
-10.1490 -10.1485  -9.4439  -9.4438  -7.2083  -7.2081  -7.1994  -7.1993
 -7.1984  -7.1984  -0.9397  -0.9350  -0.8552  -0.8146  -0.7844  -0.6942
 -0.6635  -0.5695  -0.5473  -0.4605  -0.4457  -0.4266  -0.3978  -0.3889
 -0.3637  -0.3488  -0.3472  -0.3333  -0.3196  -0.2994  -0.2954  -0.2757
 -0.2350  -0.2195  -0.2007  -0.1999  -0.1299

          Ground-State Mulliken Net Atomic Charges

     Atom                 Charge (a.u.)
  ----------------------------------------
      1 Cl                    0.809045
      2 C                     1.122658
      3 C                     1.131435
      4 Cl                    0.806348
      5 C                    -1.810204
      6 O                    -0.417440
      7 C                    -0.729764
      8 C                    -0.725574
      9 C                    -1.807333
     10 O                    -0.416711
     11 H                     0.018787
     12 H                     0.018753
  ----------------------------------------
  Sum of atomic charges =    -2.000000

                    Cartesian Multipole Moments
 -----------------------------------------------------------------
    Charge (ESU x 10^10)
                -9.6064
    Dipole Moment (Debye)
         X      -2.7701      Y       0.4972      Z      -0.0309
       Tot       2.8146
    Quadrupole Moments (Debye-Ang)
        XX     -99.5165     XY      -7.4570     YY    -139.2537
        XZ      -0.0125     YZ       0.9883     ZZ     -80.7924

 Total job time:  125.00s(wall), 787.98s(cpu)
        *  Thank you very much for using Q-Chem.  Have a nice day.  *
