 Gaussian 16, Revision A.03,
 Gaussian 16:  ES64L-G16RevA.03 25-Dec-2016

 --------------------------------------
 #P UB3LYP/6-311++G(d,p) nosym opt freq
 --------------------------------------

 -------
 Reduced
 -------
 Symbolic Z-matrix:
 Charge = -2 Multiplicity = 1

 SCF Done:  E(UB3LYP) =  -766.766189287     A.U. after   80 cycles
 SCF Done:  E(UB3LYP) =  -766.790834932     A.U. after   31 cycles
 SCF Done:  E(UB3LYP) =  -766.795312295     A.U. after   32 cycles
 SCF Done:  E(UB3LYP) =  -766.794902467     A.U. after   33 cycles
 SCF Done:  E(UB3LYP) =  -766.796920572     A.U. after   31 cycles
 SCF Done:  E(UB3LYP) =  -766.798926632     A.U. after   35 cycles
 SCF Done:  E(UB3LYP) =  -766.801311994     A.U. after   31 cycles
 SCF Done:  E(UB3LYP) =  -766.800051033     A.U. after   31 cycles
 SCF Done:  E(UB3LYP) =  -766.806657450     A.U. after   27 cycles
 SCF Done:  E(UB3LYP) =  -766.804280093     A.U. after   29 cycles
 SCF Done:  E(UB3LYP) =  -766.813266265     A.U. after   22 cycles
 SCF Done:  E(UB3LYP) =  -766.813280730     A.U. after   23 cycles
 SCF Done:  E(UB3LYP) =  -766.813294723     A.U. after   20 cycles
 SCF Done:  E(UB3LYP) =  -766.813307410     A.U. after   22 cycles
 SCF Done:  E(UB3LYP) =  -766.813310322     A.U. after   23 cycles
 SCF Done:  E(UB3LYP) =  -766.813311048     A.U. after   18 cycles
 SCF Done:  E(UB3LYP) =  -766.813311476     A.U. after   20 cycles
 SCF Done:  E(UB3LYP) =  -766.813311816     A.U. after   18 cycles
 SCF Done:  E(UB3LYP) =  -766.813311886     A.U. after   20 cycles
 Optimization completed.
    -- Stationary point found.
 Normal termination of Gaussian 16 at Mon Dec 18 01:12:32 2023.

 ----------------------------------------------------------------------
 #P Geom=AllCheck Guess=TCheck SCRF=Check GenChk UB3LYP/6-311++G(d,p) F
 req
 ----------------------------------------------------------------------

 Structure from the checkpoint file:  "051-an.chk"
 -------
 Reduced
 -------
 Charge = -2 Multiplicity = 1

                          Input orientation:
 ---------------------------------------------------------------------
 Center     Atomic      Atomic             Coordinates (Angstroms)
 Number     Number       Type             X           Y           Z
 ---------------------------------------------------------------------
      1          6           0        3.382449    5.996937    0.526521
      2          6           0        2.193197    5.351706    1.016197
      3          6           0        2.204335    4.010046    1.431513
      4          6           0        3.394787    3.204000    1.383209
      5          6           0        4.585300    3.847289    0.887538
      6          6           0        4.573614    5.185777    0.482903
      7          8           0        3.405500    7.234404    0.132975
      8          8           0        3.382609    1.960141    1.773990
      9          6           0        5.806788    5.880847   -0.044622
     10          6           0        5.840029    3.000392    0.847412
     11          6           0        0.936341    6.192778    1.046081
     12          6           0        0.972067    3.329696    1.987092
     13          6           0        0.529107    2.125667    1.129542
     14          6           0       -0.697527    1.401613    1.610456
     15          8           0       -1.221630    1.480896    2.696195
     16          8           0       -1.277251    0.554295    0.682132
     17          1           0        6.680339    5.223148   -0.076109
     18          1           0        6.050988    6.761626    0.565946
     19          1           0        5.626181    6.278502   -1.053351
     20          1           0        5.583638    2.005161    1.218780
     21          1           0        6.647861    3.408566    1.475080
     22          1           0        6.252803    2.898343   -0.167844
     23          1           0        1.183425    7.175408    0.636597
     24          1           0        0.537421    6.332563    2.062504
     25          1           0        0.119648    5.758343    0.447244
     26          1           0        0.139771    4.029759    2.090382
     27          1           0        1.193066    2.931701    2.984929
     28          1           0        1.390509    1.436378    1.134995
     29          1           0        0.375387    2.433362    0.085874
     30          1           0       -0.789391    0.614385   -0.153841
 ---------------------------------------------------------------------

 SCF Done:  E(UB3LYP) =  -766.813311886     A.U. after    1 cycles

 Alpha  occ. eigenvalues --  -18.96086 -18.90370 -18.77932 -18.77321 -10.09310
 Alpha  occ. eigenvalues --   -9.95352  -9.93084  -9.92938  -9.92698  -9.92035
 Alpha  occ. eigenvalues --   -9.91958  -9.91425  -9.89641  -9.89513  -9.89384
 Alpha  occ. eigenvalues --   -9.89262  -0.89172  -0.81336  -0.69091  -0.68410
 Alpha  occ. eigenvalues --   -0.56781  -0.54988  -0.51870  -0.47469  -0.45972
 Alpha  occ. eigenvalues --   -0.43844  -0.40126  -0.37447  -0.36663  -0.29638
 Alpha  occ. eigenvalues --   -0.28307  -0.27446  -0.26077  -0.24617  -0.23361
 Alpha  occ. eigenvalues --   -0.20270  -0.19159  -0.18148  -0.17628  -0.16779
 Alpha  occ. eigenvalues --   -0.15843  -0.15472  -0.14731  -0.14151  -0.13950
 Alpha  occ. eigenvalues --   -0.12225  -0.12007  -0.11834  -0.11281  -0.10710
 Alpha  occ. eigenvalues --   -0.08749  -0.07485  -0.07234  -0.06618  -0.05772
 Alpha  occ. eigenvalues --    0.02366   0.03904   0.04276   0.05253   0.12966
 Alpha virt. eigenvalues --    0.14831   0.16689   0.18014   0.18548   0.19780
 Alpha virt. eigenvalues --    0.20151   0.20432   0.20919   0.21212   0.21715
 Alpha virt. eigenvalues --    0.22352   0.22575   0.22864   0.23368   0.23987

  Beta  occ. eigenvalues --  -18.96086 -18.90370 -18.77932 -18.77321 -10.09310
  Beta  occ. eigenvalues --   -9.95352  -9.93084  -9.92938  -9.92698  -9.92035
  Beta  occ. eigenvalues --   -9.91958  -9.91425  -9.89641  -9.89513  -9.89384
  Beta  occ. eigenvalues --   -9.89262  -0.89172  -0.81336  -0.69091  -0.68410
  Beta  occ. eigenvalues --   -0.56781  -0.54988  -0.51870  -0.47469  -0.45972
  Beta  occ. eigenvalues --   -0.43844  -0.40126  -0.37447  -0.36663  -0.29638
  Beta  occ. eigenvalues --   -0.28307  -0.27446  -0.26077  -0.24617  -0.23361
  Beta  occ. eigenvalues --   -0.20270  -0.19159  -0.18148  -0.17628  -0.16779
  Beta  occ. eigenvalues --   -0.15843  -0.15472  -0.14731  -0.14151  -0.13950
  Beta  occ. eigenvalues --   -0.12225  -0.12007  -0.11834  -0.11281  -0.10710
  Beta  occ. eigenvalues --   -0.08749  -0.07485  -0.07234  -0.06618  -0.05772
  Beta  occ. eigenvalues --    0.02366   0.03904   0.04276   0.05253   0.12966
  Beta virt. eigenvalues --    0.14831   0.16689   0.18014   0.18548   0.19780
  Beta virt. eigenvalues --    0.20151   0.20432   0.20919   0.21212   0.21715
  Beta virt. eigenvalues --    0.22352   0.22575   0.22864   0.23368   0.23987

 Mulliken charges and spin densities:
               1          2
     1  C   -1.504075   0.000000
     2  C    1.170843  -0.000000
     3  C    1.205343  -0.000000
     4  C   -1.628590   0.000000
     5  C    0.650035  -0.000000
     6  C    0.820189   0.000000
     7  O   -0.521486  -0.000000
     8  O   -0.517190  -0.000000
     9  C   -0.552879  -0.000000
    10  C   -0.759786  -0.000000
    11  C   -0.640720   0.000000
    12  C   -0.082928   0.000000
    13  C   -0.652616  -0.000000
    14  C    0.269353   0.000000
    15  O   -0.311348  -0.000000
    16  O   -0.208929  -0.000000
    17  H    0.110360  -0.000000
    18  H    0.120583  -0.000000
    19  H    0.113910  -0.000000
    20  H    0.195720  -0.000000
    21  H    0.073315   0.000000
    22  H    0.087220   0.000000
    23  H    0.186015  -0.000000
    24  H    0.109802  -0.000000
    25  H    0.032741  -0.000000
    26  H    0.173889   0.000000
    27  H    0.129676  -0.000000
    28  H    0.308470   0.000000
    29  H   -0.067569   0.000000
    30  H   -0.309348   0.000000
 Sum of Mulliken charges =  -2.00000   0.00000

 Dipole moment (field-independent basis, Debye):
    X=            -22.1035    Y=            -37.2089    Z=             -9.8930  Tot=             44.3953
 Quadrupole moment (field-independent basis, Debye-Ang):
   XX=           -223.0720   YY=           -328.0073   ZZ=           -133.5338
   XY=           -121.5494   XZ=            -14.8184   YZ=            -22.1233

  Exact polarizability: 749.447 435.607 714.339 211.367 195.804 336.347
 Approx polarizability:2071.3301571.2661878.272 810.582 746.436 715.153

 ******    1 imaginary frequencies (negative Signs) ******

                      1                      2                      3
                      A                      A                      A
 Frequencies --    -77.2950                36.0538                45.6208
 Red. masses --      1.0324                 5.9412                 5.8887
 Frc consts  --      0.0036                 0.0046                 0.0072
 IR Inten    --      0.5854                 4.0952                 0.4130

                      4                      5                      6
                      A                      A                      A
 Frequencies --     54.6372                96.5155               113.7033
 Red. masses --      5.6778                 3.1933                 1.6145
 Frc consts  --      0.0100                 0.0175                 0.0123
 IR Inten    --     10.9081                10.5095                 6.6423

                      7                      8                      9
                      A                      A                      A
 Frequencies --    116.6505               134.5982               139.6308
 Red. masses --      2.0990                 1.6118                 1.4690
 Frc consts  --      0.0168                 0.0172                 0.0169
 IR Inten    --      2.8099                34.0414                 7.9843

                     10                     11                     12
                      A                      A                      A
 Frequencies --    164.3298               184.9300               215.6234
 Red. masses --      2.4687                 6.5414                 4.3552
 Frc consts  --      0.0393                 0.1318                 0.1193
 IR Inten    --     18.0709                 3.8993                 4.9613

                     13                     14                     15
                      A                      A                      A
 Frequencies --    287.8620               308.1938               324.3429
 Red. masses --      2.7495                 2.8735                 3.2715
 Frc consts  --      0.1342                 0.1608                 0.2028
 IR Inten    --      9.3320                 8.1835                11.5299

                     16                     17                     18
                      A                      A                      A
 Frequencies --    337.3110               351.4247               370.9499
 Red. masses --      2.9930                 4.1218                 6.2988
 Frc consts  --      0.2006                 0.2999                 0.5107
 IR Inten    --      8.3412                 0.4376                 2.7928

                     19                     20                     21
                      A                      A                      A
 Frequencies --    400.1241               445.2099               454.5937
 Red. masses --      8.8221                 5.5399                 4.4680
 Frc consts  --      0.8322                 0.6470                 0.5440
 IR Inten    --      9.5496               230.6559               239.2801

                     22                     23                     24
                      A                      A                      A
 Frequencies --    471.7506               488.6783               548.6406
 Red. masses --      5.1906                 1.2302                 3.6866
 Frc consts  --      0.6806                 0.1731                 0.6538
 IR Inten    --    160.1370                18.5469                28.8737

                     25                     26                     27
                      A                      A                      A
 Frequencies --    564.7187               586.8344               609.7889
 Red. masses --      5.1729                 2.3198                 5.6473
 Frc consts  --      0.9720                 0.4707                 1.2372
 IR Inten    --     57.2001                18.3982                34.6702

                     28                     29                     30
                      A                      A                      A
 Frequencies --    663.8419               679.7502               720.6306
 Red. masses --      3.2599                 4.5446                 6.0322
 Frc consts  --      0.8464                 1.2372                 1.8457
 IR Inten    --     19.7159                 2.0686                 1.5220

                     31                     32                     33
                      A                      A                      A
 Frequencies --    761.9485               778.3094               860.3463
 Red. masses --      1.9873                 3.6273                 2.7856
 Frc consts  --      0.6798                 1.2946                 1.2148
 IR Inten    --     34.0973                26.7113                45.3008

                     34                     35                     36
                      A                      A                      A
 Frequencies --    869.3073               901.0971               982.9874
 Red. masses --      3.1952                 3.5512                 1.5737
 Frc consts  --      1.4227                 1.6989                 0.8959
 IR Inten    --     35.4617                99.2631                60.4124

                     37                     38                     39
                      A                      A                      A
 Frequencies --   1001.4576              1015.7338              1026.4677
 Red. masses --      1.9801                 4.1615                 1.4322
 Frc consts  --      1.1701                 2.5297                 0.8891
 IR Inten    --     19.6715                27.5583                 0.1438

                     40                     41                     42
                      A                      A                      A
 Frequencies --   1028.7955              1038.0449              1043.2762
 Red. masses --      3.2707                 1.4919                 1.4894
 Frc consts  --      2.0396                 0.9472                 0.9551
 IR Inten    --      0.5245                 1.1901                 0.7873

                     43                     44                     45
                      A                      A                      A
 Frequencies --   1078.5230              1095.0138              1100.8758
 Red. masses --      2.4274                 2.4853                 2.6085
 Frc consts  --      1.6636                 1.7558                 1.8626
 IR Inten    --      3.6449                 2.1588                63.9769

                     46                     47                     48
                      A                      A                      A
 Frequencies --   1147.8213              1164.8747              1219.0481
 Red. masses --      2.3435                 2.0369                 4.0904
 Frc consts  --      1.8191                 1.6284                 3.5814
 IR Inten    --    555.4678               259.0030               374.8810

                     49                     50                     51
                      A                      A                      A
 Frequencies --   1232.0131              1258.9492              1299.8283
 Red. masses --      1.5144                 1.4981                 3.4373
 Frc consts  --      1.3543                 1.3990                 3.4217
 IR Inten    --   1758.8523               104.5697                38.9517

                     52                     53                     54
                      A                      A                      A
 Frequencies --   1315.2288              1342.6872              1349.4334
 Red. masses --      1.3430                 1.8389                 1.5436
 Frc consts  --      1.3687                 1.9533                 1.6561
 IR Inten    --     20.7160               545.3210               116.9588

                     55                     56                     57
                      A                      A                      A
 Frequencies --   1357.9414              1374.6047              1389.7253
 Red. masses --      1.4634                 1.4848                 1.8559
 Frc consts  --      1.5899                 1.6530                 2.1118
 IR Inten    --     30.5979               231.6664               750.1026

                     58                     59                     60
                      A                      A                      A
 Frequencies --   1429.8444              1447.2694              1451.3140
 Red. masses --      3.9161                 2.1711                 1.3509
 Frc consts  --      4.7172                 2.6793                 1.6765
 IR Inten    --    677.1608                62.0610                19.5899

                     61                     62                     63
                      A                      A                      A
 Frequencies --   1451.6724              1456.7571              1471.5368
 Red. masses --      1.3115                 1.0516                 1.1876
 Frc consts  --      1.6284                 1.3149                 1.5151
 IR Inten    --     32.6666                 1.0878                31.0157

                     64                     65                     66
                      A                      A                      A
 Frequencies --   1479.3787              1486.5890              1496.8794
 Red. masses --      1.1058                 1.6678                 1.4442
 Frc consts  --      1.4258                 2.1716                 1.9066
 IR Inten    --     82.3881                85.9759                12.1687

                     67                     68                     69
                      A                      A                      A
 Frequencies --   1500.2598              1501.1567              1577.3551
 Red. masses --      1.0546                 1.2696                 5.8764
 Frc consts  --      1.3985                 1.6857                 8.6142
 IR Inten    --      1.7171                 9.1991              1976.2996

                     70                     71                     72
                      A                      A                      A
 Frequencies --   1786.7941              2935.1555              2938.1594
 Red. masses --      9.5515                 1.0467                 1.0635
 Frc consts  --     17.9668                 5.3129                 5.4091
 IR Inten    --    381.2402               350.8698               513.9082

                     73                     74                     75
                      A                      A                      A
 Frequencies --   2939.5725              2954.8682              2956.0647
 Red. masses --      1.0478                 1.0940                 1.0942
 Frc consts  --      5.3346                 5.6279                 5.6333
 IR Inten    --    389.4876                12.5226               178.8736

                     76                     77                     78
                      A                      A                      A
 Frequencies --   2968.1716              2981.1287              2996.0289
 Red. masses --      1.0395                 1.0977                 1.0870
 Frc consts  --      5.3959                 5.7476                 5.7485
 IR Inten    --    714.3403               123.6608                20.9168

                     79                     80                     81
                      A                      A                      A
 Frequencies --   3009.2844              3062.2192              3071.6576
 Red. masses --      1.0706                 1.0942                 1.0929
 Frc consts  --      5.7124                 6.0451                 6.0755
 IR Inten    --     94.0539                77.1282                46.4373

                     82                     83                     84
                      A                      A                      A
 Frequencies --   3073.6342              3074.5515              3680.3134
 Red. masses --      1.0922                 1.0912                 1.0661
 Frc consts  --      6.0794                 6.0773                 8.5079
 IR Inten    --      2.6248                 6.7675              1620.0060

 - Thermochemistry -
 -------------------
 Temperature   298.150 Kelvin.  Pressure   1.00000 Atm.
 Atom     1 has atomic number  6 and mass  12.00000

 Molecular mass:   222.08921 amu.
 Principal axes and moments of inertia in atomic units:
                           1         2         3
     Eigenvalues --  1944.360406279.112887710.83298
           X            0.77680  -0.62186   0.09942
           Y            0.60474   0.78064   0.15776
           Z           -0.17571  -0.06243   0.98246
 This molecule is an asymmetric top.
 Rotational symmetry number  1.
 Warning -- assumption of classical behavior for rotation
           may cause significant error
 Rotational temperatures (Kelvin)      0.04455     0.01379     0.01123
 Rotational constants (GHZ):           0.92819     0.28742     0.23405
    1 imaginary frequencies ignored.
 Zero-point vibrational energy     610866.5 (Joules/Mol)
                                  146.00059 (Kcal/Mol)
 Warning -- explicit consideration of  26 degrees of freedom as
           vibrations may cause significant error
 Vibrational temperatures:     51.87    65.64    78.61   138.86   163.59
          (Kelvin)            167.83   193.66   200.90   236.43   266.07
                              310.23   414.17   443.42   466.66   485.32
                              505.62   533.71   575.69   640.56   654.06
                              678.74   703.10   789.37   812.50   844.32
                              877.35   955.12   978.01  1036.83  1096.27
                             1119.81  1237.85  1250.74  1296.48  1414.30
                             1440.87  1461.41  1476.86  1480.21  1493.52
                             1501.04  1551.75  1575.48  1583.91  1651.46
                             1675.99  1753.94  1772.59  1811.35  1870.16
                             1892.32  1931.83  1941.53  1953.77  1977.75
                             1999.50  2057.23  2082.30  2088.12  2088.63
                             2095.95  2117.21  2128.50  2138.87  2153.68
                             2158.54  2159.83  2269.46  2570.80  4223.03
                             4227.36  4229.39  4251.40  4253.12  4270.54
                             4289.18  4310.62  4329.69  4405.85  4419.43
                             4422.27  4423.59  5295.15

 Zero-point correction=                           0.232667 (Hartree/Particle)
 Thermal correction to Energy=                    0.248815
 Thermal correction to Enthalpy=                  0.249759
 Thermal correction to Gibbs Free Energy=         0.188362
 Sum of electronic and zero-point Energies=           -766.580645
 Sum of electronic and thermal Energies=              -766.564497
 Sum of electronic and thermal Enthalpies=            -766.563552
 Sum of electronic and thermal Free Energies=         -766.624950

                     E (Thermal)             CV                S
                      KCal/Mol        Cal/Mol-Kelvin    Cal/Mol-Kelvin
 Total                  156.134             59.738            129.221
 Electronic               0.000              0.000              0.000
 Translational            0.889              2.981             42.096
 Rotational               0.889              2.981             32.909
 Vibrational            154.356             53.776             54.216
 Vibration     1          0.594              1.982              5.465
 Vibration     2          0.595              1.979              4.999
 Vibration     3          0.596              1.976              4.642
 Vibration     4          0.603              1.952              3.523
 Vibration     5          0.607              1.938              3.205
 Vibration     6          0.608              1.936              3.155
 Vibration     7          0.613              1.919              2.879
 Vibration     8          0.615              1.914              2.809
 Vibration     9          0.623              1.886              2.499
 Vibration    10          0.631              1.860              2.278
 Vibration    11          0.645              1.817              1.996
 Vibration    12          0.685              1.696              1.486
 Vibration    13          0.698              1.658              1.372
 Vibration    14          0.709              1.627              1.288
 Vibration    15          0.718              1.601              1.225
 Vibration    16          0.728              1.572              1.160
 Vibration    17          0.743              1.532              1.076
 Vibration    18          0.766              1.470              0.962
 Vibration    19          0.805              1.371              0.810
 Vibration    20          0.813              1.351              0.782
 Vibration    21          0.829              1.313              0.733
 Vibration    22          0.845              1.275              0.687
 Vibration    23          0.904              1.143              0.547
 Vibration    24          0.921              1.108              0.514
 Vibration    25          0.944              1.060              0.473
 Vibration    26          0.969              1.011              0.433

 Optimization completed.
    -- Stationary point found.
 Normal termination of Gaussian 16 at Mon Dec 18 02:01:13 2023.
