 Q-Chem 5.4, Q-Chem, Inc., Pleasanton, CA (2021)
 Q-Chem 5.4.0 for Intel X86 EM64T Linux

User input:
--------------------------------------------------------------
$molecule
0 1
C                  6.9072270000     -1.6385930000     -0.2581940000
C                  7.4659780000     -0.6717450000     -1.0856220000
C                  6.6597520000      0.3233240000     -1.6451300000
C                  5.2963400000      0.3497310000     -1.3762470000
C                  4.7248230000     -0.6183870000     -0.5452400000
C                  5.5367000000     -1.6203120000      0.0181520000
C                  4.9654820000     -2.6707470000      0.9094630000
C                  3.4960870000     -2.6164190000      1.1801600000
C                  2.6870510000     -1.6151600000      0.6167200000
C                  3.2587280000     -0.5651430000     -0.2743780000
C                  2.9331640000     -3.5885340000      2.0121470000
C                  1.5693070000     -3.5571060000      2.2774070000
C                  0.7539420000     -2.5652520000      1.7223140000
C                  1.3174270000     -1.6013710000      0.8961690000
O                  5.6655280000     -3.5405790000      1.3994270000
O                  2.5530070000      0.3029110000     -0.7617480000
H                  7.5130320000     -2.4186580000      0.1859560000
H                  4.6530510000      1.1114840000     -1.7989880000
H                  3.5805330000     -4.3472680000      2.4317360000
H                  0.7057520000     -0.8237900000      0.4551500000
I                  0.7160180000     -5.0213600000      3.5316450000
H                  8.5290740000     -0.6904410000     -1.2967030000
H                  7.0976270000      1.0765000000     -2.2901920000
H                 -0.3076290000     -2.5470920000      1.9334550000
$end

$rem
BASIS  =  6-311++G(d,p)
GUI  =  2
JOB_TYPE  =  SP
METHOD  =  B3LYP
SCF_CONVERGENCE  = 8
SOLVENT_METHOD = sm12
$end

$smx
solvent dimethylformamide
charges CM5
$end

--------------------------------------------------------------

             Standard Nuclear Orientation (Angstroms)
    I     Atom           X                Y                Z
 ----------------------------------------------------------------
    1      C       6.9072270000    -1.6385930000    -0.2581940000
    2      C       7.4659780000    -0.6717450000    -1.0856220000
    3      C       6.6597520000     0.3233240000    -1.6451300000
    4      C       5.2963400000     0.3497310000    -1.3762470000
    5      C       4.7248230000    -0.6183870000    -0.5452400000
    6      C       5.5367000000    -1.6203120000     0.0181520000
    7      C       4.9654820000    -2.6707470000     0.9094630000
    8      C       3.4960870000    -2.6164190000     1.1801600000
    9      C       2.6870510000    -1.6151600000     0.6167200000
   10      C       3.2587280000    -0.5651430000    -0.2743780000
   11      C       2.9331640000    -3.5885340000     2.0121470000
   12      C       1.5693070000    -3.5571060000     2.2774070000
   13      C       0.7539420000    -2.5652520000     1.7223140000
   14      C       1.3174270000    -1.6013710000     0.8961690000
   15      O       5.6655280000    -3.5405790000     1.3994270000
   16      O       2.5530070000     0.3029110000    -0.7617480000
   17      H       7.5130320000    -2.4186580000     0.1859560000
   18      H       4.6530510000     1.1114840000    -1.7989880000
   19      H       3.5805330000    -4.3472680000     2.4317360000
   20      H       0.7057520000    -0.8237900000     0.4551500000
   21      I       0.7160180000    -5.0213600000     3.5316450000
   22      H       8.5290740000    -0.6904410000    -1.2967030000
   23      H       7.0976270000     1.0765000000    -2.2901920000
   24      H      -0.3076290000    -2.5470920000     1.9334550000
 ----------------------------------------------------------------

   15   -7607.8653119298      3.00e-09  Convergence criterion met
 Total energy in the final basis set =    -7607.8876715197

                    Orbital Energies (a.u.)
 --------------------------------------------------------------

 Alpha MOs
 -- Occupied --
********-176.3091-165.7127-165.7107-165.7106 -35.8055 -31.2986 -31.2928
-31.2926 -22.9491 -22.9478 -22.9476 -22.9436 -22.9436 -19.1357 -19.1340
-10.2882 -10.2865 -10.2501 -10.2207 -10.2175 -10.2133 -10.2130 -10.2128
-10.2125 -10.2091 -10.2008 -10.2005 -10.2001 -10.1999  -6.3549  -4.7670
 -4.7528  -4.7525  -2.0329  -2.0284  -2.0281  -2.0159  -2.0158  -1.0709
 -1.0682  -0.9053  -0.8895  -0.8238  -0.7932  -0.7814  -0.7803  -0.7028
 -0.6862  -0.6611  -0.6338  -0.6228  -0.5926  -0.5675  -0.5514  -0.5110
 -0.4969  -0.4935  -0.4739  -0.4637  -0.4624  -0.4593  -0.4531  -0.4490
 -0.4397  -0.4242  -0.4059  -0.3956  -0.3839  -0.3777  -0.3716  -0.3649
 -0.3177  -0.2932  -0.2924  -0.2853  -0.2812  -0.2810  -0.2763  -0.2582

          Ground-State Mulliken Net Atomic Charges

     Atom                 Charge (a.u.)
  ----------------------------------------
      1 C                     0.224143
      2 C                     0.443840
      3 C                     0.449539
      4 C                     0.291296
      5 C                    -0.255322
      6 C                    -0.241171
      7 C                    -1.137110
      8 C                    -0.374928
      9 C                    -0.113664
     10 C                    -1.227530
     11 C                    -0.086116
     12 C                     0.206635
     13 C                     0.250568
     14 C                     0.217362
     15 O                    -0.260960
     16 O                    -0.256533
     17 H                     0.194722
     18 H                     0.196626
     19 H                     0.185776
     20 H                     0.224978
     21 I                     0.068022
     22 H                     0.331672
     23 H                     0.332800
     24 H                     0.335356
  ----------------------------------------
  Sum of atomic charges =     0.000000

                    Cartesian Multipole Moments
 -----------------------------------------------------------------
    Charge (ESU x 10^10)
                 0.0000
    Dipole Moment (Debye)
         X       1.0627      Y       1.1881      Z      -1.0948
       Tot       1.9338
    Quadrupole Moments (Debye-Ang)
        XX     -96.1448     XY      13.9242     YY    -127.6395
        XZ     -15.7838     YZ       0.8257     ZZ    -119.7488

 Total job time:  462.13s(wall), 3569.82s(cpu)
        *  Thank you very much for using Q-Chem.  Have a nice day.  *
