 Q-Chem 5.4, Q-Chem, Inc., Pleasanton, CA (2021)
 Q-Chem 5.4.0 for Intel X86 EM64T Linux

User input:
--------------------------------------------------------------
$molecule
-1 2
Br                -3.1133590000     -1.1447470000      0.0155540000
C                 -1.3335950000     -0.4407140000      0.0067750000
C                 -1.0745290000      0.9043940000      0.0087030000
Br                -2.4654830000      2.2187780000      0.0203110000
C                  0.2804440000      1.4557670000      0.0020950000
O                  0.5153870000      2.6760700000      0.0038600000
C                  1.3336160000      0.4408940000     -0.0067730000
C                  1.0745130000     -0.9043550000     -0.0087040000
Br                 2.4652890000     -2.2187910000     -0.0203170000
C                 -0.2803830000     -1.4556370000     -0.0020930000
O                 -0.5153360000     -2.6760750000     -0.0038580000
Br                 3.1134380000      1.1444160000     -0.0155540000
$end
$rem
MAX_SCF_CYCLES=200
BASIS  =  6-311++G(d,p)
GUI  =  2
JOB_TYPE  =  SP
METHOD  =  B3LYP
SOLVENT_METHOD = COSMO
$end
$solvent
dielectric 37.219
opticaldielectric 1.43
$end

--------------------------------------------------------------

             Standard Nuclear Orientation (Angstroms)
    I     Atom           X                Y                Z
 ----------------------------------------------------------------
    1      Br      2.8409281271    -1.7124823370    -0.0000134022
    2      C       1.2262777497    -0.6847646765     0.0000085957
    3      C       1.2261159296     0.6850653914    -0.0000058425
    4      Br      2.8404586770     1.7128740160     0.0000141859
    5      C      -0.0002457655     1.4825894812    -0.0000252834
    6      O      -0.0003082934     2.7253045473    -0.0000537611
    7      C      -1.2262776149     0.6850538939    -0.0000120240
    8      C      -1.2261061296    -0.6849216299     0.0000052719
    9      Br     -2.8402839478    -1.7128149674    -0.0000088335
   10      C       0.0001971722    -1.4823418023     0.0000214894
   11      O       0.0002440054    -2.7251913251     0.0000496801
   12      Br     -2.8410815347     1.7122807248     0.0000103186
 ----------------------------------------------------------------

    9  -10675.8134732163      6.47e-06  Convergence criterion met
 Total energy in the final basis set =   -10675.8134732163
    5  -10675.8869785126      2.79e-06  Convergence criterion met
 Total energy in the final basis set =   -10675.8869785126

                    Orbital Energies (a.u.)
 --------------------------------------------------------------

 Alpha MOs
 -- Occupied --
********-482.8373-482.8373-482.8373 -62.4901 -62.4901 -62.4901 -62.4901
-56.3107 -56.3107 -56.3106 -56.3106 -56.3069 -56.3068 -56.3068 -56.3068
-56.3064 -56.3064 -56.3064 -56.3064 -19.1063 -19.1063 -10.2629 -10.2629
-10.2455 -10.2455 -10.2449 -10.2449  -8.6989  -8.6989  -8.6989  -8.6988
 -6.5305  -6.5304  -6.5304  -6.5304  -6.5178  -6.5178  -6.5178  -6.5178
 -6.5165  -6.5165  -6.5165  -6.5165  -2.6413  -2.6413  -2.6412  -2.6412
 -2.6381  -2.6381  -2.6381  -2.6381  -2.6370  -2.6370  -2.6370  -2.6370
 -2.6269  -2.6269  -2.6269  -2.6269  -2.6268  -2.6268  -2.6268  -2.6268
 -1.0410  -1.0384  -0.8849  -0.8530  -0.8031  -0.8024  -0.7778  -0.7132
 -0.6975  -0.5950  -0.5918  -0.5298  -0.4784  -0.4539  -0.4516  -0.4238
 -0.4224  -0.4159  -0.4132  -0.3863  -0.3673  -0.3428  -0.3173  -0.3147
 -0.3094  -0.3085  -0.2917  -0.2857  -0.2813  -0.2776  -0.2597  -0.2512
 -0.1876

 Beta MOs
 -- Occupied --
********-482.8373-482.8373-482.8373 -62.4901 -62.4901 -62.4901 -62.4901
-56.3107 -56.3107 -56.3107 -56.3107 -56.3068 -56.3068 -56.3068 -56.3068
-56.3064 -56.3064 -56.3064 -56.3064 -19.0996 -19.0996 -10.2617 -10.2617
-10.2443 -10.2443 -10.2437 -10.2437  -8.6988  -8.6988  -8.6988  -8.6988
 -6.5305  -6.5305  -6.5305  -6.5305  -6.5177  -6.5177  -6.5177  -6.5177
 -6.5165  -6.5165  -6.5165  -6.5165  -2.6413  -2.6413  -2.6412  -2.6412
 -2.6381  -2.6380  -2.6380  -2.6380  -2.6371  -2.6370  -2.6370  -2.6370
 -2.6269  -2.6269  -2.6269  -2.6269  -2.6267  -2.6267  -2.6267  -2.6267
 -1.0298  -1.0268  -0.8799  -0.8514  -0.8016  -0.8009  -0.7758  -0.7116
 -0.6881  -0.5908  -0.5873  -0.5275  -0.4740  -0.4452  -0.4374  -0.4216
 -0.4208  -0.4121  -0.3869  -0.3846  -0.3629  -0.3233  -0.3168  -0.3130
 -0.3082  -0.3041  -0.2895  -0.2855  -0.2713  -0.2644  -0.2556  -0.2458

          Ground-State Mulliken Net Atomic Charges

     Atom                 Charge (a.u.)    Spin (a.u.)
  --------------------------------------------------------
      1 Br                   -0.126528       0.007023
      2 C                     0.476492       0.078704
      3 C                     0.476515       0.078913
      4 Br                   -0.126507       0.007045
      5 C                    -0.854971       0.086072
      6 O                    -0.344323       0.242138
      7 C                     0.475925       0.078741
      8 C                     0.475829       0.078944
      9 Br                   -0.126505       0.007049
     10 C                    -0.855028       0.086005
     11 O                    -0.344207       0.242337
     12 Br                   -0.126692       0.007028
  --------------------------------------------------------
  Sum of atomic charges =    -1.000000

                    Cartesian Multipole Moments
 -----------------------------------------------------------------
    Charge (ESU x 10^10)
                -4.8032
    Dipole Moment (Debye)
         X       0.0005      Y      -0.0012      Z      -0.0002
       Tot       0.0014
    Quadrupole Moments (Debye-Ang)
        XX    -129.7352     XY       0.0081     YY    -159.2704
        XZ       0.0013     YZ       0.0010     ZZ    -120.9358

 Total job time:  41.40s(wall), 304.25s(cpu)
        *  Thank you very much for using Q-Chem.  Have a nice day.  *
