 Q-Chem 5.4, Q-Chem, Inc., Pleasanton, CA (2021)
 Q-Chem 5.4.0 for Intel X86 EM64T Linux

User input:
--------------------------------------------------------------
$molecule
-2 1
O                  3.3774340000      2.7276870000      1.0856770000
C                  3.0325240000      1.5449610000      0.7611040000
C                  4.0027210000      0.4863900000      0.5244950000
C                  5.3829330000      0.7704080000      0.6521740000
C                  6.3519320000     -0.1899390000      0.4375440000
C                  5.9642560000     -1.5080800000      0.0761230000
C                  4.6251940000     -1.8158260000     -0.0547420000
C                  3.6079350000     -0.8532600000      0.1604370000
C                  2.2166310000     -1.2446830000      0.0058750000
O                  1.8716330000     -2.4299380000     -0.3149110000
C                  1.2489350000     -0.1852470000      0.2408260000
C                 -0.1320620000     -0.4768290000      0.0918240000
C                 -1.1205730000      0.4685570000      0.3081940000
C                 -0.7177370000      1.7872860000      0.6849750000
C                  0.6170330000      2.0972370000      0.8181200000
C                  1.6436170000      1.1481750000      0.6022280000
N                 -2.5160230000      0.1832540000      0.2182740000
C                 -2.9365650000     -1.2062470000      0.1074020000
C                 -4.3724610000     -1.3813910000      0.6537070000
C                 -5.2325010000     -0.1211910000      0.4296150000
C                 -4.7450140000      0.6073530000     -0.8210630000
C                 -3.2946500000      1.0940200000     -0.6366780000
H                  5.6458970000      1.7867020000      0.9281710000
H                  7.4055570000      0.0596470000      0.5436480000
H                  6.7209580000     -2.2709310000     -0.0954400000
H                  4.2985540000     -2.8137650000     -0.3291470000
H                 -0.3623900000     -1.4917440000     -0.2072000000
H                 -1.4697570000      2.5428720000      0.8880450000
H                  0.9274790000      3.0957060000      1.1089010000
H                 -2.8780560000     -1.5722390000     -0.9352890000
H                 -2.2468550000     -1.8208690000      0.6842340000
H                 -4.3348720000     -1.6183080000      1.7222120000
H                 -4.8364700000     -2.2426320000      0.1548710000
H                 -6.2949960000     -0.3822920000      0.3494230000
H                 -5.1385570000      0.5487140000      1.2910560000
H                 -4.8077070000     -0.0753520000     -1.6774740000
H                 -5.3882400000      1.4588840000     -1.0683210000
H                 -3.3035280000      2.0847010000     -0.1740120000
H                 -2.8122090000      1.2082080000     -1.6249910000
$end
$rem
MAX_SCF_CYCLES=200
BASIS  =  6-311++G(d,p)
GUI  =  2
JOB_TYPE  =  SP
METHOD  =  B3LYP
SOLVENT_METHOD = COSMO
$end
$solvent
dielectric 37.219
opticaldielectric 1.43
$end

--------------------------------------------------------------

             Standard Nuclear Orientation (Angstroms)
    I     Atom           X                Y                Z
 ----------------------------------------------------------------
    1      O      -2.6965165955    -2.8061523494     0.2243794881
    2      C      -2.3596722916    -1.5811433598     0.1292994063
    3      C      -3.3380195879    -0.5073899128     0.0413863668
    4      C      -4.7170364760    -0.8236761098     0.0565118453
    5      C      -5.6933412347     0.1495300404    -0.0270959701
    6      C      -5.3146705976     1.5147731277    -0.1326107904
    7      C      -3.9770539982     1.8545533015    -0.1484712728
    8      C      -2.9525207950     0.8795606227    -0.0626099239
    9      C      -1.5632306404     1.3064246771    -0.0847038769
   10      O      -1.2264992394     2.5332518179    -0.1756094488
   11      C      -0.5872982264     0.2320883636     0.0013168621
   12      C       0.7932451629     0.5596074641    -0.0334043384
   13      C       1.7887042285    -0.3989841870     0.0554098393
   14      C       1.3942675315    -1.7676850125     0.1752625932
   15      C       0.0608841196    -2.1099954470     0.1931625837
   16      C      -0.9726948254    -1.1482611598     0.1038067226
   17      N       3.1813678478    -0.0879729517     0.0783045062
   18      C       3.5812949340     1.3034031862     0.2331979270
   19      C       4.9901577421     1.3936018912     0.8639844820
   20      C       5.8809996258     0.2019913671     0.4584537639
   21      C       5.4584223846    -0.2981847184    -0.9213533797
   22      C       4.0106016134    -0.8246718928    -0.8893440180
   23      H      -4.9729839767    -1.8754460326     0.1368163289
   24      H      -6.7458253297    -0.1256991852    -0.0128490754
   25      H      -6.0771449254     2.2881622827    -0.1995102852
   26      H      -3.6572330003     2.8886303011    -0.2276756263
   27      H       1.0175611519     1.6137691828    -0.1380188949
   28      H       2.1506392341    -2.5395597005     0.2742222932
   29      H      -0.2434232728    -3.1473319745     0.2890823024
   30      H       3.5592118267     1.8478728060    -0.7299443980
   31      H       2.8576036356     1.7988964668     0.8789165628
   32      H       4.9044374813     1.4368919669     1.9548664825
   33      H       5.4588758669     2.3343598447     0.5459348640
   34      H       6.9410738934     0.4840484945     0.4721079964
   35      H       5.7636518323    -0.6109804223     1.1830123506
   36      H       5.5441156796     0.5261713402    -1.6400675637
   37      H       6.1263410028    -1.0857384395    -1.2869010584
   38      H       4.0180887584    -1.8815518210    -0.6091008197
   39      H       3.5713298692    -0.7667336476    -1.9023762476
 ----------------------------------------------------------------

   31    -939.6959340098      7.13e-06  Convergence criterion met
 Total energy in the final basis set =     -939.6959340098
    6    -939.9613195850      3.93e-06  Convergence criterion met
 Total energy in the final basis set =     -939.9613195850

                    Orbital Energies (a.u.)
 --------------------------------------------------------------

 Alpha MOs
 -- Occupied --
-19.0269 -19.0233 -14.3043 -10.1857 -10.1854 -10.1822 -10.1774 -10.1724
-10.1580 -10.1558 -10.1556 -10.1483 -10.1481 -10.1472 -10.1469 -10.1459
-10.1450 -10.1380 -10.1358 -10.1352 -10.1346 -10.1336  -0.9504  -0.9457
 -0.9262  -0.8279  -0.8212  -0.7849  -0.7479  -0.7432  -0.7228  -0.7201
 -0.7050  -0.6453  -0.6336  -0.6186  -0.6018  -0.5815  -0.5597  -0.5313
 -0.5273  -0.5092  -0.5024  -0.4821  -0.4686  -0.4527  -0.4386  -0.4296
 -0.4231  -0.4156  -0.4046  -0.4017  -0.3988  -0.3933  -0.3834  -0.3790
 -0.3744  -0.3701  -0.3671  -0.3590  -0.3503  -0.3430  -0.3324  -0.3282
 -0.3237  -0.3195  -0.3090  -0.3079  -0.3042  -0.2996  -0.2488  -0.2339
 -0.2278  -0.2229  -0.2087  -0.1998  -0.1860  -0.1045

          Ground-State Mulliken Net Atomic Charges

     Atom                 Charge (a.u.)
  ----------------------------------------
      1 O                    -0.683725
      2 C                    -0.599668
      3 C                     0.085961
      4 C                     0.018917
      5 C                    -0.522190
      6 C                    -0.548904
      7 C                    -0.032751
      8 C                     0.357331
      9 C                    -0.595551
     10 O                    -0.701245
     11 C                     0.327843
     12 C                    -0.097614
     13 C                    -0.363595
     14 C                    -0.142429
     15 C                    -0.016895
     16 C                     0.072560
     17 N                     0.258638
     18 C                    -0.176299
     19 C                    -0.454524
     20 C                    -0.307787
     21 C                    -0.446786
     22 C                    -0.177777
     23 H                     0.153739
     24 H                     0.175252
     25 H                     0.177036
     26 H                     0.152227
     27 H                     0.148884
     28 H                     0.190908
     29 H                     0.168947
     30 H                     0.156130
     31 H                     0.154846
     32 H                     0.157843
     33 H                     0.149241
     34 H                     0.185808
     35 H                     0.148267
     36 H                     0.158292
     37 H                     0.181733
     38 H                     0.136062
     39 H                     0.151255
  ----------------------------------------
  Sum of atomic charges =    -2.000021

                    Cartesian Multipole Moments
 -----------------------------------------------------------------
    Charge (ESU x 10^10)
                -9.6065
    Dipole Moment (Debye)
         X      20.7230      Y       1.1578      Z      -0.7612
       Tot      20.7692
    Quadrupole Moments (Debye-Ang)
        XX    -189.4743     XY     -11.3109     YY    -189.1105
        XZ      -1.7658     YZ       4.3583     ZZ    -144.1799

 Total job time:  280.43s(wall), 2197.37s(cpu)
        *  Thank you very much for using Q-Chem.  Have a nice day.  *
