 Q-Chem 5.4, Q-Chem, Inc., Pleasanton, CA (2021)
 Q-Chem 5.4.0 for Intel X86 EM64T Linux

User input:
--------------------------------------------------------------
$molecule
0 1
C                 -3.3771490000      3.6872340000      0.0365510000
C                 -4.5920050000      3.0123770000      0.0577090000
C                 -4.6176280000      1.6151870000      0.0814750000
C                 -2.1756580000      2.9720830000      0.0389260000
C                 -2.2012570000      1.5655170000      0.0628530000
C                 -3.4284490000      0.8957120000      0.0840380000
C                 -0.8869420000      3.7239980000      0.0158770000
C                  0.3704130000      2.9214600000      0.0190150000
C                  0.3465820000      1.5183140000      0.0428510000
C                 -0.9409050000      0.7661020000      0.0661820000
C                  1.5973830000      3.5869310000     -0.0022810000
C                  2.7762490000      2.8562380000      0.0003210000
C                  2.7897180000      1.4494910000      0.0239720000
C                  1.5490320000      0.8097750000      0.0449430000
O                 -0.8610070000      4.9433380000     -0.0046910000
O                 -0.9624560000     -0.4538990000      0.0871000000
Br                 4.4294180000      3.8294040000     -0.0300210000
C                  4.0627630000      0.6487950000      0.0268070000
H                 -3.3338170000      4.7691770000      0.0179770000
H                 -5.5207070000      3.5715610000      0.0557530000
H                 -5.5662700000      1.0907730000      0.0979560000
H                 -3.4251640000     -0.1870950000      0.1022740000
H                  1.6057510000      4.6686620000     -0.0205460000
H                  1.5014010000     -0.2726980000      0.0636710000
H                  4.6817330000      0.8958470000      0.8937890000
H                  4.6635770000      0.8611870000     -0.8619480000
H                  3.8444340000     -0.4192200000      0.0500060000
$end

$rem
BASIS  =  6-311++G(d,p)
GUI  =  2
JOB_TYPE  =  SP
METHOD  =  B3LYP
SCF_CONVERGENCE  = 8
SOLVENT_METHOD = sm12
$end

$smx
solvent dimethylformamide
charges CM5
$end

--------------------------------------------------------------

             Standard Nuclear Orientation (Angstroms)
    I     Atom           X                Y                Z
 ----------------------------------------------------------------
    1      C      -3.3771490000     3.6872340000     0.0365510000
    2      C      -4.5920050000     3.0123770000     0.0577090000
    3      C      -4.6176280000     1.6151870000     0.0814750000
    4      C      -2.1756580000     2.9720830000     0.0389260000
    5      C      -2.2012570000     1.5655170000     0.0628530000
    6      C      -3.4284490000     0.8957120000     0.0840380000
    7      C      -0.8869420000     3.7239980000     0.0158770000
    8      C       0.3704130000     2.9214600000     0.0190150000
    9      C       0.3465820000     1.5183140000     0.0428510000
   10      C      -0.9409050000     0.7661020000     0.0661820000
   11      C       1.5973830000     3.5869310000    -0.0022810000
   12      C       2.7762490000     2.8562380000     0.0003210000
   13      C       2.7897180000     1.4494910000     0.0239720000
   14      C       1.5490320000     0.8097750000     0.0449430000
   15      O      -0.8610070000     4.9433380000    -0.0046910000
   16      O      -0.9624560000    -0.4538990000     0.0871000000
   17      Br      4.4294180000     3.8294040000    -0.0300210000
   18      C       4.0627630000     0.6487950000     0.0268070000
   19      H      -3.3338170000     4.7691770000     0.0179770000
   20      H      -5.5207070000     3.5715610000     0.0557530000
   21      H      -5.5662700000     1.0907730000     0.0979560000
   22      H      -3.4251640000    -0.1870950000     0.1022740000
   23      H       1.6057510000     4.6686620000    -0.0205460000
   24      H       1.5014010000    -0.2726980000     0.0636710000
   25      H       4.6817330000     0.8958470000     0.8937890000
   26      H       4.6635770000     0.8611870000    -0.8619480000
   27      H       3.8444340000    -0.4192200000     0.0500060000
 ----------------------------------------------------------------

   15   -3301.8209346214      5.96e-09  Convergence criterion met
 Total energy in the final basis set =    -3301.8423593618

                    Orbital Energies (a.u.)
 --------------------------------------------------------------

 Alpha MOs
 -- Occupied --
******** -62.4955 -56.3159 -56.3121 -56.3119 -19.1325 -19.1321 -10.2853
-10.2846 -10.2552 -10.2219 -10.2154 -10.2138 -10.2114 -10.2109 -10.2098
-10.2038 -10.1996 -10.1993 -10.1988 -10.1987 -10.1778  -8.7042  -6.5356
 -6.5230  -6.5222  -2.6465  -2.6432  -2.6425  -2.6325  -2.6323  -1.0679
 -1.0660  -0.9082  -0.8894  -0.8404  -0.8095  -0.7915  -0.7801  -0.7604
 -0.7225  -0.6850  -0.6603  -0.6345  -0.6250  -0.5907  -0.5567  -0.5521
 -0.5122  -0.4980  -0.4815  -0.4758  -0.4616  -0.4609  -0.4566  -0.4520
 -0.4500  -0.4372  -0.4358  -0.4218  -0.4024  -0.3934  -0.3928  -0.3814
 -0.3753  -0.3730  -0.3682  -0.3313  -0.3046  -0.2900  -0.2876  -0.2815
 -0.2786  -0.2769  -0.2661

          Ground-State Mulliken Net Atomic Charges

     Atom                 Charge (a.u.)
  ----------------------------------------
      1 C                     0.238098
      2 C                     0.505937
      3 C                     0.428853
      4 C                    -0.498867
      5 C                     0.008181
      6 C                     0.175528
      7 C                    -1.807704
      8 C                    -0.538037
      9 C                    -0.128536
     10 C                    -1.210093
     11 C                    -0.221453
     12 C                    -0.004660
     13 C                     1.050862
     14 C                    -0.050018
     15 O                    -0.255425
     16 O                    -0.251595
     17 Br                   -0.263254
     18 C                     0.741067
     19 H                     0.196462
     20 H                     0.331175
     21 H                     0.330706
     22 H                     0.192555
     23 H                     0.218809
     24 H                     0.140727
     25 H                     0.199611
     26 H                     0.200437
     27 H                     0.270636
  ----------------------------------------
  Sum of atomic charges =     0.000000

                    Cartesian Multipole Moments
 -----------------------------------------------------------------
    Charge (ESU x 10^10)
                 0.0000
    Dipole Moment (Debye)
         X      -1.1365      Y      -1.2895      Z       0.0291
       Tot       1.7191
    Quadrupole Moments (Debye-Ang)
        XX     -87.4497     XY      -8.8218     YY    -132.5937
        XZ      -0.1840     YZ       0.2162     ZZ    -118.3099

 Total job time:  606.65s(wall), 4748.07s(cpu)
        *  Thank you very much for using Q-Chem.  Have a nice day.  *
