 Gaussian 16, Revision A.03,
 Gaussian 16:  ES64L-G16RevA.03 25-Dec-2016

 --------------------------------------
 #P UB3LYP/6-311++G(d,p) nosym opt freq
 --------------------------------------

 -------
 Radical
 -------
 Symbolic Z-matrix:
 Charge = -1 Multiplicity = 2

 SCF Done:  E(UB3LYP) =  -954.033032822     A.U. after   23 cycles
 SCF Done:  E(UB3LYP) =  -954.068776439     A.U. after   17 cycles
 SCF Done:  E(UB3LYP) =  -954.083659884     A.U. after   17 cycles
 SCF Done:  E(UB3LYP) =  -954.089657044     A.U. after   17 cycles
 SCF Done:  E(UB3LYP) =  -954.089682354     A.U. after   16 cycles
 SCF Done:  E(UB3LYP) =  -954.090591371     A.U. after   16 cycles
 SCF Done:  E(UB3LYP) =  -954.090635348     A.U. after   15 cycles
 SCF Done:  E(UB3LYP) =  -954.090649287     A.U. after   13 cycles
 SCF Done:  E(UB3LYP) =  -954.090647838     A.U. after   12 cycles
 SCF Done:  E(UB3LYP) =  -954.090664968     A.U. after   12 cycles
 SCF Done:  E(UB3LYP) =  -954.090666966     A.U. after   11 cycles
 SCF Done:  E(UB3LYP) =  -954.090667465     A.U. after   10 cycles
 Optimization completed.
    -- Stationary point found.
 Normal termination of Gaussian 16 at Thu Dec 21 20:46:39 2023.

 ----------------------------------------------------------------------
 #P Geom=AllCheck Guess=TCheck SCRF=Check GenChk UB3LYP/6-311++G(d,p) F
 req
 ----------------------------------------------------------------------

 Structure from the checkpoint file:  "191-rad.chk"
 -------
 Radical
 -------
 Charge = -1 Multiplicity = 2

                          Input orientation:
 ---------------------------------------------------------------------
 Center     Atomic      Atomic             Coordinates (Angstroms)
 Number     Number       Type             X           Y           Z
 ---------------------------------------------------------------------
      1          6           0        4.888721   -2.937685   -0.316474
      2          6           0        5.647183   -2.081885   -1.076536
      3          6           0        5.105037   -0.861329   -1.526691
      4          6           0        3.557401   -2.607698    0.024319
      5          6           0        2.974503   -1.375882   -0.415944
      6          6           0        3.799670   -0.509680   -1.207777
      7          6           0        2.815760   -3.562819    0.831551
      8          6           0        1.454786   -3.241130    1.188708
      9          6           0        0.861489   -2.015485    0.755897
     10          6           0        1.597698   -1.051463   -0.054201
     11          6           0        0.699112   -4.153343    1.978377
     12          6           0       -0.611830   -3.843942    2.322509
     13          6           0       -0.484205   -1.732404    1.127919
     14          6           0       -1.196123   -2.646181    1.901274
     15          8           0        3.360527   -4.657264    1.211500
     16          8           0        1.027144    0.027804   -0.415848
     17          8           0        1.238745   -5.321898    2.401308
     18          1           0        5.276439   -3.881602    0.043895
     19          1           0        6.669881   -2.335770   -1.338115
     20          1           0        5.719319   -0.201938   -2.124027
     21          8           0        3.252051    0.665455   -1.631282
     22          1           0        2.174687   -5.316489    2.033138
     23          8           0       -1.093901   -0.586881    0.745030
     24          1           0       -2.218566   -2.402824    2.168620
     25          1           0       -1.169336   -4.553063    2.924662
     26          1           0       -0.389065   -0.103207    0.207656
     27          6           0        4.032891    1.543041   -2.411549
     28          1           0        3.389374    2.397325   -2.623595
     29          1           0        4.345769    1.083485   -3.358301
     30          1           0        4.925101    1.888582   -1.873042
 ---------------------------------------------------------------------

 SCF Done:  E(UB3LYP) =  -954.090667465     A.U. after    1 cycles

 Alpha  occ. eigenvalues --  -19.05025 -19.00374 -19.00118 -18.96569 -18.96424
 Alpha  occ. eigenvalues --  -10.13488 -10.13418 -10.11755 -10.11116 -10.10839
 Alpha  occ. eigenvalues --  -10.10836 -10.06976 -10.06831 -10.06614 -10.06396
 Alpha  occ. eigenvalues --  -10.05692 -10.05593 -10.05509 -10.05233 -10.05167
 Alpha  occ. eigenvalues --   -0.97009  -0.92774  -0.92595  -0.88245  -0.88049
 Alpha  occ. eigenvalues --   -0.74985  -0.72801  -0.67511  -0.65862  -0.63268
 Alpha  occ. eigenvalues --   -0.61407  -0.60082  -0.55845  -0.52368  -0.52190
 Alpha  occ. eigenvalues --   -0.47613  -0.46458  -0.43848  -0.42242  -0.39809
 Alpha  occ. eigenvalues --   -0.38819  -0.38306  -0.37823  -0.37549  -0.35739
 Alpha  occ. eigenvalues --   -0.34312  -0.33364  -0.31747  -0.31081  -0.30194
 Alpha  occ. eigenvalues --   -0.29714  -0.28851  -0.28450  -0.28295  -0.27828
 Alpha  occ. eigenvalues --   -0.26459  -0.25389  -0.25284  -0.24329  -0.23888
 Alpha  occ. eigenvalues --   -0.23181  -0.22367  -0.21559  -0.18287  -0.15458
 Alpha  occ. eigenvalues --   -0.13733  -0.13525  -0.12506  -0.12029  -0.08918
 Alpha  occ. eigenvalues --   -0.02425
 Alpha virt. eigenvalues --    0.06471   0.07093   0.08420   0.08758   0.09353
 Alpha virt. eigenvalues --    0.10255   0.10401   0.11350   0.11817   0.12391
 Alpha virt. eigenvalues --    0.12828   0.13191   0.14584   0.15017   0.15706

  Beta  occ. eigenvalues --  -19.05029 -19.00314 -19.00072 -18.96071 -18.95939
  Beta  occ. eigenvalues --  -10.13487 -10.13435 -10.11606 -10.10915 -10.10812
  Beta  occ. eigenvalues --  -10.10781 -10.06912 -10.06743 -10.06531 -10.06285
  Beta  occ. eigenvalues --  -10.05682 -10.05611 -10.05509 -10.05151 -10.05057
  Beta  occ. eigenvalues --   -0.97009  -0.92572  -0.92401  -0.87489  -0.87247
  Beta  occ. eigenvalues --   -0.74745  -0.72640  -0.67107  -0.65742  -0.63081
  Beta  occ. eigenvalues --   -0.61113  -0.59974  -0.55188  -0.52166  -0.51978
  Beta  occ. eigenvalues --   -0.47525  -0.46343  -0.43627  -0.42115  -0.39679
  Beta  occ. eigenvalues --   -0.38767  -0.38109  -0.37803  -0.37431  -0.35589
  Beta  occ. eigenvalues --   -0.34177  -0.33244  -0.30928  -0.30928  -0.29895
  Beta  occ. eigenvalues --   -0.29486  -0.28730  -0.28066  -0.28052  -0.26881
  Beta  occ. eigenvalues --   -0.26364  -0.25304  -0.24348  -0.23735  -0.23124
  Beta  occ. eigenvalues --   -0.22893  -0.22221  -0.20881  -0.17605  -0.13654
  Beta  occ. eigenvalues --   -0.13151  -0.13107  -0.11838  -0.11638  -0.07896
  Beta virt. eigenvalues --    0.02943   0.06470   0.08133   0.08413   0.09353
  Beta virt. eigenvalues --    0.09784   0.10256   0.10456   0.11358   0.11828
  Beta virt. eigenvalues --    0.12395   0.13198   0.13292   0.14589   0.15018

 Mulliken charges and spin densities:
               1          2
     1  C   -0.241967   0.023628
     2  C   -0.410442   0.052094
     3  C   -0.046527   0.070371
     4  C    0.264445   0.040160
     5  C    0.169222   0.054397
     6  C    0.079445   0.006669
     7  C   -0.455023   0.108241
     8  C    0.317795  -0.030217
     9  C    0.683935   0.014384
    10  C   -0.463171   0.071675
    11  C   -0.354562   0.056258
    12  C    0.031205   0.049301
    13  C   -0.416931   0.036093
    14  C   -0.058581   0.079453
    15  O   -0.428274   0.183197
    16  O   -0.421065   0.178214
    17  O   -0.377398   0.018860
    18  H    0.157981  -0.000570
    19  H    0.139826  -0.004051
    20  H    0.124702  -0.004807
    21  O   -0.101894   0.000535
    22  H    0.344906  -0.004016
    23  O   -0.391106   0.014900
    24  H    0.150792  -0.006948
    25  H    0.151239  -0.004908
    26  H    0.384012  -0.003291
    27  C   -0.270280  -0.000900
    28  H    0.179980  -0.000170
    29  H    0.128837   0.000724
    30  H    0.128897   0.000725
 Sum of Mulliken charges =  -1.00000   1.00000

 Dipole moment (field-independent basis, Debye):
    X=             -6.7263    Y=             12.8179    Z=             -4.3199  Tot=             15.1064
 Quadrupole moment (field-independent basis, Debye-Ang):
   XX=           -144.6840   YY=           -176.9977   ZZ=           -128.5280
   XY=             30.8977   XZ=             -7.8798   YZ=             17.7428

  Exact polarizability: 304.152   9.987 236.719 -82.714 -74.658 178.960
 Approx polarizability: 495.775 -24.471 412.117-114.109-121.919 280.215

                      1                      2                      3
                      A                      A                      A
 Frequencies --     35.8365                56.2580                84.4444
 Red. masses --      5.2655                 5.9197                 3.8978
 Frc consts  --      0.0040                 0.0110                 0.0164
 IR Inten    --      2.1842                 1.4183                 1.5286

                      4                      5                      6
                      A                      A                      A
 Frequencies --    107.0351               149.2767               161.0283
 Red. masses --     10.6166                 7.1679                 4.7746
 Frc consts  --      0.0717                 0.0941                 0.0729
 IR Inten    --      0.1606                 0.7120                 1.8924

                      7                      8                      9
                      A                      A                      A
 Frequencies --    169.8668               204.0998               262.4168
 Red. masses --      6.1794                 3.1480                 1.7653
 Frc consts  --      0.1051                 0.0773                 0.0716
 IR Inten    --      1.1204                 0.1362                 0.2668

                     10                     11                     12
                      A                      A                      A
 Frequencies --    264.9342               294.8549               313.5538
 Red. masses --      5.9202                 2.4684                 4.4357
 Frc consts  --      0.2448                 0.1264                 0.2569
 IR Inten    --      0.7789                 0.0080                 2.4015

                     13                     14                     15
                      A                      A                      A
 Frequencies --    341.8544               373.0316               399.5740
 Red. masses --      5.5321                 6.9263                 9.3293
 Frc consts  --      0.3809                 0.5679                 0.8776
 IR Inten    --      1.6384                 0.0006                 8.9399

                     16                     17                     18
                      A                      A                      A
 Frequencies --    410.2557               427.7179               444.4728
 Red. masses --      6.5594                 7.7085                 8.7377
 Frc consts  --      0.6505                 0.8309                 1.0170
 IR Inten    --      0.0323                 8.2366                 1.6322

                     19                     20                     21
                      A                      A                      A
 Frequencies --    453.9718               472.3403               490.3552
 Red. masses --     10.2771                10.3644                 4.5481
 Frc consts  --      1.2479                 1.3624                 0.6443
 IR Inten    --     22.0423                 6.1302                 0.2719

                     22                     23                     24
                      A                      A                      A
 Frequencies --    517.3382               525.0492               540.1720
 Red. masses --      9.2902                 5.4522                 4.5455
 Frc consts  --      1.4650                 0.8856                 0.7814
 IR Inten    --      2.3562                12.0735                 5.6935

                     25                     26                     27
                      A                      A                      A
 Frequencies --    602.4641               602.7211               627.3797
 Red. masses --      3.8319                 6.6079                 4.5391
 Frc consts  --      0.8195                 1.4143                 1.0526
 IR Inten    --      9.2924                 4.8601                 2.1745

                     28                     29                     30
                      A                      A                      A
 Frequencies --    650.2938               708.7521               715.0345
 Red. masses --      4.5545                 3.3897                 6.8980
 Frc consts  --      1.1348                 1.0032                 2.0779
 IR Inten    --      0.1441                 7.5507                22.3320

                     31                     32                     33
                      A                      A                      A
 Frequencies --    735.4873               757.1047               757.4540
 Red. masses --      3.6810                 7.0307                 2.1824
 Frc consts  --      1.1732                 2.3744                 0.7377
 IR Inten    --     10.0153                36.2133                33.6728

                     34                     35                     36
                      A                      A                      A
 Frequencies --    802.9880               817.7100               821.1724
 Red. masses --      5.6854                 1.7259                 8.0591
 Frc consts  --      2.1599                 0.6799                 3.2019
 IR Inten    --     10.1722                55.6781                37.9618

                     37                     38                     39
                      A                      A                      A
 Frequencies --    846.6962               893.7078               899.6824
 Red. masses --      1.4411                 7.5285                 1.3101
 Frc consts  --      0.6087                 3.5428                 0.6248
 IR Inten    --      0.1930                14.2221                 0.4918

                     40                     41                     42
                      A                      A                      A
 Frequencies --    922.0845               936.9823               957.7572
 Red. masses --      1.0583                 1.0556                 6.0776
 Frc consts  --      0.5301                 0.5460                 3.2847
 IR Inten    --     64.7188                74.1826                22.8687

                     43                     44                     45
                      A                      A                      A
 Frequencies --    968.7076               980.2883              1062.5726
 Red. masses --      1.2752                 6.3428                 3.0744
 Frc consts  --      0.7051                 3.5912                 2.0451
 IR Inten    --      0.5919                66.5922                23.7935

                     46                     47                     48
                      A                      A                      A
 Frequencies --   1096.7776              1113.7974              1162.3484
 Red. masses --      2.5062                 2.3289                 1.2808
 Frc consts  --      1.7763                 1.7022                 1.0196
 IR Inten    --     41.9261               171.5879                 0.7478

                     49                     50                     51
                      A                      A                      A
 Frequencies --   1162.4555              1175.4737              1201.1233
 Red. masses --      1.9985                 1.3065                 1.5043
 Frc consts  --      1.5911                 1.0636                 1.2787
 IR Inten    --     23.1401                 7.5036                 1.5694

                     52                     53                     54
                      A                      A                      A
 Frequencies --   1213.9330              1245.9807              1266.2511
 Red. masses --      2.5521                 3.0054                 3.9092
 Frc consts  --      2.2159                 2.7490                 3.6930
 IR Inten    --      0.9209                 0.2176               110.2263

                     55                     56                     57
                      A                      A                      A
 Frequencies --   1277.7175              1284.6891              1303.7890
 Red. masses --      2.4793                 5.7580                 4.8722
 Frc consts  --      2.3848                 5.5991                 4.8797
 IR Inten    --     59.3643                22.6778               161.3023

                     58                     59                     60
                      A                      A                      A
 Frequencies --   1321.7471              1349.5212              1388.8229
 Red. masses --      3.9619                 6.7244                 5.4354
 Frc consts  --      4.0780                 7.2154                 6.1769
 IR Inten    --    244.2866               183.7095                 3.7366

                     61                     62                     63
                      A                      A                      A
 Frequencies --   1399.4865              1434.9238              1458.3077
 Red. masses --      4.1149                 4.0625                 3.6187
 Frc consts  --      4.7484                 4.9283                 4.5342
 IR Inten    --    148.6964                 8.3948                 8.8921

                     64                     65                     66
                      A                      A                      A
 Frequencies --   1466.8877              1483.3556              1487.0980
 Red. masses --      1.4267                 2.7002                 1.0479
 Frc consts  --      1.8087                 3.5005                 1.3654
 IR Inten    --     16.1130                90.8043                 5.9644

                     67                     68                     69
                      A                      A                      A
 Frequencies --   1503.2462              1513.9961              1531.8003
 Red. masses --      1.0801                 1.9813                 5.0319
 Frc consts  --      1.4380                 2.6758                 6.9564
 IR Inten    --    121.1854               563.2752               399.3684

                     70                     71                     72
                      A                      A                      A
 Frequencies --   1564.6853              1603.6612              1614.9294
 Red. masses --      4.5521                 1.8192                 5.4048
 Frc consts  --      6.5662                 2.7565                 8.3050
 IR Inten    --    187.3607               184.0419                13.0666

                     73                     74                     75
                      A                      A                      A
 Frequencies --   1639.2123              1654.5496              2912.7116
 Red. masses --      5.9353                 2.5067                 1.0737
 Frc consts  --      9.3965                 4.0430                 5.3669
 IR Inten    --     12.4066                 5.9840               298.0848

                     76                     77                     78
                      A                      A                      A
 Frequencies --   2975.8037              2983.3014              3023.7562
 Red. masses --      1.0362                 1.0728                 1.1045
 Frc consts  --      5.4062                 5.6254                 5.9497
 IR Inten    --    136.7524               314.8283                60.6694

                     79                     80                     81
                      A                      A                      A
 Frequencies --   3108.1520              3147.3217              3161.6485
 Red. masses --      1.0961                 1.0876                 1.0864
 Frc consts  --      6.2389                 6.3475                 6.3983
 IR Inten    --     34.7647                32.7843                19.8077

                     82                     83                     84
                      A                      A                      A
 Frequencies --   3178.8523              3199.9517              3202.7842
 Red. masses --      1.0937                 1.0894                 1.0921
 Frc consts  --      6.5117                 6.5725                 6.6006
 IR Inten    --     34.1854                 6.7375                26.4033

 - Thermochemistry -
 -------------------
 Temperature   298.150 Kelvin.  Pressure   1.00000 Atm.
 Atom     1 has atomic number  6 and mass  12.00000

 Molecular mass:   270.05282 amu.
 Principal axes and moments of inertia in atomic units:
                           1         2         3
     Eigenvalues --  3116.930866301.288499406.73912
           X            0.65028  -0.68681   0.32470
           Y            0.53200   0.71680   0.45075
           Z           -0.54232  -0.12037   0.83150
 This molecule is an asymmetric top.
 Rotational symmetry number  1.
 Warning -- assumption of classical behavior for rotation
           may cause significant error
 Rotational temperatures (Kelvin)      0.02779     0.01375     0.00921
 Rotational constants (GHZ):           0.57901     0.28641     0.19186
 Zero-point vibrational energy     570508.8 (Joules/Mol)
                                  136.35488 (Kcal/Mol)
 Warning -- explicit consideration of  26 degrees of freedom as
           vibrations may cause significant error
 Vibrational temperatures:     51.56    80.94   121.50   154.00   214.78
          (Kelvin)            231.68   244.40   293.65   377.56   381.18
                              424.23   451.13   491.85   536.71   574.90
                              590.27   615.39   639.50   653.16   679.59
                              705.51   744.33   755.43   777.19   866.81
                              867.18   902.66   935.63  1019.74  1028.78
                             1058.20  1089.30  1089.81  1155.32  1176.50
                             1181.48  1218.21  1285.85  1294.44  1326.67
                             1348.11  1378.00  1393.75  1410.42  1528.80
                             1578.02  1602.51  1672.36  1672.51  1691.24
                             1728.15  1746.58  1792.69  1821.85  1838.35
                             1848.38  1875.86  1901.70  1941.66  1998.21
                             2013.55  2064.54  2098.18  2110.52  2134.22
                             2139.60  2162.84  2178.30  2203.92  2251.23
                             2307.31  2323.52  2358.46  2380.53  4190.74
                             4281.52  4292.31  4350.51  4471.94  4528.29
                             4548.91  4573.66  4604.02  4608.09

 Zero-point correction=                           0.217295 (Hartree/Particle)
 Thermal correction to Energy=                    0.232755
 Thermal correction to Enthalpy=                  0.233699
 Thermal correction to Gibbs Free Energy=         0.173906
 Sum of electronic and zero-point Energies=           -953.873372
 Sum of electronic and thermal Energies=              -953.857912
 Sum of electronic and thermal Enthalpies=            -953.856968
 Sum of electronic and thermal Free Energies=         -953.916761

                     E (Thermal)             CV                S
                      KCal/Mol        Cal/Mol-Kelvin    Cal/Mol-Kelvin
 Total                  146.056             61.988            125.845
 Electronic               0.000              0.000              1.377
 Translational            0.889              2.981             42.679
 Rotational               0.889              2.981             33.579
 Vibrational            144.279             56.026             48.209
 Vibration     1          0.594              1.982              5.477
 Vibration     2          0.596              1.975              4.584
 Vibration     3          0.601              1.960              3.785
 Vibration     4          0.606              1.944              3.322
 Vibration     5          0.618              1.903              2.681
 Vibration     6          0.622              1.890              2.538
 Vibration     7          0.625              1.880              2.437
 Vibration     8          0.640              1.834              2.096
 Vibration     9          0.670              1.742              1.646
 Vibration    10          0.671              1.737              1.629
 Vibration    11          0.689              1.683              1.446
 Vibration    12          0.701              1.648              1.344
 Vibration    13          0.721              1.592              1.203
 Vibration    14          0.744              1.527              1.067
 Vibration    15          0.766              1.471              0.964
 Vibration    16          0.774              1.448              0.926
 Vibration    17          0.789              1.410              0.866
 Vibration    18          0.804              1.373              0.813
 Vibration    19          0.812              1.352              0.784
 Vibration    20          0.829              1.311              0.731
 Vibration    21          0.846              1.271              0.683
 Vibration    22          0.872              1.212              0.616
 Vibration    23          0.880              1.195              0.598
 Vibration    24          0.895              1.161              0.565
 Vibration    25          0.961              1.027              0.445
 Vibration    26          0.961              1.026              0.445

 Optimization completed.
    -- Stationary point found.
 Normal termination of Gaussian 16 at Thu Dec 21 22:10:44 2023.
