 Q-Chem 5.4, Q-Chem, Inc., Pleasanton, CA (2021)
 Q-Chem 5.4.0 for Intel X86 EM64T Linux

User input:
--------------------------------------------------------------
$molecule
0 1
N                 -2.5816120000      0.6580750000      2.2701650000
C                 -2.4221200000      0.3370370000      0.9618870000
C                 -3.5648540000      0.1893530000      0.1381900000
C                 -3.4475810000     -0.1357360000     -1.1959820000
C                 -2.1888250000     -0.3299250000     -1.7771530000
C                 -1.0491180000     -0.1933520000     -1.0003040000
C                  0.2695520000     -0.4111160000     -1.6696940000
O                  0.3479370000     -0.6973780000     -2.8531450000
C                  1.4928210000     -0.2651140000     -0.8342830000
C                  2.7439370000     -0.4604080000     -1.4192290000
C                  3.9002470000     -0.3302170000     -0.6622070000
Cl                 5.4444230000     -0.5824110000     -1.4302790000
C                  3.8077720000      0.0001990000      0.7003500000
Cl                 5.2340870000      0.1735600000      1.6871370000
C                  2.5623780000      0.1947930000      1.2832260000
C                  1.3992250000      0.0643660000      0.5243470000
C                  0.0794560000      0.2818200000      1.1894320000
O                  0.0549290000      0.5706400000      2.3902150000
C                 -1.1330800000      0.1409890000      0.3792910000
H                 -1.7583350000      0.7603710000      2.8498670000
H                 -3.5037570000      0.7879980000      2.6490570000
H                 -4.5449300000      0.3381320000      0.5797510000
H                 -4.3419970000     -0.2414990000     -1.7996640000
H                 -2.0817340000     -0.5852590000     -2.8228010000
H                  2.7999520000     -0.7143980000     -2.4696870000
H                  2.4812240000      0.4494810000      2.3315120000
$end
$rem
MAX_SCF_CYCLES=200
BASIS  =  6-311++G(d,p)
GUI  =  2
JOB_TYPE  =  SP
METHOD  =  B3LYP
SOLVENT_METHOD = COSMO
$end
$solvent
dielectric 37.219
opticaldielectric 1.43
$end

--------------------------------------------------------------

             Standard Nuclear Orientation (Angstroms)
    I     Atom           X                Y                Z
 ----------------------------------------------------------------
    1      N       3.7822528463    -2.3167469457    -0.0006038895
    2      C       3.5965129270    -0.9730227536     0.0000275942
    3      C       4.7238601481    -0.1155753051     0.0006775952
    4      C       4.5798758526     1.2550884549     0.0010238346
    5      C       3.3083920842     1.8409763593     0.0006281003
    6      C       2.1831400678     1.0317260247     0.0000002179
    7      C       0.8499377360     1.7077185571    -0.0005824272
    8      O       0.7479276119     2.9235474665    -0.0012212222
    9      C      -0.3578291274     0.8377103379    -0.0003151959
   10      C      -1.6217657927     1.4276738157    -0.0001892148
   11      C      -2.7640728582     0.6388650130     0.0000595629
   12      Cl     -4.3249965189     1.4144507185     0.0003220802
   13      C      -2.6443614390    -0.7611196700     0.0000833353
   14      Cl     -4.0523441937    -1.7886222767     0.0003167556
   15      C      -1.3861911267    -1.3490183917    -0.0000889040
   16      C      -0.2370759843    -0.5582163910    -0.0002479939
   17      C       1.0971715841    -1.2299290780    -0.0003190532
   18      O       1.1456550013    -2.4642498322    -0.0004346243
   19      C       2.2946801944    -0.3859039166    -0.0001883164
   20      H       2.9697501181    -2.9201896618    -0.0002809667
   21      H       4.7127369108    -2.6975199282     0.0007658316
   22      H       5.7136373828    -0.5605486602     0.0007882771
   23      H       5.4630662617     1.8840337589     0.0015301237
   24      H       3.1803577766     2.9150577649     0.0007827101
   25      H      -1.6987612031     2.5071099228    -0.0002761703
   26      H      -1.2840715587    -2.4260175005    -0.0001108263
 ----------------------------------------------------------------

    9   -1663.5771936550      5.71e-06  Convergence criterion met
 Total energy in the final basis set =    -1663.5771936550
    5   -1663.5927761001      3.13e-06  Convergence criterion met
 Total energy in the final basis set =    -1663.5927761001

                    Orbital Energies (a.u.)
 --------------------------------------------------------------

 Alpha MOs
 -- Occupied --
********-101.5759 -19.1328 -19.1291 -14.3346 -10.2860 -10.2829 -10.2718
-10.2708 -10.2493 -10.2178 -10.2164 -10.2133 -10.2120 -10.2079 -10.2032
-10.1967 -10.1922 -10.1876  -9.4909  -9.4905  -7.2556  -7.2552  -7.2459
 -7.2455  -7.2450  -7.2447  -1.0689  -1.0632  -0.9453  -0.9389  -0.8809
 -0.8802  -0.8630  -0.8035  -0.7831  -0.7617  -0.7580  -0.6902  -0.6708
 -0.6491  -0.6284  -0.5943  -0.5735  -0.5607  -0.5288  -0.5188  -0.5103
 -0.4977  -0.4804  -0.4761  -0.4653  -0.4626  -0.4607  -0.4513  -0.4376
 -0.4322  -0.4231  -0.4222  -0.3989  -0.3964  -0.3856  -0.3787  -0.3675
 -0.3493  -0.3480  -0.3360  -0.3287  -0.2912  -0.2869  -0.2821  -0.2780
 -0.2707  -0.2284

          Ground-State Mulliken Net Atomic Charges

     Atom                 Charge (a.u.)
  ----------------------------------------
      1 N                    -0.460322
      2 C                     0.366432
      3 C                    -0.263668
      4 C                    -0.527336
      5 C                     0.104263
      6 C                     0.345269
      7 C                    -0.812196
      8 O                    -0.289849
      9 C                    -0.469073
     10 C                    -0.351415
     11 C                     0.461709
     12 Cl                    0.583107
     13 C                     0.380812
     14 Cl                    0.583501
     15 C                    -0.106795
     16 C                    -0.144224
     17 C                    -1.002059
     18 O                    -0.315901
     19 C                     0.097328
     20 H                     0.348288
     21 H                     0.337334
     22 H                     0.210481
     23 H                     0.233306
     24 H                     0.190958
     25 H                     0.245283
     26 H                     0.254767
  ----------------------------------------
  Sum of atomic charges =     0.000000

                    Cartesian Multipole Moments
 -----------------------------------------------------------------
    Charge (ESU x 10^10)
                -0.0000
    Dipole Moment (Debye)
         X       6.0058      Y      -2.2349      Z       0.0063
       Tot       6.4082
    Quadrupole Moments (Debye-Ang)
        XX     -92.6111     XY      -7.6267     YY    -129.1189
        XZ       0.0208     YZ      -0.0013     ZZ    -125.0764

 Total job time:  75.63s(wall), 462.45s(cpu)
        *  Thank you very much for using Q-Chem.  Have a nice day.  *
