 Gaussian 16, Revision A.03,
 Gaussian 16:  ES64L-G16RevA.03 25-Dec-2016

 ----------------------------------------------------------------------
 #P UB3LYP/6-311++G(d,p) nosym opt freq SCRF=(PCM,Solvent=n,n-DiMethylF
 ormamide)
 ----------------------------------------------------------------------

 --------
 Oxidized
 --------
 Symbolic Z-matrix:
 Charge =  0 Multiplicity = 1

 SCF Done:  E(UB3LYP) =  -5528.64873344     A.U. after   15 cycles
 SCF Done:  E(UB3LYP) =  -5528.64878064     A.U. after   10 cycles
 SCF Done:  E(UB3LYP) =  -5528.64878492     A.U. after   10 cycles
 SCF Done:  E(UB3LYP) =  -5528.64878684     A.U. after    9 cycles
 Optimization completed.
    -- Stationary point found.
 Normal termination of Gaussian 16 at Sat Feb 10 10:06:51 2024.

 ----------------------------------------------------------------------
 #P Geom=AllCheck Guess=TCheck SCRF=Check GenChk UB3LYP/6-311++G(d,p) F
 req
 ----------------------------------------------------------------------

 Structure from the checkpoint file:  "012.chk"
 --------
 Oxidized
 --------
 Charge =  0 Multiplicity = 1

                          Input orientation:
 ---------------------------------------------------------------------
 Center     Atomic      Atomic             Coordinates (Angstroms)
 Number     Number       Type             X           Y           Z
 ---------------------------------------------------------------------
      1         35           0       -2.704491   -1.874875   -0.096814
      2          6           0       -1.201038   -0.720015   -0.040980
      3          6           0       -1.339150    0.611000   -0.030915
      4          6           0       -0.153231    1.495512    0.011898
      5          8           0       -0.277899    2.711295    0.020398
      6          6           0        1.187474    0.869393    0.042899
      7          6           0        1.322092   -0.461998    0.032048
      8         35           0        3.028866   -1.288220    0.069875
      9          6           0        0.142323   -1.389826   -0.009875
     10          8           0        0.265647   -2.593069   -0.018705
     11          1           0       -2.305295    1.098455   -0.053689
     12          1           0        2.034700    1.542349    0.073860
 ---------------------------------------------------------------------

 SCF Done:  E(UB3LYP) =  -5528.64878684     A.U. after    1 cycles

 Alpha  occ. eigenvalues -- -482.85722-482.85721 -62.50988 -62.50988 -56.33039
 Alpha  occ. eigenvalues --  -56.33039 -56.32644 -56.32644 -56.32605 -56.32605
 Alpha  occ. eigenvalues --  -19.16663 -19.15631 -10.32001 -10.30474 -10.27859
 Alpha  occ. eigenvalues --  -10.27857 -10.22998 -10.22998  -8.71952  -8.71952
 Alpha  occ. eigenvalues --   -6.55137  -6.55137  -6.53819  -6.53819  -6.53706
 Alpha  occ. eigenvalues --   -6.53705  -2.66225  -2.66224  -2.65865  -2.65864
 Alpha  occ. eigenvalues --   -2.65779  -2.65779  -2.64730  -2.64730  -2.64729
 Alpha  occ. eigenvalues --   -2.64729  -1.10237  -1.08527  -0.90224  -0.86520
 Alpha  occ. eigenvalues --   -0.80969  -0.77036  -0.72448  -0.64081  -0.62227
 Alpha  occ. eigenvalues --   -0.55406  -0.52898  -0.49079  -0.47687  -0.46930
 Alpha  occ. eigenvalues --   -0.46706  -0.44316  -0.43991  -0.41946  -0.37373
 Alpha  occ. eigenvalues --   -0.35905  -0.31925  -0.31707  -0.31544  -0.30126
 Alpha  occ. eigenvalues --   -0.29639  -0.28550
 Alpha virt. eigenvalues --   -0.15430  -0.05230  -0.04651  -0.02025  -0.01785
 Alpha virt. eigenvalues --   -0.00359   0.01127   0.01655   0.03449   0.03641
 Alpha virt. eigenvalues --    0.04588   0.04926   0.05564   0.06698   0.07050

  Beta  occ. eigenvalues -- -482.85722-482.85721 -62.50988 -62.50988 -56.33039
  Beta  occ. eigenvalues --  -56.33039 -56.32644 -56.32644 -56.32605 -56.32605
  Beta  occ. eigenvalues --  -19.16663 -19.15631 -10.32001 -10.30474 -10.27859
  Beta  occ. eigenvalues --  -10.27857 -10.22998 -10.22998  -8.71952  -8.71952
  Beta  occ. eigenvalues --   -6.55137  -6.55137  -6.53819  -6.53819  -6.53706
  Beta  occ. eigenvalues --   -6.53705  -2.66225  -2.66224  -2.65865  -2.65864
  Beta  occ. eigenvalues --   -2.65779  -2.65779  -2.64730  -2.64730  -2.64729
  Beta  occ. eigenvalues --   -2.64729  -1.10237  -1.08527  -0.90224  -0.86520
  Beta  occ. eigenvalues --   -0.80969  -0.77036  -0.72448  -0.64081  -0.62227
  Beta  occ. eigenvalues --   -0.55406  -0.52898  -0.49079  -0.47687  -0.46930
  Beta  occ. eigenvalues --   -0.46706  -0.44316  -0.43991  -0.41946  -0.37373
  Beta  occ. eigenvalues --   -0.35905  -0.31925  -0.31707  -0.31544  -0.30126
  Beta  occ. eigenvalues --   -0.29639  -0.28550
  Beta virt. eigenvalues --   -0.15430  -0.05230  -0.04651  -0.02025  -0.01785
  Beta virt. eigenvalues --   -0.00359   0.01127   0.01655   0.03449   0.03641
  Beta virt. eigenvalues --    0.04588   0.04926   0.05564   0.06698   0.07050

 Mulliken charges and spin densities:
               1          2
     1  Br  -0.046318  -0.000000
     2  C    1.098350   0.000000
     3  C   -0.210545  -0.000000
     4  C   -0.257067   0.000000
     5  O   -0.279279  -0.000000
     6  C   -0.210932  -0.000000
     7  C    1.098282   0.000000
     8  Br  -0.046343   0.000000
     9  C   -1.570401  -0.000000
    10  O   -0.156402   0.000000
    11  H    0.290330   0.000000
    12  H    0.290326   0.000000
 Sum of Mulliken charges =  -0.00000  -0.00000

 Dipole moment (field-independent basis, Debye):
    X=             -0.0945    Y=              0.9248    Z=              0.0084  Tot=              0.9297
 Quadrupole moment (field-independent basis, Debye-Ang):
   XX=            -74.8330   YY=            -99.9562   ZZ=            -80.7927
   XY=              2.5995   XZ=              0.1964   YZ=             -0.1208

  Exact polarizability: 177.675  -5.542 230.922   2.671   1.445  80.359
 Approx polarizability: 184.879 -14.046 320.257   2.383   2.003  94.622

                      1                      2                      3
                      A                      A                      A
 Frequencies --     52.1638               122.5616               129.4887
 Red. masses --     17.5341                 9.9114                31.6540
 Frc consts  --      0.0281                 0.0877                 0.3127
 IR Inten    --      4.0475                13.7854                 0.0479

                      4                      5                      6
                      A                      A                      A
 Frequencies --    162.7316               224.1884               265.1978
 Red. masses --      4.7596                14.3509                21.1391
 Frc consts  --      0.0743                 0.4250                 0.8759
 IR Inten    --      0.0002                 0.0060                 2.6037

                      7                      8                      9
                      A                      A                      A
 Frequencies --    275.4290               290.5836               429.6404
 Red. masses --     16.4309                 5.8119                 5.4521
 Frc consts  --      0.7344                 0.2891                 0.5930
 IR Inten    --      0.1967                 0.6590                 0.0299

                     10                     11                     12
                      A                      A                      A
 Frequencies --    438.1125               470.7265               618.7623
 Red. masses --      8.6660                13.0624                 6.0752
 Frc consts  --      0.9800                 1.7053                 1.3704
 IR Inten    --     63.3706                 0.3215                 8.4750

                     13                     14                     15
                      A                      A                      A
 Frequencies --    664.8033               698.8771               780.7462
 Red. masses --      3.8756                11.0131                10.6158
 Frc consts  --      1.0092                 3.1693                 3.8126
 IR Inten    --      2.4631               162.5103                 5.0338

                     16                     17                     18
                      A                      A                      A
 Frequencies --    784.2055               862.9049               883.8014
 Red. masses --      6.8219                 5.4278                 1.3250
 Frc consts  --      2.4718                 2.3812                 0.6098
 IR Inten    --      0.0977                 3.2727                 0.0041

                     19                     20                     21
                      A                      A                      A
 Frequencies --    922.9618               990.2955              1132.5317
 Red. masses --      1.5255                 4.7292                 2.8500
 Frc consts  --      0.7656                 2.7326                 2.1538
 IR Inten    --     73.5476               305.1380                 2.5102

                     22                     23                     24
                      A                      A                      A
 Frequencies --   1268.9220              1296.5127              1314.8041
 Red. masses --      7.7804                 1.4347                 1.8333
 Frc consts  --      7.3812                 1.4209                 1.8673
 IR Inten    --    409.0833                51.1788                 1.4546

                     25                     26                     27
                      A                      A                      A
 Frequencies --   1618.5405              1658.4862              1690.3318
 Red. masses --      8.9998                 8.6584                11.2283
 Frc consts  --     13.8909                14.0317                18.9020
 IR Inten    --    244.1284                59.4454               850.0866

                     28                     29                     30
                      A                      A                      A
 Frequencies --   1737.1415              3209.2827              3210.0023
 Red. masses --     13.2388                 1.0937                 1.0946
 Frc consts  --     23.5380                 6.6370                 6.6452
 IR Inten    --    364.3256                 1.4744                 0.2938

 - Thermochemistry -
 -------------------
 Temperature   298.150 Kelvin.  Pressure   1.00000 Atm.
 Atom     1 has atomic number 35 and mass  78.91834

 Molecular mass:   263.84215 amu.
 Principal axes and moments of inertia in atomic units:
                           1         2         3
     Eigenvalues --  1718.763214994.913036713.67493
           X            0.99439  -0.10204  -0.02796
           Y            0.10177   0.99475  -0.01076
           Z            0.02891   0.00785   0.99955
 This molecule is an asymmetric top.
 Rotational symmetry number  1.
 Warning -- assumption of classical behavior for rotation
           may cause significant error
 Rotational temperatures (Kelvin)      0.05039     0.01734     0.01290
 Rotational constants (GHZ):           1.05002     0.36132     0.26882
 Zero-point vibrational energy     168701.8 (Joules/Mol)
                                   40.32070 (Kcal/Mol)
 Warning -- explicit consideration of  12 degrees of freedom as
           vibrations may cause significant error
 Vibrational temperatures:     75.05   176.34   186.31   234.13   322.56
          (Kelvin)            381.56   396.28   418.08   618.16   630.35
                              677.27   890.26   956.50  1005.53  1123.32
                             1128.30  1241.53  1271.59  1327.94  1424.81
                             1629.46  1825.70  1865.39  1891.71  2328.72
                             2386.19  2432.01  2499.36  4617.44  4618.48

 Zero-point correction=                           0.064255 (Hartree/Particle)
 Thermal correction to Energy=                    0.073418
 Thermal correction to Enthalpy=                  0.074362
 Thermal correction to Gibbs Free Energy=         0.027074
 Sum of electronic and zero-point Energies=          -5528.584532
 Sum of electronic and thermal Energies=             -5528.575369
 Sum of electronic and thermal Enthalpies=           -5528.574424
 Sum of electronic and thermal Free Energies=        -5528.621713

                     E (Thermal)             CV                S
                      KCal/Mol        Cal/Mol-Kelvin    Cal/Mol-Kelvin
 Total                   46.071             31.624             99.527
 Electronic               0.000              0.000              0.000
 Translational            0.889              2.981             42.610
 Rotational               0.889              2.981             32.422
 Vibrational             44.293             25.662             24.495
 Vibration     1          0.596              1.977              4.734
 Vibration     2          0.610              1.930              3.060
 Vibration     3          0.612              1.924              2.954
 Vibration     4          0.623              1.888              2.518
 Vibration     5          0.649              1.804              1.925
 Vibration     6          0.671              1.737              1.627
 Vibration     7          0.677              1.719              1.562
 Vibration     8          0.687              1.691              1.471
 Vibration     9          0.791              1.406              0.860
 Vibration    10          0.798              1.387              0.833
 Vibration    11          0.828              1.315              0.736
 Vibration    12          0.979              0.992              0.418

 Optimization completed.
    -- Stationary point found.
 Normal termination of Gaussian 16 at Sat Feb 10 10:11:14 2024.
