 Q-Chem 5.4, Q-Chem, Inc., Pleasanton, CA (2021)
 Q-Chem 5.4.0 for Intel X86 EM64T Linux

User input:
--------------------------------------------------------------
$molecule
-1 2
C                 -4.8362490000      1.1305840000     -1.5752710000
C                 -3.6031500000      0.6158390000     -0.8712580000
C                 -3.7295190000     -0.2290730000      0.2546280000
C                 -2.6363450000     -0.7324670000      0.9411860000
C                 -2.9041510000     -1.6271070000      2.1310560000
C                 -1.3161810000     -0.3891320000      0.5009260000
C                 -0.1186620000     -0.8843530000      1.1780640000
O                 -0.1676550000     -1.6393950000      2.1847650000
C                  1.1818140000     -0.4640730000      0.6352640000
C                  2.3341500000     -0.9456810000      1.2942790000
C                  3.6031650000     -0.6155610000      0.8714270000
C                  4.8362620000     -1.1298920000      1.5757840000
C                  3.7295260000      0.2291980000     -0.2545340000
C                  2.6363230000      0.7322750000     -0.9413250000
C                  2.9041330000      1.6267610000     -2.1313150000
C                  1.3162100000      0.3887700000     -0.5011770000
C                  0.1186650000      0.8837910000     -1.1784730000
O                  0.1676970000      1.6384980000     -2.1854110000
C                 -1.1817940000      0.4637770000     -0.6354610000
C                 -2.3341380000      0.9456950000     -1.2942680000
H                 -5.4544880000      0.3085910000     -1.9565770000
H                 -5.4694130000      1.7186570000     -0.8995830000
H                 -4.5678900000      1.7677400000     -2.4214820000
H                 -4.7260430000     -0.4975010000      0.5993550000
H                 -2.4509310000     -2.6120160000      2.0039950000
H                 -2.4643720000     -1.2236400000      3.0450360000
H                 -3.9849370000     -1.7414260000      2.2694420000
H                  2.1745220000     -1.5896950000      2.1516230000
H                  5.4701810000     -1.7171180000      0.9000740000
H                  4.5678620000     -1.7677270000      2.4214640000
H                  5.4537220000     -0.3076990000      1.9579260000
H                  4.7260330000      0.4977990000     -0.5991780000
H                  3.9849110000      1.7414600000     -2.2694170000
H                  2.4504530000      2.6115050000     -2.0046440000
H                  2.4647860000      1.2228800000     -3.0453280000
H                 -2.1744980000      1.5897370000     -2.1515900000
$end
$rem
MAX_SCF_CYCLES=200
BASIS  =  6-311++G(d,p)
GUI  =  2
JOB_TYPE  =  SP
METHOD  =  B3LYP
SOLVENT_METHOD = PCM
$end
$pcm
theory = CPCM
$end
$solvent
dielectric 37.219
opticaldielectric 1.43
$end

--------------------------------------------------------------

             Standard Nuclear Orientation (Angstroms)
    I     Atom           X                Y                Z
 ----------------------------------------------------------------
    1      C      -4.8362490000     1.1305840000    -1.5752710000
    2      C      -3.6031500000     0.6158390000    -0.8712580000
    3      C      -3.7295190000    -0.2290730000     0.2546280000
    4      C      -2.6363450000    -0.7324670000     0.9411860000
    5      C      -2.9041510000    -1.6271070000     2.1310560000
    6      C      -1.3161810000    -0.3891320000     0.5009260000
    7      C      -0.1186620000    -0.8843530000     1.1780640000
    8      O      -0.1676550000    -1.6393950000     2.1847650000
    9      C       1.1818140000    -0.4640730000     0.6352640000
   10      C       2.3341500000    -0.9456810000     1.2942790000
   11      C       3.6031650000    -0.6155610000     0.8714270000
   12      C       4.8362620000    -1.1298920000     1.5757840000
   13      C       3.7295260000     0.2291980000    -0.2545340000
   14      C       2.6363230000     0.7322750000    -0.9413250000
   15      C       2.9041330000     1.6267610000    -2.1313150000
   16      C       1.3162100000     0.3887700000    -0.5011770000
   17      C       0.1186650000     0.8837910000    -1.1784730000
   18      O       0.1676970000     1.6384980000    -2.1854110000
   19      C      -1.1817940000     0.4637770000    -0.6354610000
   20      C      -2.3341380000     0.9456950000    -1.2942680000
   21      H      -5.4544880000     0.3085910000    -1.9565770000
   22      H      -5.4694130000     1.7186570000    -0.8995830000
   23      H      -4.5678900000     1.7677400000    -2.4214820000
   24      H      -4.7260430000    -0.4975010000     0.5993550000
   25      H      -2.4509310000    -2.6120160000     2.0039950000
   26      H      -2.4643720000    -1.2236400000     3.0450360000
   27      H      -3.9849370000    -1.7414260000     2.2694420000
   28      H       2.1745220000    -1.5896950000     2.1516230000
   29      H       5.4701810000    -1.7171180000     0.9000740000
   30      H       4.5678620000    -1.7677270000     2.4214640000
   31      H       5.4537220000    -0.3076990000     1.9579260000
   32      H       4.7260330000     0.4977990000    -0.5991780000
   33      H       3.9849110000     1.7414600000    -2.2694170000
   34      H       2.4504530000     2.6115050000    -2.0046440000
   35      H       2.4647860000     1.2228800000    -3.0453280000
   36      H      -2.1744980000     1.5897370000    -2.1515900000
 ----------------------------------------------------------------

    7    -846.3937122180      9.43e-06  Convergence criterion met
 Total energy in the final basis set =     -846.3937122180

                    Orbital Energies (a.u.)
 --------------------------------------------------------------

 Alpha MOs
 -- Occupied --
-19.0670 -19.0670 -10.2192 -10.2192 -10.1793 -10.1793 -10.1744 -10.1744
-10.1679 -10.1679 -10.1656 -10.1656 -10.1593 -10.1593 -10.1590 -10.1590
-10.1556 -10.1556 -10.1509 -10.1509  -0.9973  -0.9948  -0.8580  -0.8510
 -0.7904  -0.7742  -0.7722  -0.7479  -0.6965  -0.6897  -0.6811  -0.6760
 -0.6371  -0.6173  -0.5858  -0.5573  -0.5347  -0.5267  -0.4971  -0.4741
 -0.4564  -0.4526  -0.4333  -0.4292  -0.4169  -0.4126  -0.4079  -0.4068
 -0.4068  -0.4054  -0.3984  -0.3968  -0.3871  -0.3862  -0.3825  -0.3702
 -0.3634  -0.3568  -0.3565  -0.3364  -0.3359  -0.3334  -0.3242  -0.3224
 -0.2556  -0.2441  -0.2410  -0.2362  -0.2344  -0.2271  -0.1339

 Beta MOs
 -- Occupied --
-19.0620 -19.0619 -10.2172 -10.2172 -10.1793 -10.1792 -10.1738 -10.1738
-10.1675 -10.1675 -10.1646 -10.1646 -10.1591 -10.1591 -10.1588 -10.1588
-10.1555 -10.1555 -10.1510 -10.1510  -0.9883  -0.9856  -0.8557  -0.8498
 -0.7869  -0.7729  -0.7710  -0.7462  -0.6953  -0.6854  -0.6805  -0.6754
 -0.6323  -0.6151  -0.5838  -0.5566  -0.5321  -0.5246  -0.4956  -0.4722
 -0.4547  -0.4519  -0.4314  -0.4231  -0.4155  -0.4094  -0.4056  -0.4056
 -0.4055  -0.4033  -0.3961  -0.3957  -0.3860  -0.3819  -0.3795  -0.3629
 -0.3559  -0.3554  -0.3500  -0.3351  -0.3330  -0.3316  -0.3231  -0.3112
 -0.2384  -0.2359  -0.2356  -0.2317  -0.2285  -0.2226

          Ground-State Mulliken Net Atomic Charges

     Atom                 Charge (a.u.)    Spin (a.u.)
  --------------------------------------------------------
      1 C                    -0.391206      -0.004072
      2 C                     0.479985       0.040198
      3 C                    -0.415892       0.045450
      4 C                     0.403451       0.017316
      5 C                    -0.561812       0.003069
      6 C                     0.225707       0.020106
      7 C                    -0.863463       0.101907
      8 O                    -0.451828       0.194410
      9 C                     0.133322       0.056476
     10 C                    -0.321469       0.024997
     11 C                     0.479921       0.040173
     12 C                    -0.391164      -0.004068
     13 C                    -0.415947       0.045451
     14 C                     0.403497       0.017311
     15 C                    -0.561711       0.003073
     16 C                     0.225757       0.020090
     17 C                    -0.863540       0.101891
     18 O                    -0.451804       0.194400
     19 C                     0.133278       0.056509
     20 C                    -0.321255       0.024978
     21 H                     0.169285       0.002815
     22 H                     0.169509       0.002808
     23 H                     0.165566       0.000113
     24 H                     0.136427      -0.003316
     25 H                     0.163893       0.000153
     26 H                     0.163868       0.000149
     27 H                     0.156758      -0.000428
     28 H                     0.137781      -0.002126
     29 H                     0.169455       0.002805
     30 H                     0.165555       0.000113
     31 H                     0.169344       0.002816
     32 H                     0.136409      -0.003316
     33 H                     0.156770      -0.000428
     34 H                     0.163885       0.000152
     35 H                     0.163881       0.000149
     36 H                     0.137781      -0.002125
  --------------------------------------------------------
  Sum of atomic charges =    -1.000004

                    Cartesian Multipole Moments
 -----------------------------------------------------------------
    Charge (ESU x 10^10)
                -4.8032
    Dipole Moment (Debye)
         X      -0.0000      Y       0.0026      Z       0.0015
       Tot       0.0030
    Quadrupole Moments (Debye-Ang)
        XX    -112.2233     XY      -1.4010     YY    -135.6643
        XZ       2.0269     YZ      13.7915     ZZ    -143.6964

 Total job time:  222.93s(wall), 562.48s(cpu)
        *  Thank you very much for using Q-Chem.  Have a nice day.  *
