 Q-Chem 5.4, Q-Chem, Inc., Pleasanton, CA (2021)
 Q-Chem 5.4.0 for Intel X86 EM64T Linux

User input:
--------------------------------------------------------------
$molecule
-1 2
C                 -1.4704310000     -2.0665090000      1.4067880000
C                 -2.0502990000     -2.0607710000      0.0810280000
C                 -1.7899960000     -1.0812280000     -0.8272650000
C                 -0.9012350000      0.0253020000     -0.5450460000
C                 -0.2791430000      0.0358400000      0.7847980000
C                 -0.5813740000     -0.9441830000      1.7316860000
O                 -1.7414680000     -2.9853950000      2.2276260000
O                 -0.6743140000      0.9109370000     -1.4143810000
H                 -2.2370290000     -1.0904850000     -1.8173730000
C                  0.5201770000     -1.9926810000      3.7434950000
C                 -0.2471880000      0.2773900000      3.9090980000
C                  0.9708960000     -1.9347700000      5.0599390000
C                  0.8125350000     -0.7701990000      5.8120110000
C                  0.1945620000      0.3354210000      5.2288930000
H                 -2.7175470000     -2.8866930000     -0.1489010000
H                  0.6230190000     -2.9082420000      3.1765820000
H                 -0.7274730000      1.1421020000      3.4666780000
H                  1.4406400000     -2.8073600000      5.5037770000
H                  1.1596680000     -0.7276330000      6.8396250000
H                  0.0545660000      1.2467320000      5.8020660000
C                  0.7302940000      1.1024870000      1.0325430000
C                  0.4434380000      2.4520380000      0.7707140000
C                  2.0187990000      0.7880580000      1.4910550000
C                  1.3945350000      3.4453700000      0.9903380000
C                  2.9751040000      1.7784440000      1.7031460000
C                  2.6668520000      3.1162590000      1.4591800000
H                 -0.5315170000      2.7135100000      0.3817250000
H                  2.2699120000     -0.2484650000      1.6825670000
H                  1.1432330000      4.4817190000      0.7856570000
H                  3.9629960000      1.5030270000      2.0592770000
H                  3.4091270000      3.8906740000      1.6253590000
C                 -0.0841800000     -0.8811420000      3.1341370000
$end

$rem
BASIS  =  6-311++G(d,p)
GUI  =  2
JOB_TYPE  =  SP
METHOD  =  B3LYP
SCF_CONVERGENCE  = 8
SOLVENT_METHOD = sm12
$end

$smx
solvent dimethylformamide
charges CM5
$end

--------------------------------------------------------------

             Standard Nuclear Orientation (Angstroms)
    I     Atom           X                Y                Z
 ----------------------------------------------------------------
    1      C      -1.4704310000    -2.0665090000     1.4067880000
    2      C      -2.0502990000    -2.0607710000     0.0810280000
    3      C      -1.7899960000    -1.0812280000    -0.8272650000
    4      C      -0.9012350000     0.0253020000    -0.5450460000
    5      C      -0.2791430000     0.0358400000     0.7847980000
    6      C      -0.5813740000    -0.9441830000     1.7316860000
    7      O      -1.7414680000    -2.9853950000     2.2276260000
    8      O      -0.6743140000     0.9109370000    -1.4143810000
    9      H      -2.2370290000    -1.0904850000    -1.8173730000
   10      C       0.5201770000    -1.9926810000     3.7434950000
   11      C      -0.2471880000     0.2773900000     3.9090980000
   12      C       0.9708960000    -1.9347700000     5.0599390000
   13      C       0.8125350000    -0.7701990000     5.8120110000
   14      C       0.1945620000     0.3354210000     5.2288930000
   15      H      -2.7175470000    -2.8866930000    -0.1489010000
   16      H       0.6230190000    -2.9082420000     3.1765820000
   17      H      -0.7274730000     1.1421020000     3.4666780000
   18      H       1.4406400000    -2.8073600000     5.5037770000
   19      H       1.1596680000    -0.7276330000     6.8396250000
   20      H       0.0545660000     1.2467320000     5.8020660000
   21      C       0.7302940000     1.1024870000     1.0325430000
   22      C       0.4434380000     2.4520380000     0.7707140000
   23      C       2.0187990000     0.7880580000     1.4910550000
   24      C       1.3945350000     3.4453700000     0.9903380000
   25      C       2.9751040000     1.7784440000     1.7031460000
   26      C       2.6668520000     3.1162590000     1.4591800000
   27      H      -0.5315170000     2.7135100000     0.3817250000
   28      H       2.2699120000    -0.2484650000     1.6825670000
   29      H       1.1432330000     4.4817190000     0.7856570000
   30      H       3.9629960000     1.5030270000     2.0592770000
   31      H       3.4091270000     3.8906740000     1.6253590000
   32      C      -0.0841800000    -0.8811420000     3.1341370000
 ----------------------------------------------------------------

   16    -843.8567692086      8.83e-09  Convergence criterion met
 Total energy in the final basis set =     -843.9459338876

                    Orbital Energies (a.u.)
 --------------------------------------------------------------

 Alpha MOs
 -- Occupied --
-19.0762 -19.0762 -10.2237 -10.2237 -10.1904 -10.1904 -10.1837 -10.1831
-10.1823 -10.1823 -10.1818 -10.1818 -10.1812 -10.1812 -10.1804 -10.1804
-10.1785 -10.1785 -10.1704 -10.1697  -1.0011  -0.9987  -0.8721  -0.8627
 -0.8293  -0.7851  -0.7653  -0.7537  -0.7532  -0.7214  -0.6831  -0.6349
 -0.6179  -0.6117  -0.6096  -0.5780  -0.5638  -0.5200  -0.5193  -0.4875
 -0.4760  -0.4687  -0.4641  -0.4551  -0.4484  -0.4389  -0.4292  -0.4279
 -0.4241  -0.4072  -0.4032  -0.3909  -0.3820  -0.3775  -0.3721  -0.3712
 -0.3544  -0.3524  -0.3500  -0.3489  -0.2899  -0.2781  -0.2740  -0.2623
 -0.2616  -0.2402  -0.2354  -0.2310  -0.1632

 Beta MOs
 -- Occupied --
-19.0689 -19.0689 -10.2228 -10.2228 -10.1906 -10.1905 -10.1824 -10.1823
-10.1823 -10.1819 -10.1818 -10.1818 -10.1813 -10.1812 -10.1802 -10.1802
-10.1783 -10.1783 -10.1694 -10.1687  -0.9887  -0.9859  -0.8712  -0.8624
 -0.8246  -0.7829  -0.7643  -0.7535  -0.7530  -0.7198  -0.6743  -0.6320
 -0.6170  -0.6114  -0.6091  -0.5761  -0.5615  -0.5189  -0.5184  -0.4859
 -0.4732  -0.4677  -0.4630  -0.4543  -0.4469  -0.4371  -0.4287  -0.4278
 -0.4235  -0.3974  -0.3907  -0.3876  -0.3797  -0.3734  -0.3705  -0.3558
 -0.3516  -0.3500  -0.3475  -0.3427  -0.2800  -0.2727  -0.2613  -0.2610
 -0.2512  -0.2338  -0.2293  -0.2240

          Ground-State Mulliken Net Atomic Charges

     Atom                 Charge (a.u.)    Spin (a.u.)
  --------------------------------------------------------
      1 C                    -1.545557       0.063307
      2 C                     0.082913       0.080303
      3 C                     0.083532       0.080605
      4 C                    -1.550372       0.063364
      5 C                    -1.354244       0.076868
      6 C                    -1.348217       0.077149
      7 O                    -0.305340       0.264793
      8 O                    -0.305161       0.264843
      9 H                     0.234014      -0.007140
     10 C                    -0.007923       0.026820
     11 C                    -1.146593       0.010142
     12 C                     0.531413      -0.002417
     13 C                     0.810639       0.009676
     14 C                     0.272742      -0.004509
     15 H                     0.234039      -0.007148
     16 H                     0.171187      -0.001772
     17 H                     0.155539      -0.001064
     18 H                     0.324609       0.000389
     19 H                     0.355558      -0.000718
     20 H                     0.331831       0.000428
     21 C                     0.596491      -0.015917
     22 C                    -0.002908       0.027131
     23 C                    -1.154303       0.010217
     24 C                     0.530105      -0.002369
     25 C                     0.271615      -0.004459
     26 C                     0.810268       0.009726
     27 H                     0.170747      -0.001766
     28 H                     0.154598      -0.001052
     29 H                     0.324663       0.000383
     30 H                     0.331437       0.000431
     31 H                     0.355481      -0.000720
     32 C                     0.587196      -0.015525
  --------------------------------------------------------
  Sum of atomic charges =    -1.000000

                    Cartesian Multipole Moments
 -----------------------------------------------------------------
    Charge (ESU x 10^10)
                -4.8032
    Dipole Moment (Debye)
         X       4.5466      Y       4.0441      Z      -3.3243
       Tot       6.9338
    Quadrupole Moments (Debye-Ang)
        XX    -128.1767     XY     -12.9678     YY    -137.3071
        XZ       9.5100     YZ      18.0969     ZZ    -142.3335

 Total job time:  1055.37s(wall), 8240.35s(cpu)
        *  Thank you very much for using Q-Chem.  Have a nice day.  *
