 Q-Chem 5.4, Q-Chem, Inc., Pleasanton, CA (2021)
 Q-Chem 5.4.0 for Intel X86 EM64T Linux

User input:
--------------------------------------------------------------
$molecule
0 1
Cl                 3.0042660000     -0.8768930000     -0.1896520000
C                  1.3718010000     -0.3098590000     -0.0839020000
C                  1.0746500000      0.9950780000     -0.0286450000
C                 -0.3295850000      1.4556890000      0.0615850000
O                 -0.5979970000      2.6438570000      0.1118130000
C                 -1.3974890000      0.4310240000      0.0889560000
C                 -1.1036080000     -0.8746800000      0.0338100000
Cl                -2.3315660000     -2.0948570000      0.0639220000
C                  0.3116570000     -1.3767940000     -0.0581600000
O                  0.5773270000     -2.5520730000     -0.1079180000
H                  1.8358650000      1.7649570000     -0.0469740000
H                 -2.4153210000      0.7945510000      0.1551650000
$end

$rem
BASIS  =  6-311++G(d,p)
GUI  =  2
JOB_TYPE  =  SP
METHOD  =  B3LYP
SCF_CONVERGENCE  = 8
SOLVENT_METHOD = sm12
$end

$smx
solvent dimethylformamide
charges CM5
$end

--------------------------------------------------------------

             Standard Nuclear Orientation (Angstroms)
    I     Atom           X                Y                Z
 ----------------------------------------------------------------
    1      Cl      3.0042660000    -0.8768930000    -0.1896520000
    2      C       1.3718010000    -0.3098590000    -0.0839020000
    3      C       1.0746500000     0.9950780000    -0.0286450000
    4      C      -0.3295850000     1.4556890000     0.0615850000
    5      O      -0.5979970000     2.6438570000     0.1118130000
    6      C      -1.3974890000     0.4310240000     0.0889560000
    7      C      -1.1036080000    -0.8746800000     0.0338100000
    8      Cl     -2.3315660000    -2.0948570000     0.0639220000
    9      C       0.3116570000    -1.3767940000    -0.0581600000
   10      O       0.5773270000    -2.5520730000    -0.1079180000
   11      H       1.8358650000     1.7649570000    -0.0469740000
   12      H      -2.4153210000     0.7945510000     0.1551650000
 ----------------------------------------------------------------

   15   -1300.7988653250      2.43e-09  Convergence criterion met
 Total energy in the final basis set =    -1300.8126796141

                    Orbital Energies (a.u.)
 --------------------------------------------------------------

 Alpha MOs
 -- Occupied --
********-101.5828 -19.1645 -19.1525 -10.3171 -10.3023 -10.2853 -10.2853
-10.2290 -10.2290  -9.4975  -9.4974  -7.2624  -7.2622  -7.2526  -7.2525
 -7.2514  -7.2513  -1.1021  -1.0834  -0.9252  -0.9112  -0.8441  -0.7834
 -0.7257  -0.6438  -0.6246  -0.5572  -0.5272  -0.4994  -0.4820  -0.4813
 -0.4688  -0.4537  -0.4396  -0.4345  -0.4001  -0.3783  -0.3476  -0.3410
 -0.3130  -0.3109  -0.2975  -0.2933

          Ground-State Mulliken Net Atomic Charges

     Atom                 Charge (a.u.)
  ----------------------------------------
      1 Cl                    0.271900
      2 C                     0.983271
      3 C                     0.255968
      4 C                    -0.810958
      5 O                    -0.306928
      6 C                     0.258060
      7 C                     0.984337
      8 Cl                    0.271990
      9 C                    -2.372352
     10 O                    -0.172955
     11 H                     0.318838
     12 H                     0.318828
  ----------------------------------------
  Sum of atomic charges =     0.000000

                    Cartesian Multipole Moments
 -----------------------------------------------------------------
    Charge (ESU x 10^10)
                -0.0000
    Dipole Moment (Debye)
         X      -0.2065      Y       0.9082      Z       0.0382
       Tot       0.9321
    Quadrupole Moments (Debye-Ang)
        XX     -66.5464     XY       4.5987     YY     -85.8076
        XZ      -0.0017     YZ      -0.7505     ZZ     -69.1420

 Total job time:  93.01s(wall), 627.33s(cpu)
        *  Thank you very much for using Q-Chem.  Have a nice day.  *
