 Gaussian 16, Revision A.03,
 Gaussian 16:  ES64L-G16RevA.03 25-Dec-2016

 --------------------------------------
 #P UB3LYP/6-311++G(d,p) nosym opt freq
 --------------------------------------

 --------
 Oxidized
 --------
 Symbolic Z-matrix:
 Charge =  0 Multiplicity = 1

 SCF Done:  E(UB3LYP) =  -1300.79956792     A.U. after   18 cycles
 Optimization completed.
    -- Stationary point found.
 Normal termination of Gaussian 16 at Sat Jan  6 05:38:00 2024.

 ----------------------------------------------------------------------
 #P Geom=AllCheck Guess=TCheck SCRF=Check GenChk UB3LYP/6-311++G(d,p) F
 req
 ----------------------------------------------------------------------

 Structure from the checkpoint file:  "011.chk"
 --------
 Oxidized
 --------
 Charge =  0 Multiplicity = 1

                          Input orientation:
 ---------------------------------------------------------------------
 Center     Atomic      Atomic             Coordinates (Angstroms)
 Number     Number       Type             X           Y           Z
 ---------------------------------------------------------------------
      1         17           0        3.004266   -0.876893   -0.189652
      2          6           0        1.371801   -0.309859   -0.083902
      3          6           0        1.074650    0.995078   -0.028645
      4          6           0       -0.329585    1.455689    0.061585
      5          8           0       -0.597997    2.643857    0.111813
      6          6           0       -1.397489    0.431024    0.088956
      7          6           0       -1.103608   -0.874680    0.033810
      8         17           0       -2.331566   -2.094857    0.063922
      9          6           0        0.311657   -1.376794   -0.058160
     10          8           0        0.577327   -2.552073   -0.107918
     11          1           0        1.835865    1.764957   -0.046974
     12          1           0       -2.415321    0.794551    0.155165
 ---------------------------------------------------------------------

 SCF Done:  E(UB3LYP) =  -1300.79956792     A.U. after    1 cycles

 Alpha  occ. eigenvalues -- -101.59054-101.59053 -19.17082 -19.15895 -10.32337
 Alpha  occ. eigenvalues --  -10.30910 -10.29380 -10.29376 -10.23824 -10.23823
 Alpha  occ. eigenvalues --   -9.50498  -9.50496  -7.26986  -7.26984  -7.26001
 Alpha  occ. eigenvalues --   -7.25999  -7.25894  -7.25893  -1.10801  -1.08959
 Alpha  occ. eigenvalues --   -0.93326  -0.91913  -0.85202  -0.79221  -0.73336
 Alpha  occ. eigenvalues --   -0.65221  -0.63320  -0.56499  -0.53578  -0.50665
 Alpha  occ. eigenvalues --   -0.49128  -0.48821  -0.47606  -0.46044  -0.44516
 Alpha  occ. eigenvalues --   -0.44323  -0.40798  -0.38443  -0.35444  -0.34762
 Alpha  occ. eigenvalues --   -0.31834  -0.31795  -0.30305  -0.30217
 Alpha virt. eigenvalues --   -0.15939  -0.06107  -0.02538  -0.02478  -0.01035
 Alpha virt. eigenvalues --    0.00178   0.00714   0.02244   0.03361   0.03461
 Alpha virt. eigenvalues --    0.05576   0.05982   0.06782   0.06979   0.08324

  Beta  occ. eigenvalues -- -101.59054-101.59053 -19.17082 -19.15895 -10.32337
  Beta  occ. eigenvalues --  -10.30910 -10.29380 -10.29376 -10.23824 -10.23823
  Beta  occ. eigenvalues --   -9.50498  -9.50496  -7.26986  -7.26984  -7.26001
  Beta  occ. eigenvalues --   -7.25999  -7.25894  -7.25893  -1.10801  -1.08959
  Beta  occ. eigenvalues --   -0.93326  -0.91913  -0.85202  -0.79221  -0.73336
  Beta  occ. eigenvalues --   -0.65221  -0.63320  -0.56499  -0.53578  -0.50665
  Beta  occ. eigenvalues --   -0.49128  -0.48821  -0.47606  -0.46044  -0.44516
  Beta  occ. eigenvalues --   -0.44323  -0.40798  -0.38443  -0.35444  -0.34762
  Beta  occ. eigenvalues --   -0.31834  -0.31795  -0.30305  -0.30217
  Beta virt. eigenvalues --   -0.15939  -0.06107  -0.02538  -0.02478  -0.01035
  Beta virt. eigenvalues --    0.00178   0.00714   0.02244   0.03361   0.03461
  Beta virt. eigenvalues --    0.05576   0.05982   0.06782   0.06979   0.08324

 Mulliken charges and spin densities:
               1          2
     1  Cl   0.358225  -0.000000
     2  C    1.010870   0.000000
     3  C   -0.294417  -0.000000
     4  C   -0.675716   0.000000
     5  O   -0.218491  -0.000000
     6  C   -0.293487   0.000000
     7  C    1.010445   0.000000
     8  Cl   0.358314   0.000000
     9  C   -1.629054  -0.000000
    10  O   -0.098634   0.000000
    11  H    0.235981  -0.000000
    12  H    0.235963   0.000000
 Sum of Mulliken charges =  -0.00000  -0.00000

 Dipole moment (field-independent basis, Debye):
    X=             -0.1431    Y=              0.6270    Z=              0.0266  Tot=              0.6437
 Quadrupole moment (field-independent basis, Debye-Ang):
   XX=            -66.6191   YY=            -84.8647   ZZ=            -69.1607
   XY=              4.3573   XZ=             -0.0063   YZ=             -0.7087

  Exact polarizability: 114.146  -5.997 139.872  -3.597   2.983  51.573
 Approx polarizability: 155.382 -31.658 288.913  -5.154   8.046  78.577

                      1                      2                      3
                      A                      A                      A
 Frequencies --     60.1264               132.3272               174.3273
 Red. masses --     17.4913                10.4282                 4.9581
 Frc consts  --      0.0373                 0.1076                 0.0888
 IR Inten    --      3.0055                 7.8519                 0.0000

                      4                      5                      6
                      A                      A                      A
 Frequencies --    193.6438               262.1204               311.6073
 Red. masses --     23.6647                16.0320                 5.6489
 Frc consts  --      0.5228                 0.6490                 0.3232
 IR Inten    --      0.0005                 0.4243                 0.0749

                      7                      8                      9
                      A                      A                      A
 Frequencies --    337.5182               367.6991               444.1631
 Red. masses --     17.9887                17.6713                 8.1887
 Frc consts  --      1.2074                 1.4077                 0.9518
 IR Inten    --      0.2476                 1.9917                29.4808

                     10                     11                     12
                      A                      A                      A
 Frequencies --    456.7955               485.0111               631.3373
 Red. masses --      5.4046                14.3323                 5.5614
 Frc consts  --      0.6644                 1.9864                 1.3060
 IR Inten    --      0.0001                 0.3905                 0.7380

                     13                     14                     15
                      A                      A                      A
 Frequencies --    674.9173               784.1123               784.6540
 Red. masses --      4.0308                 6.5925                12.4613
 Frc consts  --      1.0818                 2.3881                 4.5203
 IR Inten    --      0.4199                 0.8335               134.3407

                     16                     17                     18
                      A                      A                      A
 Frequencies --    795.1170               885.3503               886.8786
 Red. masses --     11.0108                 1.3331                 4.2491
 Frc consts  --      4.1014                 0.6157                 1.9691
 IR Inten    --      1.7101                 0.0001                 0.0628

                     19                     20                     21
                      A                      A                      A
 Frequencies --    920.4084              1035.3346              1139.1671
 Red. masses --      1.5065                 5.2270                 2.4932
 Frc consts  --      0.7519                 3.3011                 1.9063
 IR Inten    --     49.7808               138.2720                 0.0685

                     22                     23                     24
                      A                      A                      A
 Frequencies --   1278.1633              1292.6154              1318.2849
 Red. masses --      6.0415                 1.5219                 2.2473
 Frc consts  --      5.8152                 1.4982                 2.3011
 IR Inten    --    174.9611                23.8790                 9.5350

                     25                     26                     27
                      A                      A                      A
 Frequencies --   1624.3611              1665.3469              1716.0319
 Red. masses --      9.0195                 8.8513                10.9271
 Frc consts  --     14.0217                14.4633                18.9586
 IR Inten    --    134.4999                22.5138               272.2155

                     28                     29                     30
                      A                      A                      A
 Frequencies --   1763.7465              3204.5511              3205.3134
 Red. masses --     13.2425                 1.0933                 1.0941
 Frc consts  --     24.2712                 6.6151                 6.6228
 IR Inten    --    202.3686                 0.3332                 1.0905

 - Thermochemistry -
 -------------------
 Temperature   298.150 Kelvin.  Pressure   1.00000 Atm.
 Atom     1 has atomic number 17 and mass  34.96885

 Molecular mass:   175.94318 amu.
 Principal axes and moments of inertia in atomic units:
                           1         2         3
     Eigenvalues --  1466.814722185.092523651.90724
           X            0.97390  -0.22040   0.05427
           Y            0.22222   0.97454  -0.02993
           Z           -0.04629   0.04121   0.99808
 This molecule is an asymmetric top.
 Rotational symmetry number  1.
 Warning -- assumption of classical behavior for rotation
           may cause significant error
 Rotational temperatures (Kelvin)      0.05905     0.03964     0.02372
 Rotational constants (GHZ):           1.23038     0.82593     0.49419
 Zero-point vibrational energy     172447.9 (Joules/Mol)
                                   41.21603 (Kcal/Mol)
 Warning -- explicit consideration of  11 degrees of freedom as
           vibrations may cause significant error
 Vibrational temperatures:     86.51   190.39   250.82   278.61   377.13
          (Kelvin)            448.33   485.61   529.04   639.05   657.23
                              697.82   908.35   971.06  1128.16  1128.94
                             1144.00  1273.82  1276.02  1324.26  1489.62
                             1639.01  1838.99  1859.79  1896.72  2337.09
                             2396.06  2468.99  2537.64  4610.63  4611.73

 Zero-point correction=                           0.065682 (Hartree/Particle)
 Thermal correction to Energy=                    0.074304
 Thermal correction to Enthalpy=                  0.075248
 Thermal correction to Gibbs Free Energy=         0.030663
 Sum of electronic and zero-point Energies=          -1300.733886
 Sum of electronic and thermal Energies=             -1300.725264
 Sum of electronic and thermal Enthalpies=           -1300.724320
 Sum of electronic and thermal Free Energies=        -1300.768905

                     E (Thermal)             CV                S
                      KCal/Mol        Cal/Mol-Kelvin    Cal/Mol-Kelvin
 Total                   46.626             30.674             93.837
 Electronic               0.000              0.000              0.000
 Translational            0.889              2.981             41.402
 Rotational               0.889              2.981             30.838
 Vibrational             44.849             24.713             21.597
 Vibration     1          0.597              1.973              4.453
 Vibration     2          0.612              1.921              2.912
 Vibration     3          0.627              1.874              2.388
 Vibration     4          0.635              1.849              2.193
 Vibration     5          0.669              1.742              1.648
 Vibration     6          0.700              1.652              1.354
 Vibration     7          0.718              1.601              1.224
 Vibration     8          0.740              1.539              1.089
 Vibration     9          0.804              1.374              0.814
 Vibration    10          0.815              1.346              0.775
 Vibration    11          0.841              1.283              0.697

 Optimization completed.
    -- Stationary point found.
 Normal termination of Gaussian 16 at Sat Jan  6 05:42:10 2024.
