 Gaussian 16, Revision A.03,
 Gaussian 16:  ES64L-G16RevA.03 25-Dec-2016

 --------------------------------------
 #P UB3LYP/6-311++G(d,p) nosym opt freq
 --------------------------------------

 -------
 Radical
 -------
 Symbolic Z-matrix:
 Charge = -1 Multiplicity = 2

 SCF Done:  E(UB3LYP) =  -653.287515865     A.U. after   23 cycles
 SCF Done:  E(UB3LYP) =  -653.301728581     A.U. after   18 cycles
 SCF Done:  E(UB3LYP) =  -653.302521116     A.U. after   18 cycles
 SCF Done:  E(UB3LYP) =  -653.303204351     A.U. after   16 cycles
 SCF Done:  E(UB3LYP) =  -653.303235314     A.U. after   13 cycles
 SCF Done:  E(UB3LYP) =  -653.303237111     A.U. after   12 cycles
 SCF Done:  E(UB3LYP) =  -653.303236923     A.U. after   11 cycles
 SCF Done:  E(UB3LYP) =  -653.303237562     A.U. after   10 cycles
 Optimization completed.
    -- Stationary point found.
 Normal termination of Gaussian 16 at Tue Dec 26 20:43:44 2023.

 ----------------------------------------------------------------------
 #P Geom=AllCheck Guess=TCheck SCRF=Check GenChk UB3LYP/6-311++G(d,p) F
 req
 ----------------------------------------------------------------------

 Structure from the checkpoint file:  "255-rad.chk"
 -------
 Radical
 -------
 Charge = -1 Multiplicity = 2

                          Input orientation:
 ---------------------------------------------------------------------
 Center     Atomic      Atomic             Coordinates (Angstroms)
 Number     Number       Type             X           Y           Z
 ---------------------------------------------------------------------
      1          6           0       -1.617103    2.780041    0.019965
      2          6           0       -2.876344    2.215159    0.015995
      3          6           0       -3.000615    0.819826    0.006223
      4          6           0       -0.466754    1.971564    0.014293
      5          6           0       -0.582245    0.545723    0.004267
      6          6           0       -1.893130   -0.023749    0.000305
      7          6           0        0.837103    2.660387    0.019153
      8          6           0        2.021502    1.833494    0.013359
      9          6           0        1.925445    0.450943    0.003605
     10          6           0        0.660481   -0.258342   -0.001445
     11          8           0        0.896003    3.922823    0.028040
     12          8           0        0.669496   -1.524033   -0.010439
     13          6           0        3.349535    2.555653    0.018487
     14          6           0        3.144968   -0.438698   -0.002635
     15          6           0       -2.185902   -1.515521   -0.010097
     16          1           0       -1.467998    3.853003    0.027495
     17          1           0       -3.763981    2.841621    0.020393
     18          1           0       -3.991582    0.371237    0.003108
     19          1           0        3.164926    3.630055    0.026109
     20          1           0        3.952129    2.312453   -0.865069
     21          1           0        3.952127    2.299940    0.898505
     22          1           0        4.074466    0.131448    0.001496
     23          1           0        3.137700   -1.096175   -0.878833
     24          1           0        3.137558   -1.108578    0.864116
     25          1           0       -1.272247   -2.100732   -0.013673
     26          1           0       -2.782452   -1.773922   -0.893610
     27          1           0       -2.783368   -1.786020    0.869166
 ---------------------------------------------------------------------

 SCF Done:  E(UB3LYP) =  -653.303237562     A.U. after    1 cycles

 Alpha  occ. eigenvalues --  -18.93422 -18.93409 -10.08479 -10.08149 -10.05857
 Alpha  occ. eigenvalues --  -10.04847 -10.04656 -10.04487 -10.04052 -10.03790
 Alpha  occ. eigenvalues --  -10.03687 -10.03628 -10.03513 -10.03495 -10.03323
 Alpha  occ. eigenvalues --   -0.86052  -0.85746  -0.72964  -0.68703  -0.64421
 Alpha  occ. eigenvalues --   -0.62964  -0.60021  -0.56296  -0.54577  -0.51889
 Alpha  occ. eigenvalues --   -0.46391  -0.46037  -0.40888  -0.38249  -0.36193
 Alpha  occ. eigenvalues --   -0.33839  -0.32471  -0.30877  -0.29991  -0.29530
 Alpha  occ. eigenvalues --   -0.28063  -0.27909  -0.27707  -0.26184  -0.25989
 Alpha  occ. eigenvalues --   -0.25731  -0.25109  -0.24637  -0.23064  -0.22850
 Alpha  occ. eigenvalues --   -0.21198  -0.21119  -0.20562  -0.13413  -0.11839
 Alpha  occ. eigenvalues --   -0.11217  -0.10378  -0.09326  -0.01299
 Alpha virt. eigenvalues --    0.08516   0.08963   0.09443   0.09925   0.11037
 Alpha virt. eigenvalues --    0.11115   0.11663   0.12070   0.12652   0.13317
 Alpha virt. eigenvalues --    0.13779   0.14832   0.14977   0.16192   0.16560

  Beta  occ. eigenvalues --  -18.92786 -18.92768 -10.08324 -10.08013 -10.05855
  Beta  occ. eigenvalues --  -10.04803 -10.04604 -10.04446 -10.03977 -10.03796
  Beta  occ. eigenvalues --  -10.03553 -10.03529 -10.03507 -10.03481 -10.03325
  Beta  occ. eigenvalues --   -0.84963  -0.84610  -0.72786  -0.68260  -0.64322
  Beta  occ. eigenvalues --   -0.62751  -0.59729  -0.56171  -0.54379  -0.51294
  Beta  occ. eigenvalues --   -0.46229  -0.45686  -0.40621  -0.38100  -0.35963
  Beta  occ. eigenvalues --   -0.33651  -0.32376  -0.30329  -0.29711  -0.29448
  Beta  occ. eigenvalues --   -0.27945  -0.27614  -0.27399  -0.26052  -0.25876
  Beta  occ. eigenvalues --   -0.24815  -0.24762  -0.24565  -0.22909  -0.20945
  Beta  occ. eigenvalues --   -0.20478  -0.20351  -0.20084  -0.11434  -0.11062
  Beta  occ. eigenvalues --   -0.09907  -0.09784  -0.08753
  Beta virt. eigenvalues --    0.05253   0.08515   0.08963   0.09922   0.10002
  Beta virt. eigenvalues --    0.11038   0.11661   0.11981   0.12249   0.12801
  Beta virt. eigenvalues --    0.13319   0.13771   0.14837   0.15123   0.16191

 Mulliken charges and spin densities:
               1          2
     1  C   -0.072943   0.016353
     2  C   -0.155736   0.040151
     3  C   -0.067980   0.025604
     4  C    0.653900   0.055508
     5  C    0.337147   0.042674
     6  C    0.183792   0.005661
     7  C   -0.958957   0.058975
     8  C    0.386513   0.095267
     9  C    0.303843   0.085882
    10  C   -0.854015   0.085710
    11  O   -0.387506   0.241643
    12  O   -0.365386   0.232777
    13  C   -0.612440  -0.005189
    14  C   -0.492535  -0.001116
    15  C   -0.577755   0.009041
    16  H    0.152813  -0.002039
    17  H    0.125372  -0.002776
    18  H    0.108956  -0.002673
    19  H    0.185642  -0.001852
    20  H    0.123694   0.005360
    21  H    0.123682   0.005360
    22  H    0.123549   0.000099
    23  H    0.154904   0.005807
    24  H    0.154895   0.005805
    25  H    0.194570  -0.002383
    26  H    0.116033   0.000178
    27  H    0.115946   0.000174
 Sum of Mulliken charges =  -1.00000   1.00000

 Dipole moment (field-independent basis, Debye):
    X=             -1.9098    Y=             -5.9218    Z=             -0.0435  Tot=              6.2223
 Quadrupole moment (field-independent basis, Debye-Ang):
   XX=           -103.5306   YY=           -134.5855   ZZ=            -94.9696
   XY=             -4.2302   XZ=             -0.0303   YZ=             -0.2821

  Exact polarizability: 246.958   3.403 217.667   0.024   0.839  98.645
 Approx polarizability: 351.140  -0.057 385.601  -0.001   1.616 156.632

 ******    2 imaginary frequencies (negative Signs) ******

                      1                      2                      3
                      A                      A                      A
 Frequencies --   -170.4761               -42.3847                49.4164
 Red. masses --      1.0279                 1.0774                 4.1416
 Frc consts  --      0.0176                 0.0011                 0.0060
 IR Inten    --      0.0043                 0.3229                 4.3414

                      4                      5                      6
                      A                      A                      A
 Frequencies --     69.9986               112.7474               143.1978
 Red. masses --      4.3981                 1.7659                 1.5312
 Frc consts  --      0.0127                 0.0132                 0.0185
 IR Inten    --      4.3890                 0.0059                 0.2082

                      7                      8                      9
                      A                      A                      A
 Frequencies --    175.7924               221.3342               254.0073
 Red. masses --      4.2119                 3.4384                 3.5704
 Frc consts  --      0.0767                 0.0992                 0.1357
 IR Inten    --      1.4886                 1.1374                 2.9934

                     10                     11                     12
                      A                      A                      A
 Frequencies --    298.2512               334.6537               352.5368
 Red. masses --      3.8167                 2.7034                 3.9747
 Frc consts  --      0.2000                 0.1784                 0.2910
 IR Inten    --      0.0171                 0.2203                 3.1174

                     13                     14                     15
                      A                      A                      A
 Frequencies --    359.2583               402.0401               403.8946
 Red. masses --      4.7374                 8.6469                 5.6877
 Frc consts  --      0.3603                 0.8235                 0.5467
 IR Inten    --      0.2911                 7.1517                 0.0153

                     16                     17                     18
                      A                      A                      A
 Frequencies --    422.4523               444.0923               512.6652
 Red. masses --      5.6751                 4.4750                 7.4096
 Frc consts  --      0.5967                 0.5200                 1.1474
 IR Inten    --      3.3400                12.7856                 2.2399

                     19                     20                     21
                      A                      A                      A
 Frequencies --    513.0280               521.4824               557.2070
 Red. masses --      3.8582                 3.8365                 5.0268
 Frc consts  --      0.5983                 0.6147                 0.9196
 IR Inten    --      1.1520                 1.5710                 3.1237

                     22                     23                     24
                      A                      A                      A
 Frequencies --    618.2229               684.2975               694.3188
 Red. masses --      5.6813                 4.1102                 4.5159
 Frc consts  --      1.2793                 1.1340                 1.2827
 IR Inten    --     13.3056                 5.4349                 6.6254

                     25                     26                     27
                      A                      A                      A
 Frequencies --    718.3423               773.9359               806.6097
 Red. masses --      3.8665                 1.8471                 4.1310
 Frc consts  --      1.1755                 0.6519                 1.5835
 IR Inten    --     22.0423                22.1275                 0.7096

                     28                     29                     30
                      A                      A                      A
 Frequencies --    808.2356               846.1027               897.6404
 Red. masses --      3.3625                 4.2035                 1.3480
 Frc consts  --      1.2941                 1.7730                 0.6400
 IR Inten    --      7.8751                16.7662                 0.0739

                     31                     32                     33
                      A                      A                      A
 Frequencies --    945.7282               980.3171               989.5076
 Red. masses --      2.4224                 1.2982                 3.5350
 Frc consts  --      1.2765                 0.7351                 2.0393
 IR Inten    --      2.0406                 1.5470                 1.1771

                     34                     35                     36
                      A                      A                      A
 Frequencies --   1005.2144              1028.1883              1029.8064
 Red. masses --      1.4651                 2.3092                 1.4271
 Frc consts  --      0.8722                 1.4383                 0.8917
 IR Inten    --     25.0362                 2.8963                 0.0472

                     37                     38                     39
                      A                      A                      A
 Frequencies --   1051.1376              1060.7657              1101.2675
 Red. masses --      1.5183                 1.4695                 2.0011
 Frc consts  --      0.9884                 0.9742                 1.4299
 IR Inten    --      0.0138                 0.5514                22.0867

                     40                     41                     42
                      A                      A                      A
 Frequencies --   1113.0854              1161.4688              1176.2707
 Red. masses --      2.4748                 1.6169                 2.0189
 Frc consts  --      1.8066                 1.2851                 1.6458
 IR Inten    --     42.1461                10.9614                 4.1759

                     43                     44                     45
                      A                      A                      A
 Frequencies --   1227.5178              1240.3058              1257.8329
 Red. masses --      5.2135                 5.0707                 2.0736
 Frc consts  --      4.6284                 4.5960                 1.9330
 IR Inten    --     14.3110                12.9741                29.2597

                     46                     47                     48
                      A                      A                      A
 Frequencies --   1328.6898              1371.2103              1382.9721
 Red. masses --      8.3157                 1.3863                 1.2989
 Frc consts  --      8.6496                 1.5358                 1.4637
 IR Inten    --      5.8327                20.5190                64.6886

                     49                     50                     51
                      A                      A                      A
 Frequencies --   1396.4966              1404.5902              1423.5524
 Red. masses --      1.4020                 2.3873                 2.7968
 Frc consts  --      1.6110                 2.7750                 3.3393
 IR Inten    --      2.1479                70.7029                13.9426

                     52                     53                     54
                      A                      A                      A
 Frequencies --   1452.6928              1469.2607              1472.9763
 Red. masses --      1.9118                 1.0466                 1.5019
 Frc consts  --      2.3771                 1.3312                 1.9200
 IR Inten    --    115.7501                 5.4175                18.3215

                     55                     56                     57
                      A                      A                      A
 Frequencies --   1477.7418              1490.3172              1506.5545
 Red. masses --      1.2882                 1.1464                 1.0479
 Frc consts  --      1.6574                 1.5002                 1.4013
 IR Inten    --      6.6942                 3.5359                 3.2652

                     58                     59                     60
                      A                      A                      A
 Frequencies --   1516.9808              1517.7574              1526.2862
 Red. masses --      5.1828                 1.0474                 5.1066
 Frc consts  --      7.0271                 1.4216                 7.0090
 IR Inten    --     10.4370                 4.3069               428.6196

                     61                     62                     63
                      A                      A                      A
 Frequencies --   1558.9994              1609.6828              1618.6233
 Red. masses --      4.4454                 6.1515                 6.3607
 Frc consts  --      6.3657                 9.3910                 9.8185
 IR Inten    --     36.0924                 7.5179                 1.6030

                     64                     65                     66
                      A                      A                      A
 Frequencies --   2993.0807              2993.9998              3013.5992
 Red. masses --      1.0411                 1.0427                 1.0391
 Frc consts  --      5.4950                 5.5070                 5.5598
 IR Inten    --    155.8121                51.1123                92.8630

                     67                     68                     69
                      A                      A                      A
 Frequencies --   3028.6034              3031.2009              3045.6597
 Red. masses --      1.0994                 1.0990                 1.0982
 Frc consts  --      5.9417                 5.9497                 6.0019
 IR Inten    --     47.8844                42.8324                31.7952

                     70                     71                     72
                      A                      A                      A
 Frequencies --   3107.6205              3111.2323              3118.7046
 Red. masses --      1.0965                 1.0946                 1.0854
 Frc consts  --      6.2391                 6.2427                 6.2197
 IR Inten    --     39.1629                 3.3481                29.7427

                     73                     74                     75
                      A                      A                      A
 Frequencies --   3144.2371              3158.3389              3188.2144
 Red. masses --      1.0919                 1.0941                 1.0917
 Frc consts  --      6.3602                 6.4300                 6.5381
 IR Inten    --     61.0055                18.7817                15.1461

 - Thermochemistry -
 -------------------
 Temperature   298.150 Kelvin.  Pressure   1.00000 Atm.
 Atom     1 has atomic number  6 and mass  12.00000

 Molecular mass:   200.08373 amu.
 Principal axes and moments of inertia in atomic units:
                           1         2         3
     Eigenvalues --  2005.909683111.002155083.59975
           X            0.97573  -0.21899   0.00000
           Y            0.21899   0.97570  -0.00704
           Z            0.00154   0.00687   0.99998
 This molecule is an asymmetric top.
 Rotational symmetry number  1.
 Warning -- assumption of classical behavior for rotation
           may cause significant error
 Rotational temperatures (Kelvin)      0.04318     0.02784     0.01704
 Rotational constants (GHZ):           0.89971     0.58012     0.35501
    2 imaginary frequencies ignored.
 Zero-point vibrational energy     555211.1 (Joules/Mol)
                                  132.69864 (Kcal/Mol)
 Warning -- explicit consideration of  20 degrees of freedom as
           vibrations may cause significant error
 Vibrational temperatures:     71.10   100.71   162.22   206.03   252.93
          (Kelvin)            318.45   365.46   429.12   481.49   507.22
                              516.89   578.45   581.11   607.81   638.95
                              737.61   738.13   750.30   801.70   889.48
                              984.55   998.97  1033.53  1113.52  1160.53
                             1162.87  1217.35  1291.50  1360.69  1410.46
                             1423.68  1446.28  1479.33  1481.66  1512.35
                             1526.21  1584.48  1601.48  1671.09  1692.39
                             1766.12  1784.52  1809.74  1911.69  1972.87
                             1989.79  2009.25  2020.89  2048.17  2090.10
                             2113.94  2119.28  2126.14  2144.23  2167.60
                             2182.60  2183.71  2195.99  2243.05  2315.97
                             2328.84  4306.38  4307.70  4335.90  4357.48
                             4361.22  4382.02  4471.17  4476.37  4487.12
                             4523.86  4544.15  4587.13

 Zero-point correction=                           0.211469 (Hartree/Particle)
 Thermal correction to Energy=                    0.223776
 Thermal correction to Enthalpy=                  0.224720
 Thermal correction to Gibbs Free Energy=         0.172215
 Sum of electronic and zero-point Energies=           -653.091769
 Sum of electronic and thermal Energies=              -653.079462
 Sum of electronic and thermal Enthalpies=            -653.078517
 Sum of electronic and thermal Free Energies=         -653.131022

                     E (Thermal)             CV                S
                      KCal/Mol        Cal/Mol-Kelvin    Cal/Mol-Kelvin
 Total                  140.422             48.636            110.506
 Electronic               0.000              0.000              1.377
 Translational            0.889              2.981             41.785
 Rotational               0.889              2.981             31.829
 Vibrational            138.644             42.675             35.515
 Vibration     1          0.595              1.978              4.841
 Vibration     2          0.598              1.968              4.153
 Vibration     3          0.607              1.939              3.221
 Vibration     4          0.616              1.910              2.761
 Vibration     5          0.628              1.872              2.373
 Vibration     6          0.648              1.809              1.948
 Vibration     7          0.665              1.756              1.703
 Vibration     8          0.691              1.677              1.427
 Vibration     9          0.716              1.606              1.238
 Vibration    10          0.729              1.570              1.155
 Vibration    11          0.734              1.556              1.125
 Vibration    12          0.768              1.466              0.955
 Vibration    13          0.769              1.462              0.948
 Vibration    14          0.785              1.421              0.884
 Vibration    15          0.804              1.374              0.814
 Vibration    16          0.868              1.222              0.627
 Vibration    17          0.868              1.221              0.626
 Vibration    18          0.876              1.202              0.607
 Vibration    19          0.913              1.124              0.529
 Vibration    20          0.978              0.993              0.419

                           ! Non-Optimized Parameters !
 Normal termination of Gaussian 16 at Tue Dec 26 21:37:51 2023.
