 Q-Chem 5.4, Q-Chem, Inc., Pleasanton, CA (2021)
 Q-Chem 5.4.0 for Intel X86 EM64T Linux

User input:
--------------------------------------------------------------
$molecule
0 1
C                 -3.9040430000     -4.0237060000     -1.3865490000
C                 -2.6318260000     -4.7750140000     -1.3484890000
C                 -1.4714330000     -4.1030790000     -1.5303950000
C                 -1.4852550000     -2.6108990000     -1.7932650000
C                 -2.7560060000     -1.8631030000     -1.8420690000
C                 -3.8975450000     -2.5529120000     -1.6399690000
O                 -4.9947550000     -4.5603150000     -1.2174580000
O                 -0.4233420000     -2.0269240000     -1.9655450000
C                 -0.1096680000     -4.7432590000     -1.5310940000
C                  0.3368110000     -5.1927230000     -2.9398240000
C                  1.7397230000     -5.8087300000     -2.9438920000
C                  2.1990750000     -6.2609980000     -4.3346550000
C                  3.6022370000     -6.8782900000     -4.3451860000
C                  4.0634380000     -7.3289280000     -5.7358410000
C                  5.4666580000     -7.9458190000     -5.7481320000
C                  5.9277680000     -8.3961650000     -7.1389710000
C                  7.3306300000     -9.0133770000     -7.1522500000
C                  7.7926400000     -9.4637070000     -8.5428330000
C                 -2.7073130000     -0.3878590000     -2.1033280000
C                 -2.7695920000     -6.2519780000     -1.1046790000
O                 -5.1174510000     -1.9903680000     -1.6516410000
H                 -0.0967120000     -5.6007720000     -0.8542940000
H                  0.6127710000     -4.0161270000     -1.1551960000
H                  0.3150500000     -4.3279530000     -3.6109240000
H                 -0.3850190000     -5.9165200000     -3.3366520000
H                  1.7635520000     -6.6655670000     -2.2578040000
H                  2.4541950000     -5.0779460000     -2.5451820000
H                  2.1760030000     -5.4030990000     -5.0186240000
H                  1.4810180000     -6.9884630000     -4.7350120000
H                  3.6254170000     -7.7363070000     -3.6607540000
H                  4.3197770000     -6.1509050000     -3.9441770000
H                  4.0398270000     -6.4707350000     -6.4198740000
H                  3.3453870000     -8.0559990000     -6.1370290000
H                  5.4904530000     -8.8040200000     -5.0639510000
H                  6.1846420000     -7.2187170000     -5.3470840000
H                  5.9041580000     -7.5378290000     -7.8229600000
H                  5.2094520000     -9.1229820000     -7.5402050000
H                  7.3552050000     -9.8723600000     -6.4688120000
H                  8.0498810000     -8.2871320000     -6.7513580000
C                  9.1950520000    -10.0790950000     -8.5459800000
H                  7.7691020000     -8.6056600000     -9.2257360000
H                 -2.1442930000      0.1242620000     -1.3177370000
H                 -3.7114270000      0.0313980000     -2.1499340000
H                 -2.1873120000     -0.1811920000     -3.0425190000
H                 -3.2517920000     -6.4379080000     -0.1405720000
H                 -1.8099490000     -6.7637130000     -1.1221740000
H                 -3.4181790000     -6.7017030000     -1.8614300000
H                  7.0746600000    -10.1897660000     -8.9435150000
H                  9.9412810000     -9.3648680000     -8.1835660000
H                  9.4938340000    -10.3892970000     -9.5512230000
H                  9.2415510000    -10.9609190000     -7.8989990000
H                 -5.7492140000     -2.7147080000     -1.4832110000
$end
$rem
MAX_SCF_CYCLES=200
BASIS  =  6-311++G(d,p)
GUI  =  2
JOB_TYPE  =  SP
THRESH = 14
SCF_CONVERGENCE  = 8
METHOD  =  B3LYP
SOLVENT_METHOD = COSMO
$end
$solvent
dielectric 37.219
opticaldielectric 1.43
$end

--------------------------------------------------------------

             Standard Nuclear Orientation (Angstroms)
    I     Atom           X                Y                Z
 ----------------------------------------------------------------
    1      C      -5.3582721596     1.1126987069     0.4428245446
    2      C      -4.0459203468     1.3120572550    -0.2071271908
    3      C      -3.3617021608     0.2285839771    -0.6419023987
    4      C      -3.9254739026    -1.1632576782    -0.4398354129
    5      C      -5.2304168498    -1.3626091396     0.2187780485
    6      C      -5.9007446052    -0.2654461986     0.6270504284
    7      O      -6.0430830625     2.0457474980     0.8510495228
    8      O      -3.2829406510    -2.1285183059    -0.8319952781
    9      C      -2.0122780977     0.2854079027    -1.3052730156
   10      C      -0.8473721787     0.1802652417    -0.2964019543
   11      C       0.5248129118     0.1990992497    -0.9778684684
   12      C       1.6931705140     0.0959027802     0.0090779982
   13      C       3.0689489175     0.1142402714    -0.6668816414
   14      C       4.2379726622     0.0089127960     0.3190148571
   15      C       5.6143856566     0.0264475628    -0.3554565981
   16      C       6.7832880844    -0.0791506701     0.6306383280
   17      C       8.1599969594    -0.0614305097    -0.0427912860
   18      C       9.3294826892    -0.1673222060     0.9426332446
   19      C      -5.7385310700    -2.7625808025     0.3886939546
   20      C      -3.5989197514     2.7430874214    -0.3175290687
   21      O      -7.0993241615    -0.3095151657     1.2322178512
   22      H      -1.9140330410     1.2095043242    -1.8796843280
   23      H      -1.9381646806    -0.5478423344    -2.0067996398
   24      H      -0.9582256071    -0.7456192430     0.2772925135
   25      H      -0.9133603695     1.0052817271     0.4228938577
   26      H       0.6271826965     1.1207052241    -1.5657605203
   27      H       0.5811104533    -0.6289275693    -1.6952855934
   28      H       1.5899905290    -0.8264306638     0.5947327711
   29      H       1.6333095740     0.9219239133     0.7296351885
   30      H       3.1720637410     1.0367494264    -1.2529890032
   31      H       3.1281574315    -0.7113572595    -1.3877449272
   32      H       4.1342684641    -0.9134948672     0.9049870337
   33      H       4.1783030671     0.8343800395     1.0402808678
   34      H       5.7181723650     0.9488282581    -0.9416485218
   35      H       5.6740502508    -0.7990556308    -1.0765685550
   36      H       6.6795014483    -1.0016759959     1.2165687255
   37      H       6.7233181226     0.7461787444     1.3520705919
   38      H       8.2650668486     0.8611758468    -0.6287102685
   39      H       8.2211019046    -0.8866844441    -0.7643800374
   40      C      10.7005982843    -0.1486313889     0.2606036337
   41      H       9.2254071932    -1.0893558455     1.5275926087
   42      H      -5.8715496404    -3.2449849682    -0.5839338977
   43      H      -6.6893373473    -2.7685948948     0.9198481036
   44      H      -5.0150023603    -3.3694651772     0.9395020748
   45      H      -4.3131159755     3.3231063874    -0.9092138369
   46      H      -2.6134269979     2.8332252651    -0.7689409368
   47      H      -3.5731933387     3.2090102843     0.6713307726
   48      H       9.2691945561     0.6573348535     1.6634030360
   49      H      10.8049410504    -0.9825826251    -0.4407947966
   50      H      11.5116782401    -0.2255710371     0.9901507872
   51      H      10.8489231926     0.7773508349    -0.3041235403
   52      H      -7.3417021111     0.6175277878     1.4166246853
 ----------------------------------------------------------------

   16    -968.0557982928      1.80e-09  Convergence criterion met
 Total energy in the final basis set =     -968.0557982928
   10    -968.0693878786      9.84e-09  Convergence criterion met
 Total energy in the final basis set =     -968.0693878786

                    Orbital Energies (a.u.)
 --------------------------------------------------------------

 Alpha MOs
 -- Occupied --
-19.1761 -19.1502 -19.1328 -10.2901 -10.2795 -10.2629 -10.2127 -10.2110
-10.2005 -10.1750 -10.1732 -10.1707 -10.1682 -10.1609 -10.1587 -10.1585
-10.1573 -10.1568 -10.1566 -10.1565 -10.1563 -10.1521  -1.1066  -1.0664
 -1.0651  -0.8660  -0.8223  -0.8100  -0.7980  -0.7792  -0.7552  -0.7338
 -0.7264  -0.7004  -0.6721  -0.6636  -0.6371  -0.6120  -0.5962  -0.5805
 -0.5775  -0.5715  -0.5690  -0.5611  -0.5300  -0.4845  -0.4832  -0.4746
 -0.4735  -0.4640  -0.4575  -0.4448  -0.4359  -0.4345  -0.4310  -0.4251
 -0.4227  -0.4214  -0.4182  -0.4067  -0.4002  -0.3990  -0.3957  -0.3921
 -0.3882  -0.3853  -0.3799  -0.3764  -0.3675  -0.3547  -0.3474  -0.3402
 -0.3354  -0.3317  -0.3260  -0.3225  -0.3204  -0.3178  -0.3169  -0.3029
 -0.2995  -0.2863  -0.2772  -0.2521

          Ground-State Mulliken Net Atomic Charges

     Atom                 Charge (a.u.)
  ----------------------------------------
      1 C                    -0.447598
      2 C                     0.936854
      3 C                     0.803229
      4 C                    -0.631466
      5 C                     1.009546
      6 C                    -1.098042
      7 O                    -0.328755
      8 O                    -0.290289
      9 C                    -0.432977
     10 C                    -0.914422
     11 C                    -0.366536
     12 C                    -0.059012
     13 C                     0.013563
     14 C                     0.034739
     15 C                    -0.050176
     16 C                    -0.302329
     17 C                    -0.481421
     18 C                    -0.294242
     19 C                    -0.408365
     20 C                    -0.563848
     21 O                    -0.262161
     22 H                     0.213447
     23 H                     0.229336
     24 H                     0.203068
     25 H                     0.154540
     26 H                     0.136272
     27 H                     0.128812
     28 H                     0.131655
     29 H                     0.136245
     30 H                     0.137348
     31 H                     0.138129
     32 H                     0.134853
     33 H                     0.134858
     34 H                     0.133537
     35 H                     0.133842
     36 H                     0.132152
     37 H                     0.131791
     38 H                     0.128706
     39 H                     0.128744
     40 C                    -0.709872
     41 H                     0.136265
     42 H                     0.194031
     43 H                     0.198438
     44 H                     0.191373
     45 H                     0.205435
     46 H                     0.149494
     47 H                     0.197990
     48 H                     0.136134
     49 H                     0.145333
     50 H                     0.154273
     51 H                     0.145335
     52 H                     0.322146
  ----------------------------------------
  Sum of atomic charges =     0.000000

                    Cartesian Multipole Moments
 -----------------------------------------------------------------
    Charge (ESU x 10^10)
                -0.0000
    Dipole Moment (Debye)
         X       1.2273      Y       2.3115      Z      -0.1538
       Tot       2.6217
    Quadrupole Moments (Debye-Ang)
        XX    -149.9765     XY      -1.7826     YY    -142.7140
        XZ       2.7317     YZ      -4.7491     ZZ    -139.7495

 Total job time:  394.86s(wall), 3009.34s(cpu)
        *  Thank you very much for using Q-Chem.  Have a nice day.  *
