 Q-Chem 5.4, Q-Chem, Inc., Pleasanton, CA (2021)
 Q-Chem 5.4.0 for Intel X86 EM64T Linux

User input:
--------------------------------------------------------------
$molecule
-2 1
C                 -0.2921660000      1.7929220000     -1.2443950000
C                 -1.2554330000      1.6739110000     -0.1496820000
C                 -1.0291850000      0.9493060000      0.9710360000
C                  0.1686920000      0.1488330000      1.1956210000
C                  1.1509580000      0.1671480000      0.1290150000
C                  0.9368180000      1.1149530000     -0.9882010000
O                 -0.5949650000      2.4746110000     -2.2679770000
O                  0.2074050000     -0.5411700000      2.2710060000
S                  2.2531710000      1.7213190000     -2.0426420000
C                  3.8264390000      1.4784680000     -1.1237940000
C                  4.0047250000      2.0872080000      0.1156280000
C                  4.8859830000      0.8408220000     -1.7594650000
C                  6.1434550000      0.8248680000     -1.1569710000
C                  5.2600170000      2.0524470000      0.7253940000
C                  6.3335430000      1.4283370000      0.0887270000
O                  2.2066920000      3.2073980000     -2.0994740000
O                  2.4342870000      1.0492570000     -3.3511530000
H                 -2.1799750000      2.2334850000     -0.2855410000
H                 -1.7664790000      0.8970700000      1.7702110000
H                  3.1668360000      2.5812660000      0.5916550000
H                  4.6955020000      0.3583150000     -2.7099760000
H                  6.9725360000      0.3255840000     -1.6510280000
H                  5.3974420000      2.5122720000      1.6997730000
H                  7.3100260000      1.4031360000      0.5646840000
C                  2.1618350000     -0.8713420000     -0.0467520000
O                  2.6919930000     -1.0216510000     -1.1638010000
C                  2.6745350000     -1.8641250000      1.0649480000
C                  3.0714320000     -1.1319220000      2.3627260000
C                  1.6074040000     -2.9475180000      1.3362690000
C                  3.9359250000     -2.5754890000      0.5281210000
H                  2.2076050000     -0.6233330000      2.7904070000
H                  3.8696770000     -0.4097750000      2.1612350000
H                  3.4531590000     -1.8590440000      3.0953940000
H                  0.7013270000     -2.4966510000      1.7421610000
H                  1.9943710000     -3.6793300000      2.0609860000
H                  1.3744790000     -3.4836380000      0.4087850000
H                  4.7312070000     -1.8614680000      0.3002670000
H                  3.7238260000     -3.1291430000     -0.3883450000
H                  4.3021110000     -3.2753270000      1.2919370000
$end

$rem
BASIS  =  6-311++G(d,p)
GUI  =  2
JOB_TYPE  =  SP
METHOD  =  B3LYP
SCF_CONVERGENCE  = 8
SOLVENT_METHOD = sm12
$end

$smx
solvent dimethylformamide
charges CM5
$end

--------------------------------------------------------------

             Standard Nuclear Orientation (Angstroms)
    I     Atom           X                Y                Z
 ----------------------------------------------------------------
    1      C      -0.2921660000     1.7929220000    -1.2443950000
    2      C      -1.2554330000     1.6739110000    -0.1496820000
    3      C      -1.0291850000     0.9493060000     0.9710360000
    4      C       0.1686920000     0.1488330000     1.1956210000
    5      C       1.1509580000     0.1671480000     0.1290150000
    6      C       0.9368180000     1.1149530000    -0.9882010000
    7      O      -0.5949650000     2.4746110000    -2.2679770000
    8      O       0.2074050000    -0.5411700000     2.2710060000
    9      S       2.2531710000     1.7213190000    -2.0426420000
   10      C       3.8264390000     1.4784680000    -1.1237940000
   11      C       4.0047250000     2.0872080000     0.1156280000
   12      C       4.8859830000     0.8408220000    -1.7594650000
   13      C       6.1434550000     0.8248680000    -1.1569710000
   14      C       5.2600170000     2.0524470000     0.7253940000
   15      C       6.3335430000     1.4283370000     0.0887270000
   16      O       2.2066920000     3.2073980000    -2.0994740000
   17      O       2.4342870000     1.0492570000    -3.3511530000
   18      H      -2.1799750000     2.2334850000    -0.2855410000
   19      H      -1.7664790000     0.8970700000     1.7702110000
   20      H       3.1668360000     2.5812660000     0.5916550000
   21      H       4.6955020000     0.3583150000    -2.7099760000
   22      H       6.9725360000     0.3255840000    -1.6510280000
   23      H       5.3974420000     2.5122720000     1.6997730000
   24      H       7.3100260000     1.4031360000     0.5646840000
   25      C       2.1618350000    -0.8713420000    -0.0467520000
   26      O       2.6919930000    -1.0216510000    -1.1638010000
   27      C       2.6745350000    -1.8641250000     1.0649480000
   28      C       3.0714320000    -1.1319220000     2.3627260000
   29      C       1.6074040000    -2.9475180000     1.3362690000
   30      C       3.9359250000    -2.5754890000     0.5281210000
   31      H       2.2076050000    -0.6233330000     2.7904070000
   32      H       3.8696770000    -0.4097750000     2.1612350000
   33      H       3.4531590000    -1.8590440000     3.0953940000
   34      H       0.7013270000    -2.4966510000     1.7421610000
   35      H       1.9943710000    -3.6793300000     2.0609860000
   36      H       1.3744790000    -3.4836380000     0.4087850000
   37      H       4.7312070000    -1.8614680000     0.3002670000
   38      H       3.7238260000    -3.1291430000    -0.3883450000
   39      H       4.3021110000    -3.2753270000     1.2919370000
 ----------------------------------------------------------------

   18   -1431.9759291101      5.53e-09  Convergence criterion met
 Total energy in the final basis set =    -1432.2384078722

                    Orbital Energies (a.u.)
 --------------------------------------------------------------

 Alpha MOs
 -- Occupied --
-89.0197 -19.0814 -19.0748 -19.0710 -19.0463 -19.0333 -10.2278 -10.2116
-10.2028 -10.2015 -10.1891 -10.1888 -10.1883 -10.1877 -10.1852 -10.1846
-10.1650 -10.1620 -10.1606 -10.1575 -10.1572 -10.1565 -10.1532  -8.0824
 -6.0450  -6.0447  -6.0434  -1.0670  -1.0035  -0.9689  -0.9616  -0.9564
 -0.8705  -0.8082  -0.8066  -0.7707  -0.7601  -0.7439  -0.6969  -0.6857
 -0.6799  -0.6502  -0.6238  -0.6198  -0.5983  -0.5753  -0.5527  -0.5245
 -0.4943  -0.4857  -0.4716  -0.4692  -0.4582  -0.4550  -0.4461  -0.4415
 -0.4356  -0.4338  -0.4328  -0.4217  -0.4099  -0.4052  -0.3863  -0.3845
 -0.3831  -0.3775  -0.3742  -0.3682  -0.3627  -0.3586  -0.3578  -0.3530
 -0.3453  -0.3332  -0.3250  -0.3177  -0.3040  -0.2913  -0.2800  -0.2712
 -0.2674  -0.2561  -0.2492  -0.2339  -0.2248  -0.2131  -0.2032  -0.1468

          Ground-State Mulliken Net Atomic Charges

     Atom                 Charge (a.u.)
  ----------------------------------------
      1 C                    -2.158855
      2 C                    -0.007862
      3 C                     0.257037
      4 C                    -1.533594
      5 C                    -0.176884
      6 C                    -1.108419
      7 O                    -0.356703
      8 O                    -0.171313
      9 S                    -0.172251
     10 C                    -2.896993
     11 C                    -1.489674
     12 C                    -0.147165
     13 C                     1.397363
     14 C                     1.146592
     15 C                     1.734896
     16 O                    -0.147651
     17 O                    -0.189759
     18 H                     0.211685
     19 H                     0.264091
     20 H                     0.019917
     21 H                     0.129902
     22 H                     0.419195
     23 H                     0.398836
     24 H                     0.470219
     25 C                    -0.670794
     26 O                    -0.150265
     27 C                     1.924926
     28 C                    -0.074740
     29 C                    -0.527640
     30 C                     0.221303
     31 H                     0.110664
     32 H                     0.019639
     33 H                     0.280639
     34 H                     0.032778
     35 H                     0.303202
     36 H                     0.127372
     37 H                     0.040555
     38 H                     0.148499
     39 H                     0.321253
  ----------------------------------------
  Sum of atomic charges =    -2.000000

                    Cartesian Multipole Moments
 -----------------------------------------------------------------
    Charge (ESU x 10^10)
                -9.6064
    Dipole Moment (Debye)
         X      -9.6630      Y      -8.9961      Z       9.4421
       Tot      16.2313
    Quadrupole Moments (Debye-Ang)
        XX    -182.7269     XY      -2.5654     YY    -199.5562
        XZ      17.0636     YZ      37.2277     ZZ    -210.1311

 Total job time:  2146.40s(wall), 16084.64s(cpu)
        *  Thank you very much for using Q-Chem.  Have a nice day.  *
