 Q-Chem 5.4, Q-Chem, Inc., Pleasanton, CA (2021)
 Q-Chem 5.4.0 for Intel X86 EM64T Linux

User input:
--------------------------------------------------------------
$molecule
-2 1
Cl                 3.1136260000      0.4024530000     -0.2431850000
C                  1.3505850000      0.1604930000      0.0939580000
C                  0.8003310000     -1.1300790000     -0.0323270000
Cl                 1.8693370000     -2.5590770000      0.2385070000
C                 -0.5900800000     -1.4123070000     -0.1841700000
O                 -1.0775780000     -2.5664710000     -0.2469190000
C                 -1.5241230000     -0.1982200000     -0.1206120000
O                 -2.7665560000     -0.3710970000     -0.1320750000
C                 -0.8858450000      1.0616790000      0.0821970000
C                  0.5076000000      1.2562480000      0.1511900000
Cl                 1.1783250000      2.9179980000     -0.1120290000
Cl                -1.9756230000      2.4387790000      0.4994670000
$end
$rem
MAX_SCF_CYCLES=200
BASIS  =  6-311++G(d,p)
GUI  =  2
JOB_TYPE  =  SP
METHOD  =  B3LYP
SOLVENT_METHOD = COSMO
$end
$solvent
dielectric 37.219
opticaldielectric 1.43
$end

--------------------------------------------------------------

             Standard Nuclear Orientation (Angstroms)
    I     Atom           X                Y                Z
 ----------------------------------------------------------------
    1      Cl      1.5883108682     2.3145867428    -0.1588007563
    2      C       0.6918566441     0.7638686710     0.1098382160
    3      C       1.3838472577    -0.4569415267    -0.0129416884
    4      Cl      3.1555641882    -0.4880684688     0.3308757037
    5      C       0.7665221179    -1.7271464825    -0.2165116560
    6      O       1.3860975301    -2.8163090181    -0.2759890093
    7      C      -0.7666064351    -1.7271457301    -0.2163428487
    8      O      -1.3861764066    -2.8163010409    -0.2757682330
    9      C      -1.3838428209    -0.4569149808    -0.0128511447
   10      C      -0.6918262066     0.7638884449     0.1098603021
   11      Cl     -1.5882530726     2.3146014509    -0.1589842198
   12      Cl     -3.1555674150    -0.4879885427     0.3308946169
 ----------------------------------------------------------------

   11   -2220.0639666100      4.63e-06  Convergence criterion met
 Total energy in the final basis set =    -2220.0639666100
    5   -2220.3385740337      9.68e-06  Convergence criterion met
 Total energy in the final basis set =    -2220.3385740337

                    Orbital Energies (a.u.)
 --------------------------------------------------------------

 Alpha MOs
 -- Occupied --
********-101.5444-101.5343-101.5343 -19.0524 -19.0523 -10.2215 -10.2209
-10.2106 -10.2103 -10.2005 -10.2005  -9.4585  -9.4584  -9.4484  -9.4484
 -7.2231  -7.2230  -7.2135  -7.2135  -7.2129  -7.2129  -7.2125  -7.2125
 -7.2037  -7.2037  -7.2033  -7.2033  -0.9936  -0.9654  -0.8887  -0.8492
 -0.8291  -0.8159  -0.7744  -0.6809  -0.6710  -0.5579  -0.5574  -0.4910
 -0.4631  -0.4282  -0.4182  -0.4056  -0.4000  -0.3851  -0.3776  -0.3653
 -0.3590  -0.3282  -0.3247  -0.3172  -0.3119  -0.3040  -0.2992  -0.2864
 -0.2726  -0.2426  -0.2139  -0.2011  -0.1563

          Ground-State Mulliken Net Atomic Charges

     Atom                 Charge (a.u.)
  ----------------------------------------
      1 Cl                    0.394210
      2 C                    -0.490665
      3 C                     0.382026
      4 Cl                    0.155906
      5 C                    -0.855196
      6 O                    -0.586834
      7 C                    -0.852448
      8 O                    -0.587682
      9 C                     0.380815
     10 C                    -0.490627
     11 Cl                    0.394374
     12 Cl                    0.156121
  ----------------------------------------
  Sum of atomic charges =    -2.000000

                    Cartesian Multipole Moments
 -----------------------------------------------------------------
    Charge (ESU x 10^10)
                -9.6064
    Dipole Moment (Debye)
         X       0.0027      Y      13.3586      Z       1.0515
       Tot      13.3999
    Quadrupole Moments (Debye-Ang)
        XX    -139.9680     XY      -0.0070     YY    -161.8765
        XZ       0.0016     YZ      -4.5766     ZZ    -103.5040

 Total job time:  18.04s(wall), 128.40s(cpu)
        *  Thank you very much for using Q-Chem.  Have a nice day.  *
