 Q-Chem 5.4, Q-Chem, Inc., Pleasanton, CA (2021)
 Q-Chem 5.4.0 for Intel X86 EM64T Linux

User input:
--------------------------------------------------------------
$molecule
0 1
C                 -1.2775970000      2.8579960000      0.2260640000
C                 -2.6091920000      2.4264950000      0.1863820000
C                 -2.9171070000      1.0944790000     -0.0199490000
C                 -0.2353800000      1.9261160000      0.0304250000
C                 -0.5718930000      0.5671870000     -0.1923610000
C                 -1.9063220000      0.1462520000     -0.1920500000
C                  1.1989330000      2.3388320000      0.0774380000
C                  2.2221110000      1.2777170000     -0.1108080000
C                  1.9077170000      0.0051310000     -0.3727860000
C                  0.5043760000     -0.4267690000     -0.5114320000
O                  1.5692190000      3.4839650000      0.2697460000
O                  0.2416270000     -1.5510060000     -0.9055500000
O                 -0.9850730000      4.1589000000      0.4416310000
H                 -3.9532170000      0.7784180000     -0.0465200000
H                  2.6556470000     -0.7625530000     -0.5376460000
C                 -2.3442760000     -1.2817730000     -0.3773390000
O                 -2.9939540000     -1.6638950000     -1.3186950000
O                 -2.0357290000     -2.0330310000      0.6920020000
C                 -2.3521230000     -3.4349580000      0.5845570000
H                 -3.4055400000      3.1520570000      0.3238480000
H                  3.2482710000      1.6208140000     -0.0366370000
H                 -1.8034780000      4.6576110000      0.5483290000
H                 -2.0609630000     -3.8706830000      1.5375360000
H                 -1.7818750000     -3.8788280000     -0.2324520000
H                 -3.4186320000     -3.5746140000      0.4048580000
$end

$rem
BASIS  =  6-311++G(d,p)
GUI  =  2
JOB_TYPE  =  SP
METHOD  =  B3LYP
SCF_CONVERGENCE  = 8
SOLVENT_METHOD = sm12
$end

$smx
solvent dimethylformamide
charges CM5
$end

--------------------------------------------------------------

             Standard Nuclear Orientation (Angstroms)
    I     Atom           X                Y                Z
 ----------------------------------------------------------------
    1      C      -1.2775970000     2.8579960000     0.2260640000
    2      C      -2.6091920000     2.4264950000     0.1863820000
    3      C      -2.9171070000     1.0944790000    -0.0199490000
    4      C      -0.2353800000     1.9261160000     0.0304250000
    5      C      -0.5718930000     0.5671870000    -0.1923610000
    6      C      -1.9063220000     0.1462520000    -0.1920500000
    7      C       1.1989330000     2.3388320000     0.0774380000
    8      C       2.2221110000     1.2777170000    -0.1108080000
    9      C       1.9077170000     0.0051310000    -0.3727860000
   10      C       0.5043760000    -0.4267690000    -0.5114320000
   11      O       1.5692190000     3.4839650000     0.2697460000
   12      O       0.2416270000    -1.5510060000    -0.9055500000
   13      O      -0.9850730000     4.1589000000     0.4416310000
   14      H      -3.9532170000     0.7784180000    -0.0465200000
   15      H       2.6556470000    -0.7625530000    -0.5376460000
   16      C      -2.3442760000    -1.2817730000    -0.3773390000
   17      O      -2.9939540000    -1.6638950000    -1.3186950000
   18      O      -2.0357290000    -2.0330310000     0.6920020000
   19      C      -2.3521230000    -3.4349580000     0.5845570000
   20      H      -3.4055400000     3.1520570000     0.3238480000
   21      H       3.2482710000     1.6208140000    -0.0366370000
   22      H      -1.8034780000     4.6576110000     0.5483290000
   23      H      -2.0609630000    -3.8706830000     1.5375360000
   24      H      -1.7818750000    -3.8788280000    -0.2324520000
   25      H      -3.4186320000    -3.5746140000     0.4048580000
 ----------------------------------------------------------------

   16    -838.4293007625      2.08e-09  Convergence criterion met
 Total energy in the final basis set =     -838.4580584140

                    Orbital Energies (a.u.)
 --------------------------------------------------------------

 Alpha MOs
 -- Occupied --
-19.1777 -19.1730 -19.1374 -19.1287 -19.1211 -10.3156 -10.2866 -10.2826
-10.2750 -10.2234 -10.2194 -10.2161 -10.2160 -10.2108 -10.2106 -10.2093
-10.2049  -1.1168  -1.0956  -1.0709  -1.0617  -1.0318  -0.8978  -0.8449
 -0.7955  -0.7870  -0.7336  -0.7033  -0.6707  -0.6554  -0.6189  -0.5926
 -0.5616  -0.5453  -0.5287  -0.5158  -0.4998  -0.4911  -0.4862  -0.4781
 -0.4618  -0.4580  -0.4520  -0.4337  -0.4315  -0.4295  -0.4146  -0.4125
 -0.4043  -0.3934  -0.3853  -0.3663  -0.3635  -0.3159  -0.3075  -0.2980
 -0.2900  -0.2858  -0.2716  -0.2565

          Ground-State Mulliken Net Atomic Charges

     Atom                 Charge (a.u.)
  ----------------------------------------
      1 C                     0.298927
      2 C                     1.589689
      3 C                    -0.002586
      4 C                    -0.456218
      5 C                     0.261864
      6 C                     0.089081
      7 C                    -1.211118
      8 C                     0.314419
      9 C                     0.412243
     10 C                    -1.134046
     11 O                    -0.303733
     12 O                    -0.271837
     13 O                    -0.193217
     14 H                     0.271985
     15 H                     0.325521
     16 C                    -1.220383
     17 O                    -0.250945
     18 O                     0.016715
     19 C                    -0.161097
     20 H                     0.393049
     21 H                     0.313794
     22 H                     0.337185
     23 H                     0.221854
     24 H                     0.177195
     25 H                     0.181658
  ----------------------------------------
  Sum of atomic charges =     0.000000

                    Cartesian Multipole Moments
 -----------------------------------------------------------------
    Charge (ESU x 10^10)
                -0.0000
    Dipole Moment (Debye)
         X      -2.0797      Y       1.0416      Z       2.4517
       Tot       3.3795
    Quadrupole Moments (Debye-Ang)
        XX     -82.6820     XY     -19.5131     YY     -93.1083
        XZ      -9.4707     YZ      -6.1512     ZZ    -102.7402

 Total job time:  477.53s(wall), 3721.75s(cpu)
        *  Thank you very much for using Q-Chem.  Have a nice day.  *
