 Gaussian 16, Revision A.03,
 Gaussian 16:  ES64L-G16RevA.03 25-Dec-2016

 ----------------------------------------------------------------------
 #P UB3LYP/6-311++G(d,p) nosym opt freq SCRF=(PCM,Solvent=n,n-DiMethylF
 ormamide)
 ----------------------------------------------------------------------

 --------
 Oxidized
 --------
 Symbolic Z-matrix:
 Charge =  0 Multiplicity = 1

 SCF Done:  E(UB3LYP) =  -765.371505815     A.U. after   15 cycles
 SCF Done:  E(UB3LYP) =  -765.371544385     A.U. after   13 cycles
 SCF Done:  E(UB3LYP) =  -765.371529236     A.U. after   12 cycles
 SCF Done:  E(UB3LYP) =  -765.371705356     A.U. after   12 cycles
 SCF Done:  E(UB3LYP) =  -765.371741474     A.U. after   12 cycles
 SCF Done:  E(UB3LYP) =  -765.371740144     A.U. after   11 cycles
 SCF Done:  E(UB3LYP) =  -765.371750828     A.U. after   12 cycles
 SCF Done:  E(UB3LYP) =  -765.371755787     A.U. after   11 cycles
 SCF Done:  E(UB3LYP) =  -765.371758084     A.U. after   11 cycles
 SCF Done:  E(UB3LYP) =  -765.371758252     A.U. after   10 cycles
 SCF Done:  E(UB3LYP) =  -765.371758380     A.U. after   10 cycles
 SCF Done:  E(UB3LYP) =  -765.371758432     A.U. after    8 cycles
 SCF Done:  E(UB3LYP) =  -765.371758473     A.U. after    9 cycles
 Optimization completed.
    -- Stationary point found.
 Normal termination of Gaussian 16 at Sat Feb 10 11:53:23 2024.

 ----------------------------------------------------------------------
 #P Geom=AllCheck Guess=TCheck SCRF=Check GenChk UB3LYP/6-311++G(d,p) F
 req
 ----------------------------------------------------------------------

 Structure from the checkpoint file:  "079.chk"
 --------
 Oxidized
 --------
 Charge =  0 Multiplicity = 1

                          Input orientation:
 ---------------------------------------------------------------------
 Center     Atomic      Atomic             Coordinates (Angstroms)
 Number     Number       Type             X           Y           Z
 ---------------------------------------------------------------------
      1          6           0        1.073950    1.468390   -2.681780
      2          6           0       -0.302508    1.717070   -3.163644
      3          6           0       -1.235134    0.761339   -3.096866
      4          6           0       -0.924416   -0.576780   -2.545354
      5          6           0        0.465842   -0.853246   -2.050831
      6          8           0        1.927696    2.344687   -2.735204
      7          8           0       -1.785894   -1.442786   -2.495665
      8          1           0       -0.502238    2.705251   -3.561753
      9          6           0        1.393552    0.123758   -2.128412
     10          6           0        2.799537   -0.031201   -1.575136
     11          6           0        3.887976   -0.473680   -2.480057
     12          6           0        5.195398   -0.569130   -1.975406
     13          6           0        3.641217   -0.797005   -3.822101
     14          6           0        6.233876   -0.980257   -2.799970
     15          6           0        5.979594   -1.300959   -4.137019
     16          6           0        4.684816   -1.209423   -4.646520
     17          8           0        2.983905    0.226236   -0.396369
     18          6           0        0.712202   -2.224510   -1.500757
     19          1           0        5.378199   -0.316774   -0.938279
     20          1           0        2.637279   -0.731566   -4.223681
     21          1           0        7.241388   -1.051938   -2.407419
     22          1           0        6.791756   -1.621752   -4.779351
     23          1           0        4.488469   -1.458630   -5.682490
     24          1           0       -2.252432    0.913056   -3.438712
     25          1           0        0.067591   -2.403473   -0.635515
     26          1           0        1.748215   -2.365357   -1.197204
     27          1           0        0.454572   -2.982120   -2.245381
 ---------------------------------------------------------------------

 SCF Done:  E(UB3LYP) =  -765.371758473     A.U. after    1 cycles

 Alpha  occ. eigenvalues --  -19.15014 -19.14974 -19.13994 -10.29707 -10.29418
 Alpha  occ. eigenvalues --  -10.29215 -10.23266 -10.22332 -10.21828 -10.21742
 Alpha  occ. eigenvalues --  -10.20415 -10.20043 -10.19743 -10.19664 -10.19267
 Alpha  occ. eigenvalues --  -10.19240 -10.18454  -1.08169  -1.07882  -1.07022
 Alpha  occ. eigenvalues --   -0.88315  -0.87615  -0.82202  -0.78523  -0.76930
 Alpha  occ. eigenvalues --   -0.74680  -0.70182  -0.67654  -0.63714  -0.62276
 Alpha  occ. eigenvalues --   -0.60760  -0.57356  -0.54309  -0.53783  -0.51107
 Alpha  occ. eigenvalues --   -0.49703  -0.48128  -0.47729  -0.46833  -0.45750
 Alpha  occ. eigenvalues --   -0.45290  -0.44979  -0.44326  -0.44222  -0.43319
 Alpha  occ. eigenvalues --   -0.42733  -0.41461  -0.41009  -0.39909  -0.38001
 Alpha  occ. eigenvalues --   -0.37892  -0.36370  -0.31921  -0.30861  -0.30064
 Alpha  occ. eigenvalues --   -0.29495  -0.27998  -0.27673  -0.27344
 Alpha virt. eigenvalues --   -0.14285  -0.08826  -0.03715  -0.03142  -0.01152
 Alpha virt. eigenvalues --   -0.00847   0.00223   0.00804   0.01097   0.01329
 Alpha virt. eigenvalues --    0.02063   0.02884   0.03225   0.03632   0.04401

  Beta  occ. eigenvalues --  -19.15014 -19.14974 -19.13994 -10.29707 -10.29418
  Beta  occ. eigenvalues --  -10.29215 -10.23266 -10.22332 -10.21828 -10.21742
  Beta  occ. eigenvalues --  -10.20415 -10.20043 -10.19743 -10.19664 -10.19267
  Beta  occ. eigenvalues --  -10.19240 -10.18454  -1.08169  -1.07882  -1.07022
  Beta  occ. eigenvalues --   -0.88315  -0.87615  -0.82202  -0.78523  -0.76930
  Beta  occ. eigenvalues --   -0.74680  -0.70182  -0.67654  -0.63714  -0.62276
  Beta  occ. eigenvalues --   -0.60760  -0.57356  -0.54309  -0.53783  -0.51107
  Beta  occ. eigenvalues --   -0.49703  -0.48128  -0.47729  -0.46833  -0.45750
  Beta  occ. eigenvalues --   -0.45290  -0.44979  -0.44326  -0.44222  -0.43319
  Beta  occ. eigenvalues --   -0.42733  -0.41461  -0.41009  -0.39909  -0.38001
  Beta  occ. eigenvalues --   -0.37892  -0.36370  -0.31921  -0.30861  -0.30064
  Beta  occ. eigenvalues --   -0.29495  -0.27998  -0.27673  -0.27344
  Beta virt. eigenvalues --   -0.14285  -0.08826  -0.03715  -0.03142  -0.01152
  Beta virt. eigenvalues --   -0.00847   0.00223   0.00804   0.01097   0.01329
  Beta virt. eigenvalues --    0.02063   0.02884   0.03225   0.03632   0.04401

 Mulliken charges and spin densities:
               1          2
     1  C   -0.232073   0.000000
     2  C   -0.229251  -0.000000
     3  C    0.205810   0.000000
     4  C   -0.416938  -0.000000
     5  C    0.048084  -0.000000
     6  O   -0.279385   0.000000
     7  O   -0.276020  -0.000000
     8  H    0.243557  -0.000000
     9  C    1.000268   0.000000
    10  C   -0.203159  -0.000000
    11  C    0.572315   0.000000
    12  C    0.454733   0.000000
    13  C   -0.880992  -0.000000
    14  C   -0.461585  -0.000000
    15  C   -0.304875  -0.000000
    16  C   -0.188032  -0.000000
    17  O   -0.268548   0.000000
    18  C   -0.606885  -0.000000
    19  H    0.224163  -0.000000
    20  H    0.165361  -0.000000
    21  H    0.206810  -0.000000
    22  H    0.190141   0.000000
    23  H    0.224622   0.000000
    24  H    0.251648   0.000000
    25  H    0.201017  -0.000000
    26  H    0.155300  -0.000000
    27  H    0.203917   0.000000
 Sum of Mulliken charges =  -0.00000   0.00000

 Dipole moment (field-independent basis, Debye):
    X=              0.7045    Y=             -2.2144    Z=             -4.0862  Tot=              4.7007
 Quadrupole moment (field-independent basis, Debye-Ang):
   XX=            -85.9632   YY=           -103.0209   ZZ=            -77.2165
   XY=            -21.7397   XZ=            -12.9102   YZ=              4.7342

  Exact polarizability: 290.676  28.310 213.789  -8.892   5.078 203.193
 Approx polarizability: 335.349  63.255 266.906  -8.932  12.672 248.371

                      1                      2                      3
                      A                      A                      A
 Frequencies --     17.7049                37.7383                53.2255
 Red. masses --      6.3344                 3.8899                 5.4764
 Frc consts  --      0.0012                 0.0033                 0.0091
 IR Inten    --      1.9921                 0.1150                 0.7682

                      4                      5                      6
                      A                      A                      A
 Frequencies --     79.0480               105.1203               122.4481
 Red. masses --      7.8390                 2.1615                 1.4338
 Frc consts  --      0.0289                 0.0141                 0.0127
 IR Inten    --     21.1761                 1.1358                 0.0523

                      7                      8                      9
                      A                      A                      A
 Frequencies --    129.1967               172.0612               237.5276
 Red. masses --      7.3168                 5.5139                 6.0854
 Frc consts  --      0.0720                 0.0962                 0.2023
 IR Inten    --      2.6335                 1.2313                 4.8815

                     10                     11                     12
                      A                      A                      A
 Frequencies --    239.9694               259.6140               322.3937
 Red. masses --      5.0004                 4.1719                 3.7852
 Frc consts  --      0.1697                 0.1657                 0.2318
 IR Inten    --      7.8632                 0.1985                 4.4357

                     13                     14                     15
                      A                      A                      A
 Frequencies --    355.8803               409.7750               411.1506
 Red. masses --      5.9805                 4.1590                 4.1035
 Frc consts  --      0.4463                 0.4115                 0.4087
 IR Inten    --      3.1244                18.0047                16.4366

                     16                     17                     18
                      A                      A                      A
 Frequencies --    434.0654               443.3054               460.7111
 Red. masses --      4.2559                 6.4872                 7.8920
 Frc consts  --      0.4724                 0.7511                 0.9869
 IR Inten    --      2.6057                 2.1659                 6.9348

                     19                     20                     21
                      A                      A                      A
 Frequencies --    520.3295               569.6045               586.9392
 Red. masses --      6.1731                 2.9860                 4.6381
 Frc consts  --      0.9847                 0.5708                 0.9414
 IR Inten    --     38.0813                 2.4483                 7.0844

                     22                     23                     24
                      A                      A                      A
 Frequencies --    628.3837               647.4916               680.2284
 Red. masses --      6.4058                 3.9643                 6.1285
 Frc consts  --      1.4903                 0.9792                 1.6708
 IR Inten    --      0.9634                 6.5639                19.3248

                     25                     26                     27
                      A                      A                      A
 Frequencies --    694.2429               701.0263               733.9323
 Red. masses --      4.1986                 1.6918                 6.8773
 Frc consts  --      1.1923                 0.4899                 2.1826
 IR Inten    --      5.4147                81.2928                10.1776

                     28                     29                     30
                      A                      A                      A
 Frequencies --    784.0046               805.8592               832.4299
 Red. masses --      2.2047                 6.0069                 3.2020
 Frc consts  --      0.7984                 2.2984                 1.3073
 IR Inten    --     49.7515                 9.4691                23.2834

                     31                     32                     33
                      A                      A                      A
 Frequencies --    857.8482               861.5782               917.8364
 Red. masses --      2.3878                 1.2531                 3.5548
 Frc consts  --      1.0353                 0.5480                 1.7644
 IR Inten    --     52.7034                 0.3832               181.0295

                     34                     35                     36
                      A                      A                      A
 Frequencies --    961.3645              1006.0880              1013.2641
 Red. masses --      1.4312                 1.3848                 5.9528
 Frc consts  --      0.7793                 0.8259                 3.6010
 IR Inten    --      3.9446                 0.0487                 3.6666

                     37                     38                     39
                      A                      A                      A
 Frequencies --   1016.5683              1018.3826              1024.5929
 Red. masses --      1.2739                 3.9481                 1.3949
 Frc consts  --      0.7756                 2.4124                 0.8628
 IR Inten    --      0.1913                28.4720                 1.8856

                     40                     41                     42
                      A                      A                      A
 Frequencies --   1042.1176              1044.5633              1092.8894
 Red. masses --      2.0081                 1.6697                 2.1259
 Frc consts  --      1.2849                 1.0734                 1.4961
 IR Inten    --      6.3129                 3.1934                11.8922

                     43                     44                     45
                      A                      A                      A
 Frequencies --   1105.2737              1124.6899              1151.8569
 Red. masses --      1.5983                 2.0562                 1.9942
 Frc consts  --      1.1504                 1.5325                 1.5589
 IR Inten    --     17.8265                55.1266                19.9004

                     46                     47                     48
                      A                      A                      A
 Frequencies --   1181.2989              1192.3845              1254.7683
 Red. masses --      1.1120                 1.1661                 4.0472
 Frc consts  --      0.9143                 0.9768                 3.7543
 IR Inten    --      4.2934                61.5232               310.7092

                     49                     50                     51
                      A                      A                      A
 Frequencies --   1299.8661              1326.4048              1339.7933
 Red. masses --      3.6505                 3.0557                 3.0455
 Frc consts  --      3.6341                 3.1675                 3.2209
 IR Inten    --    319.6266                30.2038                48.6679

                     52                     53                     54
                      A                      A                      A
 Frequencies --   1351.4018              1392.5282              1409.5710
 Red. masses --      2.0647                 1.9434                 1.2776
 Frc consts  --      2.2217                 2.2204                 1.4957
 IR Inten    --     13.2195                 3.4057                34.5317

                     55                     56                     57
                      A                      A                      A
 Frequencies --   1458.1316              1470.6581              1476.4673
 Red. masses --      1.0438                 1.0956                 2.1768
 Frc consts  --      1.3076                 1.3962                 2.7958
 IR Inten    --     13.3499                12.8645                37.9339

                     58                     59                     60
                      A                      A                      A
 Frequencies --   1517.2228              1613.2386              1629.6609
 Red. masses --      2.1631                 5.4268                 5.5860
 Frc consts  --      2.9337                 8.3213                 8.7407
 IR Inten    --      6.0475                45.9631               132.8676

                     61                     62                     63
                      A                      A                      A
 Frequencies --   1647.2408              1674.5745              1686.7101
 Red. masses --      8.2446                11.0387                10.6633
 Frc consts  --     13.1806                18.2381                17.8740
 IR Inten    --     88.1278               107.9210               849.0682

                     64                     65                     66
                      A                      A                      A
 Frequencies --   1703.0502              1711.1190              3040.2975
 Red. masses --     11.5869                 9.3352                 1.0382
 Frc consts  --     19.8003                16.1040                 5.6542
 IR Inten    --    606.1043                74.9115                 4.0954

                     67                     68                     69
                      A                      A                      A
 Frequencies --   3089.8418              3138.0386              3173.1140
 Red. masses --      1.0989                 1.1011                 1.0866
 Frc consts  --      6.1810                 6.3885                 6.4458
 IR Inten    --      6.8348                13.7130                 0.3853

                     70                     71                     72
                      A                      A                      A
 Frequencies --   3181.7439              3184.3618              3188.3005
 Red. masses --      1.0885                 1.0877                 1.0921
 Frc consts  --      6.4927                 6.4981                 6.5406
 IR Inten    --      4.6325                 2.7979                18.5210

                     73                     74                     75
                      A                      A                      A
 Frequencies --   3196.7494              3200.5536              3201.3749
 Red. masses --      1.0951                 1.1000                 1.0962
 Frc consts  --      6.5934                 6.6389                 6.6192
 IR Inten    --     16.5518                 2.8177                11.4558

 - Thermochemistry -
 -------------------
 Temperature   298.150 Kelvin.  Pressure   1.00000 Atm.
 Atom     1 has atomic number  6 and mass  12.00000

 Molecular mass:   226.06299 amu.
 Principal axes and moments of inertia in atomic units:
                           1         2         3
     Eigenvalues --  2018.630055929.691886268.18870
           X            0.98565   0.12814   0.10989
           Y           -0.13674   0.98780   0.07459
           Z           -0.09899  -0.08855   0.99114
 This molecule is an asymmetric top.
 Rotational symmetry number  1.
 Warning -- assumption of classical behavior for rotation
           may cause significant error
 Rotational temperatures (Kelvin)      0.04291     0.01461     0.01382
 Rotational constants (GHZ):           0.89404     0.30436     0.28792
 Zero-point vibrational energy     530213.6 (Joules/Mol)
                                  126.72409 (Kcal/Mol)
 Warning -- explicit consideration of  21 degrees of freedom as
           vibrations may cause significant error
 Vibrational temperatures:     25.47    54.30    76.58   113.73   151.24
          (Kelvin)            176.18   185.89   247.56   341.75   345.26
                              373.53   463.85   512.03   589.57   591.55
                              624.52   637.82   662.86   748.64   819.53
                              844.47   904.10   931.60   978.70   998.86
                             1008.62  1055.96  1128.01  1159.45  1197.68
                             1234.25  1239.62  1320.56  1383.19  1447.54
                             1457.86  1462.62  1465.23  1474.16  1499.37
                             1502.89  1572.42  1590.24  1618.18  1657.27
                             1699.63  1715.58  1805.33  1870.22  1908.40
                             1927.66  1944.37  2003.54  2028.06  2097.93
                             2115.95  2124.31  2182.95  2321.09  2344.72
                             2370.01  2409.34  2426.80  2450.31  2461.92
                             4374.31  4445.59  4514.94  4565.40  4577.82
                             4581.59  4587.25  4599.41  4604.88  4606.06

 Zero-point correction=                           0.201948 (Hartree/Particle)
 Thermal correction to Energy=                    0.216681
 Thermal correction to Enthalpy=                  0.217625
 Thermal correction to Gibbs Free Energy=         0.158038
 Sum of electronic and zero-point Energies=           -765.169811
 Sum of electronic and thermal Energies=              -765.155078
 Sum of electronic and thermal Enthalpies=            -765.154133
 Sum of electronic and thermal Free Energies=         -765.213720

                     E (Thermal)             CV                S
                      KCal/Mol        Cal/Mol-Kelvin    Cal/Mol-Kelvin
 Total                  135.969             55.037            125.411
 Electronic               0.000              0.000              0.000
 Translational            0.889              2.981             42.149
 Rotational               0.889              2.981             32.684
 Vibrational            134.192             49.075             50.578
 Vibration     1          0.593              1.986              6.876
 Vibration     2          0.594              1.982              5.374
 Vibration     3          0.596              1.976              4.694
 Vibration     4          0.600              1.963              3.914
 Vibration     5          0.605              1.945              3.357
 Vibration     6          0.610              1.930              3.061
 Vibration     7          0.612              1.924              2.958
 Vibration     8          0.626              1.877              2.413
 Vibration     9          0.656              1.783              1.821
 Vibration    10          0.657              1.779              1.803
 Vibration    11          0.668              1.746              1.664
 Vibration    12          0.707              1.631              1.298
 Vibration    13          0.731              1.563              1.140
 Vibration    14          0.774              1.449              0.927
 Vibration    15          0.775              1.446              0.923
 Vibration    16          0.795              1.396              0.845
 Vibration    17          0.803              1.376              0.816
 Vibration    18          0.819              1.337              0.764
 Vibration    19          0.875              1.205              0.609
 Vibration    20          0.926              1.097              0.505
 Vibration    21          0.944              1.060              0.473

 Optimization completed.
    -- Stationary point found.
 Normal termination of Gaussian 16 at Sat Feb 10 13:12:10 2024.
