 Q-Chem 5.4, Q-Chem, Inc., Pleasanton, CA (2021)
 Q-Chem 5.4.0 for Intel X86 EM64T Linux

User input:
--------------------------------------------------------------
$molecule
-2 1
C                 -4.8490740000     -0.2079160000     -0.4454960000
C                 -3.9489750000     -0.5184250000      0.7667940000
C                 -2.5360040000      0.0020130000      0.6601280000
C                 -2.2601290000      1.3924760000      0.8324130000
C                 -0.9676220000      1.8647770000      0.7641600000
C                  0.1388580000      1.0129220000      0.5191960000
C                  1.4716510000      1.5760000000      0.4514730000
O                  1.7079060000      2.8247790000      0.5993260000
C                  2.5294070000      0.6090830000      0.2079820000
C                  3.8710960000      1.0573000000      0.1263560000
C                  4.9227290000      0.1922660000     -0.1001700000
C                  4.6678000000     -1.1972450000     -0.2599680000
C                  3.3710780000     -1.6650540000     -0.1840890000
C                  2.2706750000     -0.8039060000      0.0479800000
C                  0.9319140000     -1.3666190000      0.1152890000
O                  0.7076070000     -2.6155760000     -0.0278530000
C                 -0.1249520000     -0.3980890000      0.3541260000
C                 -1.4665090000     -0.8452240000      0.4289340000
H                 -4.4446230000     -0.6600840000     -1.3567010000
H                 -5.8665780000     -0.5950320000     -0.2938500000
H                 -4.9252740000      0.8713950000     -0.6154950000
H                 -4.4335730000     -0.0985890000      1.6638330000
H                 -3.9208580000     -1.6050540000      0.9121780000
H                 -3.0818890000      2.0806400000      1.0245500000
H                 -0.7474640000      2.9192700000      0.8985940000
H                  4.0322190000      2.1234000000      0.2527400000
H                  5.9418490000      0.5703090000     -0.1575360000
H                  5.4906440000     -1.8864910000     -0.4400690000
H                  3.1429920000     -2.7199580000     -0.3010450000
H                 -1.6248990000     -1.9133660000      0.3079200000
$end

$rem
BASIS  =  6-311++G(d,p)
GUI  =  2
JOB_TYPE  =  SP
METHOD  =  B3LYP
SCF_CONVERGENCE  = 8
SOLVENT_METHOD = sm12
$end

$smx
solvent dimethylformamide
charges CM5
$end

--------------------------------------------------------------

             Standard Nuclear Orientation (Angstroms)
    I     Atom           X                Y                Z
 ----------------------------------------------------------------
    1      C      -4.8490740000    -0.2079160000    -0.4454960000
    2      C      -3.9489750000    -0.5184250000     0.7667940000
    3      C      -2.5360040000     0.0020130000     0.6601280000
    4      C      -2.2601290000     1.3924760000     0.8324130000
    5      C      -0.9676220000     1.8647770000     0.7641600000
    6      C       0.1388580000     1.0129220000     0.5191960000
    7      C       1.4716510000     1.5760000000     0.4514730000
    8      O       1.7079060000     2.8247790000     0.5993260000
    9      C       2.5294070000     0.6090830000     0.2079820000
   10      C       3.8710960000     1.0573000000     0.1263560000
   11      C       4.9227290000     0.1922660000    -0.1001700000
   12      C       4.6678000000    -1.1972450000    -0.2599680000
   13      C       3.3710780000    -1.6650540000    -0.1840890000
   14      C       2.2706750000    -0.8039060000     0.0479800000
   15      C       0.9319140000    -1.3666190000     0.1152890000
   16      O       0.7076070000    -2.6155760000    -0.0278530000
   17      C      -0.1249520000    -0.3980890000     0.3541260000
   18      C      -1.4665090000    -0.8452240000     0.4289340000
   19      H      -4.4446230000    -0.6600840000    -1.3567010000
   20      H      -5.8665780000    -0.5950320000    -0.2938500000
   21      H      -4.9252740000     0.8713950000    -0.6154950000
   22      H      -4.4335730000    -0.0985890000     1.6638330000
   23      H      -3.9208580000    -1.6050540000     0.9121780000
   24      H      -3.0818890000     2.0806400000     1.0245500000
   25      H      -0.7474640000     2.9192700000     0.8985940000
   26      H       4.0322190000     2.1234000000     0.2527400000
   27      H       5.9418490000     0.5703090000    -0.1575360000
   28      H       5.4906440000    -1.8864910000    -0.4400690000
   29      H       3.1429920000    -2.7199580000    -0.3010450000
   30      H      -1.6248990000    -1.9133660000     0.3079200000
 ----------------------------------------------------------------

   18    -767.5638383074      4.35e-09  Convergence criterion met
 Total energy in the final basis set =     -767.8515469393

                    Orbital Energies (a.u.)
 --------------------------------------------------------------

 Alpha MOs
 -- Occupied --
-19.0305 -19.0293 -10.1887 -10.1875 -10.1796 -10.1739 -10.1733 -10.1726
-10.1697 -10.1695 -10.1691 -10.1688 -10.1679 -10.1621 -10.1533 -10.1529
-10.1523 -10.1520  -0.9515  -0.9487  -0.8482  -0.8439  -0.7902  -0.7601
 -0.7434  -0.7369  -0.7178  -0.6545  -0.6374  -0.6200  -0.5906  -0.5794
 -0.5445  -0.5236  -0.5082  -0.4691  -0.4559  -0.4532  -0.4459  -0.4301
 -0.4223  -0.4180  -0.4109  -0.3965  -0.3902  -0.3839  -0.3814  -0.3693
 -0.3593  -0.3534  -0.3492  -0.3361  -0.3351  -0.3293  -0.3146  -0.3124
 -0.2544  -0.2416  -0.2371  -0.2307  -0.2095  -0.2026  -0.1159

          Ground-State Mulliken Net Atomic Charges

     Atom                 Charge (a.u.)
  ----------------------------------------
      1 C                     0.059564
      2 C                     4.118988
      3 C                     3.407198
      4 C                     1.312373
      5 C                     0.012567
      6 C                    -2.935079
      7 C                    -3.462351
      8 O                    -0.301127
      9 C                    -2.051159
     10 C                    -0.252873
     11 C                     1.638158
     12 C                     1.566645
     13 C                    -0.294777
     14 C                    -1.306564
     15 C                    -2.383847
     16 O                    -0.318587
     17 C                    -2.599506
     18 C                    -0.922384
     19 H                     0.119215
     20 H                     0.353075
     21 H                     0.207405
     22 H                     0.268571
     23 H                     0.388845
     24 H                     0.262997
     25 H                     0.167191
     26 H                     0.119767
     27 H                     0.404218
     28 H                     0.403350
     29 H                     0.108615
     30 H                    -0.090488
  ----------------------------------------
  Sum of atomic charges =    -2.000000

                    Cartesian Multipole Moments
 -----------------------------------------------------------------
    Charge (ESU x 10^10)
                -9.6064
    Dipole Moment (Debye)
         X     -12.4934      Y      -1.0371      Z      -2.6351
       Tot      12.8104
    Quadrupole Moments (Debye-Ang)
        XX    -164.9467     XY      -4.5906     YY    -166.0970
        XZ      -1.3630     YZ      -6.0345     ZZ    -123.0476

 Total job time:  877.87s(wall), 6688.51s(cpu)
        *  Thank you very much for using Q-Chem.  Have a nice day.  *
