 Gaussian 16, Revision A.03,
 Gaussian 16:  ES64L-G16RevA.03 25-Dec-2016

 ----------------------------------------------------------------------
 #P UB3LYP/6-311++G(d,p) nosym opt freq SCRF=(PCM,Solvent=n,n-DiMethylF
 ormamide)
 ----------------------------------------------------------------------

 -------
 Reduced
 -------
 Symbolic Z-matrix:
 Charge = -2 Multiplicity = 1

 SCF Done:  E(UB3LYP) =  -669.505596390     A.U. after   19 cycles
 SCF Done:  E(UB3LYP) =  -669.507185519     A.U. after   14 cycles
 SCF Done:  E(UB3LYP) =  -669.507596080     A.U. after   14 cycles
 SCF Done:  E(UB3LYP) =  -669.507820943     A.U. after   14 cycles
 SCF Done:  E(UB3LYP) =  -669.507840062     A.U. after   13 cycles
 SCF Done:  E(UB3LYP) =  -669.507849974     A.U. after   11 cycles
 SCF Done:  E(UB3LYP) =  -669.507850621     A.U. after   11 cycles
 Optimization completed.
    -- Stationary point found.
 Normal termination of Gaussian 16 at Sun Feb 11 02:55:12 2024.

 ----------------------------------------------------------------------
 #P Geom=AllCheck Guess=TCheck SCRF=Check GenChk UB3LYP/6-311++G(d,p) F
 req
 ----------------------------------------------------------------------

 Structure from the checkpoint file:  "274-an.chk"
 -------
 Reduced
 -------
 Charge = -2 Multiplicity = 1

                          Input orientation:
 ---------------------------------------------------------------------
 Center     Atomic      Atomic             Coordinates (Angstroms)
 Number     Number       Type             X           Y           Z
 ---------------------------------------------------------------------
      1          6           0       -1.696427    3.071740    0.343328
      2          6           0       -2.866194    2.360323    0.175357
      3          6           0       -2.813413    0.982824   -0.158859
      4          6           0       -0.413064    2.476179    0.189015
      5          6           0       -0.363640    1.069659   -0.147250
      6          6           0       -1.585577    0.369718   -0.310895
      7          6           0        0.775061    3.275616    0.396778
      8          6           0        2.005088    2.585655    0.204119
      9          6           0        2.038374    1.208113   -0.139273
     10          6           0        0.905329    0.390905   -0.313569
     11          8           0        0.696790    4.539858    0.742808
     12          8           0        0.981336   -0.884728   -0.612896
     13          7           0        3.227829    3.315902    0.397498
     14          6           0        3.399222    4.441121   -0.519921
     15          6           0        4.455026    2.550092    0.532376
     16          1           0       -1.725207    4.125246    0.599065
     17          1           0       -3.826897    2.852436    0.297544
     18          1           0       -3.731187    0.418072   -0.292947
     19          1           0       -1.524608   -0.683004   -0.565281
     20          1           0        3.000069    0.725489   -0.282021
     21          1           0        2.483968    5.031489   -0.521789
     22          1           0        3.624318    4.105119   -1.549730
     23          1           0        4.229750    5.071033   -0.183356
     24          1           0        4.343467    1.776346    1.294719
     25          1           0        5.257192    3.225407    0.844784
     26          1           0        4.782293    2.061180   -0.403975
 ---------------------------------------------------------------------

 SCF Done:  E(UB3LYP) =  -669.507850621     A.U. after    1 cycles

 Alpha  occ. eigenvalues --  -19.01152 -19.00783 -14.29245 -10.17304 -10.16602
 Alpha  occ. eigenvalues --  -10.16402 -10.16125 -10.15428 -10.14650 -10.14483
 Alpha  occ. eigenvalues --  -10.14348 -10.14172 -10.13435 -10.13264 -10.11481
 Alpha  occ. eigenvalues --   -0.92451  -0.91630  -0.89494  -0.82054  -0.75801
 Alpha  occ. eigenvalues --   -0.71859  -0.70121  -0.69035  -0.64866  -0.61331
 Alpha  occ. eigenvalues --   -0.58082  -0.55595  -0.52268  -0.47747  -0.47588
 Alpha  occ. eigenvalues --   -0.44720  -0.43686  -0.42814  -0.41803  -0.39808
 Alpha  occ. eigenvalues --   -0.39111  -0.38082  -0.37115  -0.36400  -0.36025
 Alpha  occ. eigenvalues --   -0.35134  -0.34770  -0.33894  -0.31554  -0.31214
 Alpha  occ. eigenvalues --   -0.30810  -0.29733  -0.23722  -0.22494  -0.21616
 Alpha  occ. eigenvalues --   -0.19357  -0.18756  -0.18229  -0.10790
 Alpha virt. eigenvalues --   -0.00482   0.00002   0.00734   0.01546   0.01710
 Alpha virt. eigenvalues --    0.02513   0.02675   0.03154   0.04582   0.04913
 Alpha virt. eigenvalues --    0.05042   0.05524   0.05754   0.06776   0.07499

  Beta  occ. eigenvalues --  -19.01152 -19.00783 -14.29245 -10.17304 -10.16602
  Beta  occ. eigenvalues --  -10.16402 -10.16125 -10.15428 -10.14650 -10.14483
  Beta  occ. eigenvalues --  -10.14348 -10.14172 -10.13435 -10.13264 -10.11481
  Beta  occ. eigenvalues --   -0.92451  -0.91630  -0.89494  -0.82054  -0.75801
  Beta  occ. eigenvalues --   -0.71859  -0.70121  -0.69035  -0.64866  -0.61331
  Beta  occ. eigenvalues --   -0.58082  -0.55595  -0.52268  -0.47747  -0.47588
  Beta  occ. eigenvalues --   -0.44720  -0.43686  -0.42814  -0.41803  -0.39808
  Beta  occ. eigenvalues --   -0.39111  -0.38082  -0.37115  -0.36400  -0.36025
  Beta  occ. eigenvalues --   -0.35134  -0.34770  -0.33894  -0.31554  -0.31214
  Beta  occ. eigenvalues --   -0.30810  -0.29733  -0.23722  -0.22494  -0.21616
  Beta  occ. eigenvalues --   -0.19357  -0.18756  -0.18229  -0.10790
  Beta virt. eigenvalues --   -0.00482   0.00002   0.00734   0.01546   0.01710
  Beta virt. eigenvalues --    0.02513   0.02675   0.03154   0.04582   0.04913
  Beta virt. eigenvalues --    0.05042   0.05524   0.05754   0.06776   0.07499

 Mulliken charges and spin densities:
               1          2
     1  C    0.014298  -0.000000
     2  C   -0.459136   0.000000
     3  C   -0.399319   0.000000
     4  C    0.153383  -0.000000
     5  C    0.667084   0.000000
     6  C   -0.006429  -0.000000
     7  C   -0.908420  -0.000000
     8  C   -0.456617  -0.000000
     9  C    0.327957   0.000000
    10  C   -0.363705  -0.000000
    11  O   -0.717010   0.000000
    12  O   -0.729207   0.000000
    13  N    0.050692  -0.000000
    14  C   -0.369762  -0.000000
    15  C   -0.346060  -0.000000
    16  H    0.146428  -0.000000
    17  H    0.152504   0.000000
    18  H    0.155123   0.000000
    19  H    0.136120  -0.000000
    20  H    0.138708   0.000000
    21  H    0.178777   0.000000
    22  H    0.101346   0.000000
    23  H    0.133538  -0.000000
    24  H    0.147495   0.000000
    25  H    0.145859   0.000000
    26  H    0.106354  -0.000000
 Sum of Mulliken charges =  -2.00000   0.00000

 Dipole moment (field-independent basis, Debye):
    X=             -5.2810    Y=            -17.3463    Z=             -1.0145  Tot=             18.1607
 Quadrupole moment (field-independent basis, Debye-Ang):
   XX=           -108.6075   YY=           -186.2368   ZZ=           -105.9702
   XY=             -7.3928   XZ=             -0.5806   YZ=            -17.4309

  Exact polarizability: 398.033  18.311 309.794  -5.315  34.020 172.766
 Approx polarizability: 427.866  15.253 348.868  -2.269  42.538 186.446

                      1                      2                      3
                      A                      A                      A
 Frequencies --     59.0226                76.5118               123.7559
 Red. masses --      4.2890                 3.0461                 4.2389
 Frc consts  --      0.0088                 0.0105                 0.0383
 IR Inten    --     20.6227                 4.5776                 1.0665

                      4                      5                      6
                      A                      A                      A
 Frequencies --    162.6124               191.6853               206.3442
 Red. masses --      5.9331                 3.4633                 3.9113
 Frc consts  --      0.0924                 0.0750                 0.0981
 IR Inten    --     11.3012                15.8790                 2.9794

                      7                      8                      9
                      A                      A                      A
 Frequencies --    260.8987               277.9455               301.4339
 Red. masses --      1.2610                 3.8817                 1.4724
 Frc consts  --      0.0506                 0.1767                 0.0788
 IR Inten    --      3.0366                 5.1653                10.0330

                     10                     11                     12
                      A                      A                      A
 Frequencies --    308.6783               335.3856               363.6837
 Red. masses --      2.1912                 3.5702                 8.8814
 Frc consts  --      0.1230                 0.2366                 0.6921
 IR Inten    --      4.3136                 1.2350                10.2969

                     13                     14                     15
                      A                      A                      A
 Frequencies --    392.3904               413.4878               438.1754
 Red. masses --      3.6861                 4.7206                 3.4759
 Frc consts  --      0.3344                 0.4755                 0.3932
 IR Inten    --     12.3802                 8.7009                 8.2858

                     16                     17                     18
                      A                      A                      A
 Frequencies --    471.6944               481.0016               534.2419
 Red. masses --      3.9891                 8.6215                 4.9261
 Frc consts  --      0.5229                 1.1752                 0.8284
 IR Inten    --      2.1717                 0.5672                 6.4950

                     19                     20                     21
                      A                      A                      A
 Frequencies --    548.4369               630.0841               636.8873
 Red. masses --      4.0727                 5.8773                 2.8266
 Frc consts  --      0.7217                 1.3748                 0.6755
 IR Inten    --      8.1064                28.6195                 3.4603

                     22                     23                     24
                      A                      A                      A
 Frequencies --    677.2270               711.1006               723.0862
 Red. masses --      5.7100                 3.1023                 6.0005
 Frc consts  --      1.5430                 0.9243                 1.8485
 IR Inten    --      0.4088                62.5294                51.9276

                     25                     26                     27
                      A                      A                      A
 Frequencies --    764.1406               777.8585               823.4173
 Red. masses --      1.7451                 3.3088                 1.8208
 Frc consts  --      0.6004                 1.1796                 0.7274
 IR Inten    --     95.8553                 0.7265                38.0360

                     28                     29                     30
                      A                      A                      A
 Frequencies --    838.8467               851.1878               866.1246
 Red. masses --      4.7149                 1.6222                 5.3947
 Frc consts  --      1.9547                 0.6925                 2.3844
 IR Inten    --     85.5097                 0.9749                89.8330

                     31                     32                     33
                      A                      A                      A
 Frequencies --    965.2369               974.6519               989.7824
 Red. masses --      1.3594                 1.2466                 3.5255
 Frc consts  --      0.7462                 0.6977                 2.0349
 IR Inten    --      4.0090                 0.2405               279.1495

                     34                     35                     36
                      A                      A                      A
 Frequencies --   1022.1418              1058.8789              1086.7607
 Red. masses --      2.0341                 1.5401                 3.2178
 Frc consts  --      1.2521                 1.0174                 2.2391
 IR Inten    --     30.2212                30.6378               169.1317

                     37                     38                     39
                      A                      A                      A
 Frequencies --   1108.2888              1116.9654              1137.6931
 Red. masses --      1.7211                 1.5277                 1.7164
 Frc consts  --      1.2456                 1.1230                 1.3089
 IR Inten    --      6.8023                 7.9458               284.9373

                     40                     41                     42
                      A                      A                      A
 Frequencies --   1157.5691              1168.2828              1205.3246
 Red. masses --      1.5227                 1.4693                 1.8101
 Frc consts  --      1.2022                 1.1816                 1.5494
 IR Inten    --     46.3453                48.9615               318.3268

                     43                     44                     45
                      A                      A                      A
 Frequencies --   1210.4719              1232.1365              1277.8013
 Red. masses --      3.1813                 2.9825                 2.2606
 Frc consts  --      2.7464                 2.6678                 2.1747
 IR Inten    --    337.5118               207.6205               282.1103

                     46                     47                     48
                      A                      A                      A
 Frequencies --   1288.1345              1330.0111              1357.5671
 Red. masses --      3.6630                 4.3283                 5.3862
 Frc consts  --      3.5811                 4.5111                 5.8486
 IR Inten    --     29.5618               491.4377              1414.3971

                     49                     50                     51
                      A                      A                      A
 Frequencies --   1375.8629              1418.9102              1429.1597
 Red. masses --      4.1802                 1.3012                 2.6125
 Frc consts  --      4.6623                 1.5435                 3.1439
 IR Inten    --     73.7997                74.1099                99.3549

                     52                     53                     54
                      A                      A                      A
 Frequencies --   1446.6869              1453.1736              1474.1814
 Red. masses --      1.9530                 1.3792                 1.0500
 Frc consts  --      2.4082                 1.7159                 1.3445
 IR Inten    --     77.6842                 3.5867                31.3297

                     55                     56                     57
                      A                      A                      A
 Frequencies --   1485.4182              1495.2427              1503.2040
 Red. masses --      1.1498                 1.0496                 3.4147
 Frc consts  --      1.4948                 1.3826                 4.5460
 IR Inten    --     28.7602                12.0613                40.8685

                     58                     59                     60
                      A                      A                      A
 Frequencies --   1508.1053              1527.3420              1582.5011
 Red. masses --      1.0751                 4.3723                 7.0593
 Frc consts  --      1.4406                 6.0094                10.4159
 IR Inten    --     23.2539               307.1403                51.0919

                     61                     62                     63
                      A                      A                      A
 Frequencies --   1604.7491              2892.0335              2899.9095
 Red. masses --      5.3799                 1.0613                 1.0642
 Frc consts  --      8.1628                 5.2300                 5.2729
 IR Inten    --     21.4996               177.2299               411.1840

                     64                     65                     66
                      A                      A                      A
 Frequencies --   3028.1930              3037.4668              3089.4639
 Red. masses --      1.0747                 1.0682                 1.1008
 Frc consts  --      5.8064                 5.8065                 6.1904
 IR Inten    --    131.3233               107.0531                54.4828

                     67                     68                     69
                      A                      A                      A
 Frequencies --   3114.9909              3134.6027              3148.4601
 Red. masses --      1.0967                 1.0846                 1.0864
 Frc consts  --      6.2700                 6.2787                 6.3451
 IR Inten    --      7.9024                23.3429                78.8446

                     70                     71                     72
                      A                      A                      A
 Frequencies --   3151.2020              3170.8798              3175.9914
 Red. masses --      1.0895                 1.0908                 1.0922
 Frc consts  --      6.3744                 6.4616                 6.4907
 IR Inten    --     43.8199                46.8051                61.1186

 - Thermochemistry -
 -------------------
 Temperature   298.150 Kelvin.  Pressure   1.00000 Atm.
 Atom     1 has atomic number  6 and mass  12.00000

 Molecular mass:   201.07898 amu.
 Principal axes and moments of inertia in atomic units:
                           1         2         3
     Eigenvalues --  1662.061943875.055375374.94198
           X            0.93362  -0.35762   0.02139
           Y            0.35560   0.91779  -0.17667
           Z            0.04355   0.17254   0.98404
 This molecule is an asymmetric top.
 Rotational symmetry number  1.
 Warning -- assumption of classical behavior for rotation
           may cause significant error
 Rotational temperatures (Kelvin)      0.05211     0.02235     0.01611
 Rotational constants (GHZ):           1.08584     0.46573     0.33577
 Zero-point vibrational energy     526852.0 (Joules/Mol)
                                  125.92065 (Kcal/Mol)
 Warning -- explicit consideration of  19 degrees of freedom as
           vibrations may cause significant error
 Vibrational temperatures:     84.92   110.08   178.06   233.96   275.79
          (Kelvin)            296.88   375.38   399.90   433.70   444.12
                              482.55   523.26   564.56   594.92   630.44
                              678.66   692.05   768.65   789.08   906.55
                              916.34   974.38  1023.12  1040.36  1099.43
                             1119.16  1184.71  1206.91  1224.67  1246.16
                             1388.76  1402.31  1424.08  1470.63  1523.49
                             1563.61  1594.58  1607.06  1636.89  1665.48
                             1680.90  1734.19  1741.60  1772.77  1838.47
                             1853.34  1913.59  1953.24  1979.56  2041.50
                             2056.24  2081.46  2090.79  2121.02  2137.19
                             2151.32  2162.78  2169.83  2197.50  2276.87
                             2308.88  4160.99  4172.32  4356.89  4370.24
                             4445.05  4481.78  4509.99  4529.93  4533.88
                             4562.19  4569.54

 Zero-point correction=                           0.200667 (Hartree/Particle)
 Thermal correction to Energy=                    0.213305
 Thermal correction to Enthalpy=                  0.214249
 Thermal correction to Gibbs Free Energy=         0.162125
 Sum of electronic and zero-point Energies=           -669.307183
 Sum of electronic and thermal Energies=              -669.294545
 Sum of electronic and thermal Enthalpies=            -669.293601
 Sum of electronic and thermal Free Energies=         -669.345726

                     E (Thermal)             CV                S
                      KCal/Mol        Cal/Mol-Kelvin    Cal/Mol-Kelvin
 Total                  133.851             50.311            109.705
 Electronic               0.000              0.000              0.000
 Translational            0.889              2.981             41.800
 Rotational               0.889              2.981             31.915
 Vibrational            132.074             44.349             35.989
 Vibration     1          0.596              1.974              4.490
 Vibration     2          0.599              1.965              3.978
 Vibration     3          0.610              1.929              3.041
 Vibration     4          0.623              1.888              2.519
 Vibration     5          0.634              1.851              2.211
 Vibration     6          0.641              1.831              2.076
 Vibration     7          0.669              1.744              1.656
 Vibration     8          0.679              1.714              1.546
 Vibration     9          0.693              1.671              1.409
 Vibration    10          0.698              1.657              1.369
 Vibration    11          0.717              1.605              1.234
 Vibration    12          0.737              1.547              1.106
 Vibration    13          0.760              1.486              0.991
 Vibration    14          0.777              1.441              0.914
 Vibration    15          0.798              1.387              0.832
 Vibration    16          0.829              1.313              0.733
 Vibration    17          0.837              1.292              0.707
 Vibration    18          0.889              1.174              0.578
 Vibration    19          0.904              1.143              0.547

                           ! Non-Optimized Parameters !
 Normal termination of Gaussian 16 at Sun Feb 11 03:35:57 2024.
