 Gaussian 16, Revision A.03,
 Gaussian 16:  ES64L-G16RevA.03 25-Dec-2016

 ----------------------------------------------------------------
 #P UB3LYP/6-311++G(d,p) SCRF=(PCM,Solvent=n,n-DiMethylFormamide)
 ----------------------------------------------------------------

 ------------------
 Quinone PCM in DMF
 ------------------
 Symbolic Z-matrix:
 Charge =  0 Multiplicity = 1

                         Standard orientation:
 ---------------------------------------------------------------------
 Center     Atomic      Atomic             Coordinates (Angstroms)
 Number     Number       Type             X           Y           Z
 ---------------------------------------------------------------------
      1          6           0        2.162844   -1.838778    0.297215
      2          6           0        3.472979   -1.392615    0.394789
      3          6           0        3.727240   -0.020373    0.338549
      4          6           0        1.106659   -0.933555    0.149869
      5          6           0        1.379873    0.444424    0.101005
      6          6           0        2.696546    0.896442    0.195685
      7          6           0       -0.285704   -1.450400    0.050823
      8          6           0       -1.379951   -0.444294   -0.101486
      9          6           0       -1.106738    0.933693   -0.150354
     10          6           0        0.285645    1.450524   -0.051464
     11          6           0       -2.696632   -0.896302   -0.196025
     12          6           0       -3.727339    0.020528   -0.338728
     13          6           0       -3.473084    1.392760   -0.394983
     14          6           0       -2.162928    1.838921   -0.297570
     15          8           0       -0.527877   -2.645529    0.092324
     16          8           0        0.527839    2.645641   -0.093185
     17          1           0        2.903085    1.958361    0.160766
     18          1           0       -1.935552    2.896883   -0.336483
     19          1           0        1.935460   -2.896739    0.336103
     20          1           0       -2.903176   -1.958222   -0.161138
     21          1           0       -4.287468    2.094919   -0.505955
     22          8           0        5.003951    0.503126    0.506068
     23          8           0       -5.004103   -0.502920   -0.506074
     24          6           0       -6.065168   -0.031234    0.237044
     25          6           0       -7.317456   -0.769886   -0.144292
     26          8           0       -5.965784    0.831880    1.062647
     27          1           0        4.287343   -2.094780    0.505858
     28          1           0       -7.201207   -1.832552    0.081266
     29          1           0       -7.493057   -0.681116   -1.218454
     30          1           0       -8.159852   -0.363168    0.410679
     31          6           0        6.065285    0.031181   -0.236505
     32          6           0        7.317656    0.769117    0.145937
     33          8           0        5.966113   -0.831901   -1.062165
     34          1           0        7.199775    1.833094   -0.072257
     35          1           0        8.159132    0.366591   -0.413459
     36          1           0        7.496055    0.673438    1.219093
 ---------------------------------------------------------------------

 SCF Done:  E(UB3LYP) =  -1144.85913701     A.U. after   15 cycles

 The electronic state is 1-A.
 Alpha  occ. eigenvalues --  -19.19795 -19.19794 -19.14037 -19.14036 -19.13655
 Alpha  occ. eigenvalues --  -19.13654 -10.33133 -10.33132 -10.28904 -10.28903
 Alpha  occ. eigenvalues --  -10.27040 -10.27040 -10.21811 -10.21810 -10.21379
 Alpha  occ. eigenvalues --  -10.21378 -10.20766 -10.20766 -10.20672 -10.20672
 Alpha  occ. eigenvalues --  -10.20619 -10.20619 -10.18826 -10.18826  -1.13772
 Alpha  occ. eigenvalues --   -1.13771  -1.07221  -1.07041  -1.05890  -1.05889
 Alpha  occ. eigenvalues --   -0.90385  -0.89292  -0.82687  -0.80056  -0.79353
 Alpha  occ. eigenvalues --   -0.78880  -0.76583  -0.75550  -0.70480  -0.68445
 Alpha  occ. eigenvalues --   -0.67437  -0.64079  -0.63156  -0.60806  -0.58481
 Alpha  occ. eigenvalues --   -0.57244  -0.53565  -0.52649  -0.51746  -0.51511
 Alpha  occ. eigenvalues --   -0.50848  -0.50440  -0.50358  -0.49461  -0.47690
 Alpha  occ. eigenvalues --   -0.47277  -0.46323  -0.46204  -0.46193  -0.46014
 Alpha  occ. eigenvalues --   -0.45814  -0.44342  -0.43467  -0.42791  -0.42498
 Alpha  occ. eigenvalues --   -0.42479  -0.41135  -0.40720  -0.40692  -0.39778
 Alpha  occ. eigenvalues --   -0.39236  -0.39104  -0.37915  -0.37271  -0.35135
 Alpha  occ. eigenvalues --   -0.34820  -0.31084  -0.31083  -0.29424  -0.29219
 Alpha  occ. eigenvalues --   -0.28492  -0.28156  -0.28140  -0.27193
 Alpha virt. eigenvalues --   -0.12380  -0.08049  -0.04658  -0.03629  -0.02126
 Alpha virt. eigenvalues --   -0.01538  -0.00911  -0.00512   0.00486   0.00870
 Alpha virt. eigenvalues --    0.01906   0.02232   0.02552   0.02647   0.03377

  Beta  occ. eigenvalues --  -19.19795 -19.19794 -19.14037 -19.14036 -19.13655
  Beta  occ. eigenvalues --  -19.13654 -10.33133 -10.33132 -10.28904 -10.28903
  Beta  occ. eigenvalues --  -10.27040 -10.27040 -10.21811 -10.21810 -10.21379
  Beta  occ. eigenvalues --  -10.21378 -10.20766 -10.20766 -10.20672 -10.20672
  Beta  occ. eigenvalues --  -10.20619 -10.20619 -10.18826 -10.18826  -1.13772
  Beta  occ. eigenvalues --   -1.13771  -1.07221  -1.07041  -1.05890  -1.05889
  Beta  occ. eigenvalues --   -0.90385  -0.89292  -0.82687  -0.80056  -0.79353
  Beta  occ. eigenvalues --   -0.78880  -0.76583  -0.75550  -0.70480  -0.68445
  Beta  occ. eigenvalues --   -0.67437  -0.64079  -0.63156  -0.60806  -0.58481
  Beta  occ. eigenvalues --   -0.57244  -0.53565  -0.52649  -0.51746  -0.51511
  Beta  occ. eigenvalues --   -0.50848  -0.50440  -0.50358  -0.49461  -0.47690
  Beta  occ. eigenvalues --   -0.47277  -0.46323  -0.46204  -0.46193  -0.46014
  Beta  occ. eigenvalues --   -0.45814  -0.44342  -0.43467  -0.42791  -0.42498
  Beta  occ. eigenvalues --   -0.42479  -0.41135  -0.40720  -0.40692  -0.39778
  Beta  occ. eigenvalues --   -0.39236  -0.39104  -0.37915  -0.37271  -0.35135
  Beta  occ. eigenvalues --   -0.34820  -0.31084  -0.31083  -0.29424  -0.29219
  Beta  occ. eigenvalues --   -0.28492  -0.28156  -0.28140  -0.27193
  Beta virt. eigenvalues --   -0.12380  -0.08049  -0.04658  -0.03629  -0.02126
  Beta virt. eigenvalues --   -0.01538  -0.00911  -0.00512   0.00486   0.00870
  Beta virt. eigenvalues --    0.01906   0.02232   0.02552   0.02647   0.03377

 Mulliken charges and spin densities:
               1          2
     1  C    0.189699   0.000000
     2  C    0.053449  -0.000000
     3  C   -0.574601  -0.000000
     4  C    0.356787   0.000000
     5  C    0.461757  -0.000000
     6  C    0.006658  -0.000000
     7  C   -0.777506  -0.000000
     8  C    0.461814   0.000000
     9  C    0.358053   0.000000
    10  C   -0.777954   0.000000
    11  C    0.006963   0.000000
    12  C   -0.575896  -0.000000
    13  C    0.053854   0.000000
    14  C    0.190170  -0.000000
    15  O   -0.258580   0.000000
    16  O   -0.258554  -0.000000
    17  H    0.211677   0.000000
    18  H    0.198585   0.000000
    19  H    0.198569   0.000000
    20  H    0.211678  -0.000000
    21  H    0.241864  -0.000000
    22  O   -0.029403   0.000000
    23  O   -0.029324   0.000000
    24  C    0.182860   0.000000
    25  C   -0.554837  -0.000000
    26  O   -0.283227  -0.000000
    27  H    0.241862   0.000000
    28  H    0.196246   0.000000
    29  H    0.196885   0.000000
    30  H    0.181199  -0.000000
    31  C    0.182781   0.000000
    32  C   -0.554463  -0.000000
    33  O   -0.283271   0.000000
    34  H    0.195928   0.000000
    35  H    0.181214   0.000000
    36  H    0.197064  -0.000000
 Sum of Mulliken charges =  -0.00000   0.00000

 Dipole moment (field-independent basis, Debye):
    X=              0.0002    Y=             -0.0018    Z=              0.0032  Tot=              0.0037
 Quadrupole moment (field-independent basis, Debye-Ang):
   XX=            -86.1550   YY=           -147.4445   ZZ=           -142.7181
   XY=             13.7470   XZ=             22.7636   YZ=             -6.6283

 Normal termination of Gaussian 16 at Sun Jan 14 01:09:34 2024.
