 Q-Chem 5.4, Q-Chem, Inc., Pleasanton, CA (2021)
 Q-Chem 5.4.0 for Intel X86 EM64T Linux

User input:
--------------------------------------------------------------
$molecule
-2 1
N                 -2.7866990000     -2.0736430000      0.3379190000
C                 -2.4900330000     -0.7119450000      0.1730520000
C                 -3.5254260000      0.2117540000      0.0691740000
C                 -3.2555480000      1.5794770000     -0.1836430000
C                 -1.9583770000      2.0067280000     -0.3359310000
C                 -0.8636130000      1.1050290000     -0.2172860000
C                  0.4692120000      1.6422860000     -0.3589570000
O                  0.6865760000      2.8894100000     -0.6000870000
C                  1.5405500000      0.6891250000     -0.2064210000
C                  2.8637520000      1.1788220000     -0.3369720000
C                  3.9660110000      0.3691310000     -0.2113710000
C                  3.7765750000     -1.0171370000      0.0434730000
C                  2.5013020000     -1.5173870000      0.1811590000
Cl                 2.4713220000     -3.3028410000      0.4358980000
C                  1.3083820000     -0.7327530000      0.0911160000
C                 -0.0290490000     -1.2417100000      0.2825490000
O                 -0.2551930000     -2.4667580000      0.6523600000
C                 -1.1092710000     -0.2940830000      0.0628400000
H                 -3.5978800000     -2.2380130000      0.9191220000
H                 -1.9143190000     -2.5719140000      0.6110150000
H                 -4.5524860000     -0.1447480000      0.1400930000
H                 -4.0830350000      2.2832610000     -0.2678010000
H                 -1.7100900000      3.0419620000     -0.5410250000
H                  2.9509900000      2.2406640000     -0.5426470000
H                  4.9737040000      0.7663950000     -0.3138810000
H                  4.6226450000     -1.6911120000      0.1162540000
$end

$rem
BASIS  =  6-311++G(d,p)
GUI  =  2
JOB_TYPE  =  SP
METHOD  =  B3LYP
SCF_CONVERGENCE  = 8
SOLVENT_METHOD = sm12
$end

$smx
solvent dimethylformamide
charges CM5
$end

--------------------------------------------------------------

             Standard Nuclear Orientation (Angstroms)
    I     Atom           X                Y                Z
 ----------------------------------------------------------------
    1      N      -2.7866990000    -2.0736430000     0.3379190000
    2      C      -2.4900330000    -0.7119450000     0.1730520000
    3      C      -3.5254260000     0.2117540000     0.0691740000
    4      C      -3.2555480000     1.5794770000    -0.1836430000
    5      C      -1.9583770000     2.0067280000    -0.3359310000
    6      C      -0.8636130000     1.1050290000    -0.2172860000
    7      C       0.4692120000     1.6422860000    -0.3589570000
    8      O       0.6865760000     2.8894100000    -0.6000870000
    9      C       1.5405500000     0.6891250000    -0.2064210000
   10      C       2.8637520000     1.1788220000    -0.3369720000
   11      C       3.9660110000     0.3691310000    -0.2113710000
   12      C       3.7765750000    -1.0171370000     0.0434730000
   13      C       2.5013020000    -1.5173870000     0.1811590000
   14      Cl      2.4713220000    -3.3028410000     0.4358980000
   15      C       1.3083820000    -0.7327530000     0.0911160000
   16      C      -0.0290490000    -1.2417100000     0.2825490000
   17      O      -0.2551930000    -2.4667580000     0.6523600000
   18      C      -1.1092710000    -0.2940830000     0.0628400000
   19      H      -3.5978800000    -2.2380130000     0.9191220000
   20      H      -1.9143190000    -2.5719140000     0.6110150000
   21      H      -4.5524860000    -0.1447480000     0.1400930000
   22      H      -4.0830350000     2.2832610000    -0.2678010000
   23      H      -1.7100900000     3.0419620000    -0.5410250000
   24      H       2.9509900000     2.2406640000    -0.5426470000
   25      H       4.9737040000     0.7663950000    -0.3138810000
   26      H       4.6226450000    -1.6911120000     0.1162540000
 ----------------------------------------------------------------

   18   -1203.9193992599      6.54e-09  Convergence criterion met
 Total energy in the final basis set =    -1204.1953306265

                    Orbital Energies (a.u.)
 --------------------------------------------------------------

 Alpha MOs
 -- Occupied --
******** -19.0359 -19.0275 -14.2980 -10.2290 -10.2118 -10.2021 -10.1873
-10.1739 -10.1731 -10.1727 -10.1701 -10.1657 -10.1625 -10.1611 -10.1581
-10.1565 -10.1550  -9.4483  -7.2127  -7.2036  -7.2027  -0.9599  -0.9447
 -0.9007  -0.8689  -0.8280  -0.8168  -0.7729  -0.7290  -0.7261  -0.7186
 -0.6561  -0.6271  -0.6175  -0.5697  -0.5484  -0.5326  -0.5145  -0.4895
 -0.4670  -0.4620  -0.4576  -0.4368  -0.4297  -0.4171  -0.4049  -0.4021
 -0.3841  -0.3774  -0.3760  -0.3702  -0.3529  -0.3471  -0.3388  -0.3309
 -0.3236  -0.3135  -0.2967  -0.2933  -0.2422  -0.2390  -0.2346  -0.2135
 -0.2067  -0.2001  -0.1206

          Ground-State Mulliken Net Atomic Charges

     Atom                 Charge (a.u.)
  ----------------------------------------
      1 N                    -0.203853
      2 C                    -0.290791
      3 C                     2.542190
      4 C                     1.133837
      5 C                    -0.703586
      6 C                    -1.739411
      7 C                    -3.019300
      8 O                    -0.345609
      9 C                    -1.738022
     10 C                    -0.044421
     11 C                     1.044464
     12 C                     2.841790
     13 C                     1.512497
     14 Cl                    0.957685
     15 C                    -0.491759
     16 C                    -3.857467
     17 O                    -0.150226
     18 C                    -1.769779
     19 H                     0.384458
     20 H                     0.288067
     21 H                     0.324499
     22 H                     0.386494
     23 H                     0.068902
     24 H                     0.093639
     25 H                     0.375052
     26 H                     0.400649
  ----------------------------------------
  Sum of atomic charges =    -2.000000

                    Cartesian Multipole Moments
 -----------------------------------------------------------------
    Charge (ESU x 10^10)
                -9.6064
    Dipole Moment (Debye)
         X      -1.9385      Y      -1.5355      Z       1.1938
       Tot       2.7460
    Quadrupole Moments (Debye-Ang)
        XX    -155.0345     XY       3.3947     YY    -176.0047
        XZ      -2.9135     YZ       7.6499     ZZ    -127.4434

 Total job time:  690.33s(wall), 5223.00s(cpu)
        *  Thank you very much for using Q-Chem.  Have a nice day.  *
