 Gaussian 16, Revision A.03,
 Gaussian 16:  ES64L-G16RevA.03 25-Dec-2016

 ----------------------------------------------------------------
 #P UB3LYP/6-311++G(d,p) SCRF=(PCM,Solvent=n,n-DiMethylFormamide)
 ----------------------------------------------------------------

 ------------------
 Radical PCM in DMF
 ------------------
 Symbolic Z-matrix:
 Charge = -1 Multiplicity = 2

                         Standard orientation:
 ---------------------------------------------------------------------
 Center     Atomic      Atomic             Coordinates (Angstroms)
 Number     Number       Type             X           Y           Z
 ---------------------------------------------------------------------
      1          6           0       -2.812913   -0.732552    0.158010
      2          6           0       -3.105267    0.688932    0.173269
      3          6           0       -2.135363    1.626003   -0.026343
      4          6           0       -0.740105    1.292035   -0.255669
      5          6           0       -0.426065   -0.134219   -0.247023
      6          6           0       -1.431993   -1.071611   -0.084695
      7          8           0       -3.705989   -1.608102    0.342450
      8          8           0        0.110823    2.196961   -0.481588
      9          1           0       -4.139575    0.974634    0.345034
     10          1           0       -2.368583    2.687171   -0.031766
     11          6           0        0.952863   -0.677332   -0.473748
     12          6           0        2.210046   -0.115223    0.259799
     13          6           0        1.869708    0.626737    1.564596
     14          6           0        3.127786   -1.310276    0.593026
     15          6           0        2.949075    0.830342   -0.714390
     16          8           0        1.104387   -1.646035   -1.206167
     17          1           0        1.301107    1.534234    1.367721
     18          1           0        2.798486    0.906009    2.076117
     19          1           0        1.294204   -0.010460    2.243368
     20          1           0        2.642877   -1.998963    1.292580
     21          1           0        4.049277   -0.945671    1.059917
     22          1           0        3.383295   -1.872303   -0.305730
     23          1           0        2.312482    1.676821   -0.974228
     24          1           0        3.228060    0.294638   -1.626756
     25          1           0        3.866152    1.202181   -0.241417
     26          1           0       -1.188179   -2.127896   -0.123384
 ---------------------------------------------------------------------

 SCF Done:  E(UB3LYP) =  -652.381891480     A.U. after   19 cycles

 The electronic state is 2-A.
 Alpha  occ. eigenvalues --  -19.11184 -19.08372 -19.08251 -10.25980 -10.23129
 Alpha  occ. eigenvalues --  -10.22462 -10.18626 -10.17895 -10.17309 -10.17073
 Alpha  occ. eigenvalues --  -10.16986 -10.15242 -10.15133 -10.14928  -1.04513
 Alpha  occ. eigenvalues --   -1.00649  -1.00311  -0.83069  -0.81046  -0.75932
 Alpha  occ. eigenvalues --   -0.69417  -0.68082  -0.67890  -0.63868  -0.59165
 Alpha  occ. eigenvalues --   -0.58035  -0.50626  -0.48566  -0.47572  -0.46610
 Alpha  occ. eigenvalues --   -0.45243  -0.43889  -0.43057  -0.42234  -0.41865
 Alpha  occ. eigenvalues --   -0.41041  -0.39880  -0.38676  -0.38204  -0.37360
 Alpha  occ. eigenvalues --   -0.36805  -0.36649  -0.36152  -0.35635  -0.32582
 Alpha  occ. eigenvalues --   -0.32174  -0.28692  -0.26852  -0.25607  -0.24737
 Alpha  occ. eigenvalues --   -0.23853  -0.17117
 Alpha virt. eigenvalues --   -0.04922  -0.00499   0.00156   0.00853   0.01484
 Alpha virt. eigenvalues --    0.02165   0.02656   0.02945   0.03156   0.04097
 Alpha virt. eigenvalues --    0.04494   0.05082   0.05282   0.05619   0.06429

  Beta  occ. eigenvalues --  -19.11152 -19.07618 -19.07599 -10.25980 -10.23019
  Beta  occ. eigenvalues --  -10.22348 -10.18625 -10.17797 -10.17111 -10.17004
  Beta  occ. eigenvalues --  -10.16887 -10.15243 -10.15133 -10.14928  -1.04450
  Beta  occ. eigenvalues --   -0.99507  -0.98993  -0.82461  -0.81005  -0.75656
  Beta  occ. eigenvalues --   -0.68548  -0.68079  -0.67724  -0.63564  -0.58841
  Beta  occ. eigenvalues --   -0.57771  -0.50392  -0.48379  -0.47252  -0.46422
  Beta  occ. eigenvalues --   -0.45074  -0.43807  -0.42861  -0.42167  -0.40918
  Beta  occ. eigenvalues --   -0.40407  -0.39057  -0.38011  -0.37743  -0.36608
  Beta  occ. eigenvalues --   -0.36506  -0.36218  -0.36002  -0.34507  -0.32556
  Beta  occ. eigenvalues --   -0.32094  -0.26251  -0.25533  -0.24953  -0.24081
  Beta  occ. eigenvalues --   -0.23373
  Beta virt. eigenvalues --   -0.09941  -0.03998  -0.00304   0.00867   0.01048
  Beta virt. eigenvalues --    0.01527   0.02245   0.02751   0.03019   0.04058
  Beta virt. eigenvalues --    0.04234   0.04561   0.05240   0.05553   0.05888

 Mulliken charges and spin densities:
               1          2
     1  C   -0.409168   0.108800
     2  C    0.048673   0.067589
     3  C   -0.312486   0.045849
     4  C   -0.823869   0.088052
     5  C    1.781658   0.059477
     6  C   -0.036199   0.126691
     7  O   -0.493555   0.265108
     8  O   -0.425633   0.235466
     9  H    0.191882  -0.004217
    10  H    0.194270  -0.007755
    11  C   -1.093718   0.010496
    12  C    0.896330   0.000527
    13  C   -0.724877  -0.000214
    14  C   -0.568525  -0.000471
    15  C   -0.560727   0.008444
    16  O   -0.272822   0.008863
    17  H    0.139227   0.000062
    18  H    0.150015  -0.000169
    19  H    0.131867  -0.000362
    20  H    0.156432  -0.000051
    21  H    0.146496   0.000312
    22  H    0.169547  -0.000029
    23  H    0.192606  -0.002361
    24  H    0.154770   0.000264
    25  H    0.154978   0.000304
    26  H    0.212827  -0.010676
 Sum of Mulliken charges =  -1.00000   1.00000

 Dipole moment (field-independent basis, Debye):
    X=              7.0168    Y=              2.2684    Z=              2.5249  Tot=              7.7946
 Quadrupole moment (field-independent basis, Debye-Ang):
   XX=           -118.7437   YY=           -109.5217   ZZ=            -92.0717
   XY=            -15.2703   XZ=              5.9284   YZ=             -0.2741

 Normal termination of Gaussian 16 at Wed Jan 24 22:50:36 2024.
