 Q-Chem 5.4, Q-Chem, Inc., Pleasanton, CA (2021)
 Q-Chem 5.4.0 for Intel X86 EM64T Linux

User input:
--------------------------------------------------------------
$molecule
0 1
C                  5.7783550000     -5.7449950000      0.4324750000
C                  5.8915460000     -5.9159770000     -0.9433700000
C                  5.1955730000     -5.0741980000     -1.8150200000
C                  4.9667200000     -4.7291320000      0.9431690000
C                  4.2694010000     -3.8846790000      0.0696640000
C                  4.3866830000     -4.0607550000     -1.3113430000
C                  4.8419270000     -4.5466070000      2.4156380000
C                  3.9604220000     -3.4562570000      2.9366320000
C                  3.3018370000     -2.6215980000      2.0932030000
C                  3.4057650000     -2.7967500000      0.6088090000
O                  5.4459840000     -5.2704850000      3.1931950000
O                  2.7906970000     -2.0574410000     -0.1453280000
H                  6.5211840000     -6.7044720000     -1.3397660000
C                  2.4003960000     -1.4992990000      2.5429810000
H                  5.2861090000     -5.2105600000     -2.8867100000
C                  3.8945740000     -3.3811420000      4.4362240000
C                  0.9301720000     -1.9405310000      2.7060350000
C                  0.0104290000     -0.7867590000      3.1192160000
C                 -1.4544440000     -1.2070390000      3.2843080000
H                  6.3083510000     -6.3856520000      1.1264010000
H                  3.8391670000     -3.3968460000     -1.9687740000
H                  2.4419670000     -0.7063470000      1.7934000000
H                  2.7625620000     -1.0784780000      3.4836170000
H                  3.6258640000     -4.3569530000      4.8482140000
H                  3.1782600000     -2.6415900000      4.7859810000
H                  4.8801190000     -3.1434770000      4.8481100000
H                  0.8711180000     -2.7435980000      3.4503750000
H                  0.5805810000     -2.3655550000      1.7593980000
H                  0.0767290000      0.0117220000      2.3697560000
H                  0.3712460000     -0.3526310000      4.0609490000
H                 -1.5197410000     -2.0087190000      4.0313910000
H                 -1.8137230000     -1.6398390000      2.3419650000
C                 -2.3790050000     -0.0558650000      3.6966590000
C                 -3.8447770000     -0.4739980000      3.8591000000
C                 -4.7703000000      0.6769200000      4.2697270000
C                 -6.2363180000      0.2592000000      4.4314530000
C                 -7.1622890000      1.4097590000      4.8413550000
H                 -2.3123320000      0.7459430000      2.9500060000
H                 -2.0197580000      0.3769470000      4.6394150000
H                 -3.9115520000     -1.2757750000      4.6060010000
H                 -4.2033330000     -0.9074310000      2.9164690000
H                 -4.7032210000      1.4786130000      3.5228400000
H                 -4.4118520000      1.1104600000      5.2124470000
H                 -6.3035220000     -0.5424260000      5.1785110000
H                 -6.5945550000     -0.1745470000      3.4887540000
H                 -7.0957960000      2.2119930000      4.0947040000
H                 -6.8052400000      1.8439180000      5.7845130000
C                 -8.6287260000      0.9932540000      5.0027230000
C                 -9.5458420000      2.1494120000      5.4122580000
H                 -8.6958490000      0.1922500000      5.7490980000
H                 -8.9860970000      0.5602340000      4.0604160000
H                 -9.2352390000      2.5808910000      6.3691850000
H                -10.5830500000      1.8193430000      5.5184800000
H                 -9.5274960000      2.9516820000      4.6677000000
$end
$rem
MAX_SCF_CYCLES=200
BASIS  =  6-311++G(d,p)
GUI  =  2
JOB_TYPE  =  SP
METHOD  =  B3LYP
SCF_CONVERGENCE  = 8
SOLVENT_METHOD = COSMO
$end
$solvent
dielectric 37.219
opticaldielectric 1.43
$end

--------------------------------------------------------------

             Standard Nuclear Orientation (Angstroms)
    I     Atom           X                Y                Z
 ----------------------------------------------------------------
    1      C       6.7889880429     0.1384070318    -1.0294912320
    2      C       7.3626065381     1.4056363416    -1.0388832085
    3      C       6.6776191599     2.4904216708    -0.4850085789
    4      C       5.5250694746    -0.0493173150    -0.4648614489
    5      C       4.8383848375     1.0377843742     0.0910520053
    6      C       5.4191280895     2.3084262897     0.0790288079
    7      C       4.9081918448    -1.4044737579    -0.4566987632
    8      C       3.5506522287    -1.5770030734     0.1471793383
    9      C       2.8925702338    -0.5306887494     0.7074620794
   10      C       3.4919296362     0.8424804341     0.6985458262
   11      O       5.4937835282    -2.3656510277    -0.9328287274
   12      O       2.8836515955     1.7854928241     1.1826269293
   13      H       8.3433458478     1.5514502784    -1.4772744347
   14      C       1.5259100360    -0.6276651646     1.3377688698
   15      H       7.1277630166     3.4766241919    -0.4942775670
   16      C       3.0201775105    -2.9815271712     0.0788930229
   17      C       0.3831091787    -0.3666322625     0.3334288281
   18      C      -1.0012945232    -0.4215458902     0.9878342350
   19      C      -2.1485281151    -0.1629115868     0.0046216763
   20      H       7.3015587752    -0.7163728659    -1.4531573931
   21      H       4.8712130730     3.1349651181     0.5142151473
   22      H       1.4631025204     0.1172162542     2.1337459962
   23      H       1.3915173410    -1.6091104260     1.7979366788
   24      H       3.0599590546    -3.3468035629    -0.9502515337
   25      H       1.9979497468    -3.0596263142     0.4412792661
   26      H       3.6557012558    -3.6561145984     0.6606791077
   27      H       0.4364152493    -1.1018369623    -0.4784076882
   28      H       0.5318596694     0.6165317226    -0.1250935244
   29      H      -1.0449620048     0.3161139719     1.7987651616
   30      H      -1.1425543678    -1.4029042244     1.4595317518
   31      H      -2.1019977181    -0.8987827829    -0.8086532061
   32      H      -2.0062929131     0.8186396158    -0.4652016452
   33      C      -3.5358083252    -0.2157332659     0.6547843153
   34      C      -4.6839040991     0.0458128502    -0.3266328046
   35      C      -6.0714043164    -0.0050925113     0.3230374122
   36      C      -7.2196686069     0.2572309253    -0.6580485205
   37      C      -8.6071974335     0.2071307120    -0.0088323169
   38      H      -3.5813262179     0.5193231148     1.4686960421
   39      H      -3.6781981187    -1.1976676072     1.1245753389
   40      H      -4.6385603180    -0.6894474964    -1.1405753864
   41      H      -4.5407021695     1.0273871520    -0.7967230833
   42      H      -6.1164551166     0.7300588305     1.1370241316
   43      H      -6.2147692666    -0.9867133783     0.7931755443
   44      H      -7.1748036188    -0.4780421808    -1.4720367693
   45      H      -7.0760435755     1.2387572562    -1.1282926325
   46      H      -8.6530438262     0.9422624093     0.8053961039
   47      H      -8.7521530276    -0.7744543694     0.4612779280
   48      C      -9.7562094596     0.4699871125    -0.9889503701
   49      C     -11.1382252302     0.4178897362    -0.3310443984
   50      H      -9.7113237652    -0.2646256913    -1.8022878453
   51      H      -9.6122441811     1.4509203706    -1.4582123183
   52      H     -11.3263775938    -0.5630419308     0.1169839347
   53      H     -11.9342510767     0.6094050024    -1.0560918781
   54      H     -11.2263878766     1.1654543488     0.4637605097
 ----------------------------------------------------------------

   14   -1007.1614696981      8.52e-09  Convergence criterion met
 Total energy in the final basis set =    -1007.1614696981
   10   -1007.1749923125      7.85e-09  Convergence criterion met
 Total energy in the final basis set =    -1007.1749923125

                    Orbital Energies (a.u.)
 --------------------------------------------------------------

 Alpha MOs
 -- Occupied --
-19.1332 -19.1331 -10.2813 -10.2808 -10.2123 -10.2096 -10.2049 -10.2043
-10.1953 -10.1951 -10.1947 -10.1943 -10.1741 -10.1710 -10.1675 -10.1606
-10.1587 -10.1583 -10.1572 -10.1568 -10.1566 -10.1564 -10.1563 -10.1521
 -1.0677  -1.0659  -0.8883  -0.8511  -0.8116  -0.8008  -0.7872  -0.7760
 -0.7756  -0.7540  -0.7294  -0.7059  -0.6819  -0.6709  -0.6419  -0.6254
 -0.6087  -0.5911  -0.5809  -0.5774  -0.5714  -0.5690  -0.5496  -0.5173
 -0.4997  -0.4846  -0.4767  -0.4695  -0.4614  -0.4603  -0.4574  -0.4494
 -0.4481  -0.4342  -0.4293  -0.4269  -0.4244  -0.4205  -0.4107  -0.4094
 -0.4023  -0.3976  -0.3946  -0.3859  -0.3802  -0.3767  -0.3741  -0.3672
 -0.3658  -0.3543  -0.3472  -0.3399  -0.3350  -0.3315  -0.3258  -0.3223
 -0.3204  -0.3177  -0.3168  -0.2994  -0.2896  -0.2881  -0.2769  -0.2720
 -0.2684

          Ground-State Mulliken Net Atomic Charges

     Atom                 Charge (a.u.)
  ----------------------------------------
      1 C                     0.253428
      2 C                    -0.489072
      3 C                    -0.416947
      4 C                    -0.033000
      5 C                    -0.192690
      6 C                     0.200215
      7 C                    -0.252827
      8 C                     0.845106
      9 C                     0.981195
     10 C                    -0.850944
     11 O                    -0.300517
     12 O                    -0.280761
     13 H                     0.223121
     14 C                    -0.606216
     15 H                     0.222476
     16 C                    -0.480189
     17 C                    -0.980198
     18 C                    -0.326171
     19 C                    -0.072434
     20 H                     0.204416
     21 H                     0.203169
     22 H                     0.228059
     23 H                     0.226735
     24 H                     0.194585
     25 H                     0.148228
     26 H                     0.216242
     27 H                     0.152491
     28 H                     0.198364
     29 H                     0.128302
     30 H                     0.134177
     31 H                     0.136410
     32 H                     0.133445
     33 C                     0.012207
     34 C                     0.029813
     35 C                    -0.060551
     36 C                    -0.298931
     37 C                    -0.478391
     38 H                     0.137766
     39 H                     0.137075
     40 H                     0.134730
     41 H                     0.134536
     42 H                     0.133557
     43 H                     0.133964
     44 H                     0.131807
     45 H                     0.132052
     46 H                     0.128718
     47 H                     0.128558
     48 C                    -0.293261
     49 C                    -0.709164
     50 H                     0.136134
     51 H                     0.136167
     52 H                     0.145284
     53 H                     0.154379
     54 H                     0.145351
  ----------------------------------------
  Sum of atomic charges =     0.000000

                    Cartesian Multipole Moments
 -----------------------------------------------------------------
    Charge (ESU x 10^10)
                -0.0000
    Dipole Moment (Debye)
         X       0.2686      Y       0.4634      Z      -0.3051
       Tot       0.6164
    Quadrupole Moments (Debye-Ang)
        XX    -138.3659     XY      18.9660     YY    -149.5350
        XZ      -1.6168     YZ      -7.5721     ZZ    -152.7390

 Total job time:  326.61s(wall), 2511.30s(cpu)
        *  Thank you very much for using Q-Chem.  Have a nice day.  *
