 Q-Chem 5.4, Q-Chem, Inc., Pleasanton, CA (2021)
 Q-Chem 5.4.0 for Intel X86 EM64T Linux

User input:
--------------------------------------------------------------
$molecule
-2 1
C                 -3.3629870000     -0.7027020000     -0.3595800000
C                 -1.9395960000     -0.2882270000     -0.0946550000
C                 -1.6491180000      0.7239620000      0.8513850000
C                 -0.3582200000      1.1352950000      1.1256390000
O                 -0.1233580000      2.1297060000      2.0596770000
C                  0.7308180000      0.5239370000      0.4353250000
C                  2.1059040000      0.9461850000      0.7120640000
O                  2.3493370000      1.8830590000      1.5903550000
C                  3.1311370000      0.2980870000     -0.0080230000
C                  2.8439890000     -0.7113300000     -0.9517780000
C                  1.5462100000     -1.1101190000     -1.2130800000
C                  0.4586220000     -0.5041670000     -0.5278910000
C                 -0.9112370000     -0.9450710000     -0.8229920000
O                 -1.1617140000     -1.8699370000     -1.6887850000
H                 -4.0658300000     -0.1250850000      0.2563500000
H                 -3.5199200000     -1.7733060000     -0.1561030000
H                 -3.6351230000     -0.5688970000     -1.4178960000
H                 -2.4639530000      1.2068260000      1.3921770000
H                  0.8868100000      2.2154780000      2.0472120000
H                  4.1561850000      0.6052900000      0.1910680000
H                  3.6706690000     -1.1849800000     -1.4852510000
H                  1.3113770000     -1.8840050000     -1.9352190000
$end

$rem
BASIS  =  6-311++G(d,p)
GUI  =  2
JOB_TYPE  =  SP
METHOD  =  B3LYP
SCF_CONVERGENCE  = 8
SOLVENT_METHOD = sm12
$end

$smx
solvent dimethylformamide
charges CM5
$end

--------------------------------------------------------------

             Standard Nuclear Orientation (Angstroms)
    I     Atom           X                Y                Z
 ----------------------------------------------------------------
    1      C      -3.3629870000    -0.7027020000    -0.3595800000
    2      C      -1.9395960000    -0.2882270000    -0.0946550000
    3      C      -1.6491180000     0.7239620000     0.8513850000
    4      C      -0.3582200000     1.1352950000     1.1256390000
    5      O      -0.1233580000     2.1297060000     2.0596770000
    6      C       0.7308180000     0.5239370000     0.4353250000
    7      C       2.1059040000     0.9461850000     0.7120640000
    8      O       2.3493370000     1.8830590000     1.5903550000
    9      C       3.1311370000     0.2980870000    -0.0080230000
   10      C       2.8439890000    -0.7113300000    -0.9517780000
   11      C       1.5462100000    -1.1101190000    -1.2130800000
   12      C       0.4586220000    -0.5041670000    -0.5278910000
   13      C      -0.9112370000    -0.9450710000    -0.8229920000
   14      O      -1.1617140000    -1.8699370000    -1.6887850000
   15      H      -4.0658300000    -0.1250850000     0.2563500000
   16      H      -3.5199200000    -1.7733060000    -0.1561030000
   17      H      -3.6351230000    -0.5688970000    -1.4178960000
   18      H      -2.4639530000     1.2068260000     1.3921770000
   19      H       0.8868100000     2.2154780000     2.0472120000
   20      H       4.1561850000     0.6052900000     0.1910680000
   21      H       3.6706690000    -1.1849800000    -1.4852510000
   22      H       1.3113770000    -1.8840050000    -1.9352190000
 ----------------------------------------------------------------

   18    -649.8402212511      3.63e-09  Convergence criterion met
 Total energy in the final basis set =     -650.1278753888

                    Orbital Energies (a.u.)
 --------------------------------------------------------------

 Alpha MOs
 -- Occupied --
-19.1057 -19.0598 -19.0307 -10.2151 -10.2031 -10.1905 -10.1725 -10.1693
-10.1614 -10.1590 -10.1552 -10.1517 -10.1503 -10.1499  -1.0180  -0.9650
 -0.9449  -0.8329  -0.7995  -0.7468  -0.7174  -0.6968  -0.6541  -0.6065
 -0.5819  -0.5466  -0.5074  -0.4872  -0.4703  -0.4565  -0.4350  -0.4184
 -0.4119  -0.3982  -0.3964  -0.3840  -0.3816  -0.3702  -0.3546  -0.3518
 -0.3406  -0.3376  -0.3243  -0.2963  -0.2616  -0.2358  -0.2323  -0.2040
 -0.1950  -0.1414

          Ground-State Mulliken Net Atomic Charges

     Atom                 Charge (a.u.)
  ----------------------------------------
      1 C                     1.567953
      2 C                     0.707126
      3 C                    -0.161050
      4 C                    -0.516298
      5 O                    -0.251818
      6 C                    -1.316099
      7 C                    -0.744672
      8 O                    -0.354405
      9 C                     0.553419
     10 C                     0.866784
     11 C                    -0.701234
     12 C                    -1.517173
     13 C                    -1.638481
     14 O                    -0.354434
     15 H                     0.303319
     16 H                     0.183625
     17 H                     0.184857
     18 H                     0.132397
     19 H                     0.378939
     20 H                     0.234855
     21 H                     0.370522
     22 H                     0.071868
  ----------------------------------------
  Sum of atomic charges =    -2.000000

                    Cartesian Multipole Moments
 -----------------------------------------------------------------
    Charge (ESU x 10^10)
                -9.6064
    Dipole Moment (Debye)
         X      -3.2252      Y      -0.4886      Z      -0.1712
       Tot       3.2665
    Quadrupole Moments (Debye-Ang)
        XX    -128.3722     XY     -14.5470     YY    -120.5651
        XZ     -10.7863     YZ     -23.7852     ZZ    -116.2620

 Total job time:  365.68s(wall), 2850.46s(cpu)
        *  Thank you very much for using Q-Chem.  Have a nice day.  *
