 Q-Chem 5.4, Q-Chem, Inc., Pleasanton, CA (2021)
 Q-Chem 5.4.0 for Intel X86 EM64T Linux

User input:
--------------------------------------------------------------
$molecule
0 1
C                 -1.6745730000      2.8608340000     -0.5601910000
C                 -2.8738480000      2.1576970000     -0.5879230000
C                 -2.8526680000      0.7683330000     -0.4833410000
C                 -0.4609280000      2.1895540000     -0.3997280000
C                 -0.4352150000      0.7890430000     -0.2285750000
C                 -1.6470460000      0.0914950000     -0.3111780000
C                  0.8057520000      2.9662110000     -0.5198500000
C                  2.1155100000      2.1475070000     -0.6527060000
C                  2.0368700000      0.7315790000     -0.3503940000
C                  0.8673720000      0.0862790000     -0.0610160000
O                  0.8314420000      4.1758490000     -0.5453360000
O                  3.1565840000      2.7203590000     -0.9218640000
H                 -1.6493950000      3.9367100000     -0.6853900000
H                 -3.8127410000      2.6833170000     -0.7171570000
H                 -3.7765050000      0.2041660000     -0.5443750000
H                 -1.6476600000     -0.9890540000     -0.2667800000
H                  2.9905190000      0.2249170000     -0.2865550000
N                  0.8331970000     -1.2573700000      0.2951520000
C                  2.0241310000     -2.0638480000      0.0571290000
C                  0.1501650000     -1.6385610000      1.5390550000
H                  2.3907860000     -1.9012220000     -0.9563660000
H                  1.7526880000     -3.1160450000      0.1634470000
H                  2.8349550000     -1.8473200000      0.7683490000
H                 -0.6601090000     -0.9526790000      1.7690660000
H                  0.8564160000     -1.6225690000      2.3810010000
H                 -0.2554190000     -2.6493710000      1.4475670000
$end
$rem
MAX_SCF_CYCLES=200
BASIS  =  6-311++G(d,p)
GUI  =  2
JOB_TYPE  =  SP
METHOD  =  B3LYP
SOLVENT_METHOD = COSMO
$end
$solvent
dielectric 37.219
opticaldielectric 1.43
$end

--------------------------------------------------------------

             Standard Nuclear Orientation (Angstroms)
    I     Atom           X                Y                Z
 ----------------------------------------------------------------
    1      C       2.5096280377     0.9515160841     0.0828765068
    2      C       2.3963686938     2.3196304551    -0.1381814476
    3      C       1.1391519148     2.8699012813    -0.3796898324
    4      C       1.3755773297     0.1371941102     0.0932742596
    5      C       0.0921520963     0.6956903475    -0.0864121123
    6      C       0.0010045415     2.0664799990    -0.3594664931
    7      C       1.5576982710    -1.3391199045     0.1903953462
    8      C       0.3172564621    -2.2163243064    -0.1181650710
    9      C      -0.9647090260    -1.5413386106    -0.1763689711
   10      C      -1.1083696087    -0.1859628882    -0.0753958216
   11      O       2.6195855040    -1.8505422772     0.4649427274
   12      O       0.4462557548    -3.4235950647    -0.2196392794
   13      H       3.4754230422     0.4824052116     0.2277657308
   14      H       3.2803601165     2.9464689702    -0.1496058617
   15      H       1.0406691491     3.9281389497    -0.5939759444
   16      H      -0.9615967359     2.5055944227    -0.5833749665
   17      H      -1.8239150298    -2.1969180123    -0.2233679750
   18      N      -2.3568647333     0.4260155776    -0.0628064838
   19      C      -3.5140071799    -0.3605885870    -0.4722704648
   20      C      -2.6783997046     1.3464618195     1.0365241957
   21      H      -3.3032392140    -0.8787393965    -1.4077659609
   22      H      -4.3519337588     0.3205032810    -0.6338138395
   23      H      -3.8164219565    -1.0998628820     0.2841504775
   24      H      -1.7849113342     1.8346829594     1.4149443109
   25      H      -3.1424702165     0.7980593092     1.8682768829
   26      H      -3.3807519645     2.1094180790     0.6912643800
 ----------------------------------------------------------------

    9    -669.2532398609      6.58e-06  Convergence criterion met
 Total energy in the final basis set =     -669.2532398609
    5    -669.2761324832      8.47e-06  Convergence criterion met
 Total energy in the final basis set =     -669.2761324832

                    Orbital Energies (a.u.)
 --------------------------------------------------------------

 Alpha MOs
 -- Occupied --
-19.1426 -19.1238 -14.3584 -10.2823 -10.2697 -10.2545 -10.2166 -10.2050
-10.2040 -10.2006 -10.1968 -10.1965 -10.1959 -10.1928 -10.1802  -1.0821
 -1.0503  -0.9721  -0.8886  -0.8253  -0.7817  -0.7634  -0.7247  -0.7197
 -0.6631  -0.6391  -0.6189  -0.5844  -0.5458  -0.5286  -0.5205  -0.4871
 -0.4824  -0.4758  -0.4636  -0.4588  -0.4510  -0.4500  -0.4372  -0.4216
 -0.4109  -0.4021  -0.3973  -0.3903  -0.3850  -0.3759  -0.3639  -0.3352
 -0.3130  -0.2793  -0.2686  -0.2598  -0.2359

          Ground-State Mulliken Net Atomic Charges

     Atom                 Charge (a.u.)
  ----------------------------------------
      1 C                     0.104749
      2 C                    -0.539403
      3 C                    -0.170949
      4 C                     0.417765
      5 C                     0.238640
      6 C                     0.001223
      7 C                    -0.188262
      8 C                    -0.003425
      9 C                     0.018862
     10 C                    -0.792601
     11 O                    -0.313693
     12 O                    -0.389164
     13 H                     0.213594
     14 H                     0.222546
     15 H                     0.233565
     16 H                     0.224874
     17 H                     0.226731
     18 N                     0.215514
     19 C                    -0.359333
     20 C                    -0.445417
     21 H                     0.179783
     22 H                     0.182901
     23 H                     0.186239
     24 H                     0.141889
     25 H                     0.180385
     26 H                     0.212985
  ----------------------------------------
  Sum of atomic charges =     0.000000

                    Cartesian Multipole Moments
 -----------------------------------------------------------------
    Charge (ESU x 10^10)
                 0.0000
    Dipole Moment (Debye)
         X      -6.7533      Y      10.4623      Z       0.1012
       Tot      12.4530
    Quadrupole Moments (Debye-Ang)
        XX     -75.8266     XY      13.5149     YY    -103.9604
        XZ      -3.1862     YZ       0.1316     ZZ     -88.6053

 Total job time:  40.93s(wall), 298.34s(cpu)
        *  Thank you very much for using Q-Chem.  Have a nice day.  *
