 Gaussian 16, Revision A.03,
 Gaussian 16:  ES64L-G16RevA.03 25-Dec-2016

 ----------------------------------------------------------------------
 #P UB3LYP/6-311++G(d,p) nosym opt freq SCRF=(PCM,Solvent=n,n-DiMethylF
 ormamide)
 ----------------------------------------------------------------------

 -------
 Radical
 -------
 Symbolic Z-matrix:
 Charge = -1 Multiplicity = 2

 SCF Done:  E(UB3LYP) =  -910.606363242     A.U. after   17 cycles
 SCF Done:  E(UB3LYP) =  -910.606754483     A.U. after   14 cycles
 SCF Done:  E(UB3LYP) =  -910.606906187     A.U. after   12 cycles
 SCF Done:  E(UB3LYP) =  -910.606938337     A.U. after   12 cycles
 SCF Done:  E(UB3LYP) =  -910.606946930     A.U. after   11 cycles
 SCF Done:  E(UB3LYP) =  -910.606950386     A.U. after   12 cycles
 SCF Done:  E(UB3LYP) =  -910.606950859     A.U. after   11 cycles
 SCF Done:  E(UB3LYP) =  -910.606951798     A.U. after   11 cycles
 SCF Done:  E(UB3LYP) =  -910.606952003     A.U. after   10 cycles
 SCF Done:  E(UB3LYP) =  -910.606952035     A.U. after    9 cycles
 SCF Done:  E(UB3LYP) =  -910.606952068     A.U. after    8 cycles
 Optimization completed.
    -- Stationary point found.
 Normal termination of Gaussian 16 at Sat Feb 10 17:45:29 2024.

 ----------------------------------------------------------------------
 #P Geom=AllCheck Guess=TCheck SCRF=Check GenChk UB3LYP/6-311++G(d,p) F
 req
 ----------------------------------------------------------------------

 Structure from the checkpoint file:  "169-rad.chk"
 -------
 Radical
 -------
 Charge = -1 Multiplicity = 2

                          Input orientation:
 ---------------------------------------------------------------------
 Center     Atomic      Atomic             Coordinates (Angstroms)
 Number     Number       Type             X           Y           Z
 ---------------------------------------------------------------------
      1          7           0       -3.444623    1.585610    0.599231
      2          6           0       -2.851279    0.348342    0.346085
      3          6           0       -3.672638   -0.778481    0.282309
      4          6           0       -3.149032   -2.051071    0.086557
      5          6           0       -1.774411   -2.267443   -0.022665
      6          7           0       -1.327049   -3.565350   -0.273155
      7          6           0       -0.884839   -1.146015    0.065092
      8          6           0        0.556088   -1.343916    0.047393
      9          8           0        1.047993   -2.533440   -0.003925
     10          6           0        1.436442   -0.186774    0.087329
     11          6           0        2.860467   -0.356182    0.104756
     12          7           0        3.468447   -1.605641    0.231353
     13          6           0        3.677335    0.774455    0.051401
     14          6           0        3.143506    2.055761   -0.020376
     15          6           0        1.765041    2.275254   -0.010509
     16          7           0        1.303266    3.585515   -0.141168
     17          6           0        0.881984    1.148260    0.071703
     18          6           0       -0.555648    1.343313    0.175857
     19          8           0       -1.047249    2.532441    0.237575
     20          6           0       -1.433208    0.183852    0.208777
     21          1           0       -2.831456    2.367087    0.382707
     22          1           0       -4.403195    1.668996    0.291388
     23          1           0       -4.745834   -0.650763    0.387167
     24          1           0       -3.820139   -2.901905    0.017591
     25          1           0       -1.934227   -4.297753    0.066792
     26          1           0       -0.334165   -3.680812   -0.087646
     27          1           0        4.400780   -1.666509   -0.152853
     28          1           0        2.838718   -2.373199    0.012684
     29          1           0        4.755061    0.642766    0.065686
     30          1           0        3.809345    2.911083   -0.084629
     31          1           0        0.327667    3.686710    0.126079
     32          1           0        1.936851    4.295811    0.197422
 ---------------------------------------------------------------------

 SCF Done:  E(UB3LYP) =  -910.606952068     A.U. after    1 cycles

 Alpha  occ. eigenvalues --  -19.06946 -19.06944 -14.29641 -14.29640 -14.29638
 Alpha  occ. eigenvalues --  -14.29637 -10.22300 -10.22299 -10.20383 -10.20382
 Alpha  occ. eigenvalues --  -10.20380 -10.20378 -10.16881 -10.16879 -10.16842
 Alpha  occ. eigenvalues --  -10.16842 -10.16042 -10.16042 -10.15987 -10.15987
 Alpha  occ. eigenvalues --   -0.99656  -0.99365  -0.91058  -0.90458  -0.90021
 Alpha  occ. eigenvalues --   -0.89460  -0.82859  -0.80876  -0.77369  -0.73515
 Alpha  occ. eigenvalues --   -0.71825  -0.70248  -0.65770  -0.63030  -0.62913
 Alpha  occ. eigenvalues --   -0.57625  -0.55515  -0.55439  -0.53152  -0.51267
 Alpha  occ. eigenvalues --   -0.50404  -0.49231  -0.47595  -0.47575  -0.46989
 Alpha  occ. eigenvalues --   -0.45797  -0.44174  -0.43355  -0.42802  -0.42132
 Alpha  occ. eigenvalues --   -0.40256  -0.40144  -0.38721  -0.38544  -0.38260
 Alpha  occ. eigenvalues --   -0.37716  -0.36471  -0.36235  -0.35035  -0.34689
 Alpha  occ. eigenvalues --   -0.33585  -0.32377  -0.27732  -0.26298  -0.25527
 Alpha  occ. eigenvalues --   -0.24229  -0.24105  -0.23251  -0.19936  -0.17859
 Alpha  occ. eigenvalues --   -0.12481
 Alpha virt. eigenvalues --   -0.03144  -0.02018  -0.00238   0.00343   0.00592
 Alpha virt. eigenvalues --    0.01628   0.01898   0.02318   0.03441   0.03486
 Alpha virt. eigenvalues --    0.04062   0.04297   0.05018   0.05920   0.06235

  Beta  occ. eigenvalues --  -19.06538 -19.06536 -14.29584 -14.29583 -14.29581
  Beta  occ. eigenvalues --  -14.29580 -10.22116 -10.22115 -10.20342 -10.20341
  Beta  occ. eigenvalues --  -10.20338 -10.20336 -10.16878 -10.16877 -10.16839
  Beta  occ. eigenvalues --  -10.16839 -10.15934 -10.15933 -10.15877 -10.15877
  Beta  occ. eigenvalues --   -0.98964  -0.98649  -0.90924  -0.90263  -0.89900
  Beta  occ. eigenvalues --   -0.89301  -0.82645  -0.80715  -0.77001  -0.73367
  Beta  occ. eigenvalues --   -0.71477  -0.70043  -0.65187  -0.62803  -0.62713
  Beta  occ. eigenvalues --   -0.57506  -0.55287  -0.55268  -0.53101  -0.51201
  Beta  occ. eigenvalues --   -0.50315  -0.49101  -0.47503  -0.47466  -0.46714
  Beta  occ. eigenvalues --   -0.45712  -0.44056  -0.43223  -0.42672  -0.41340
  Beta  occ. eigenvalues --   -0.40154  -0.39723  -0.38535  -0.38131  -0.38111
  Beta  occ. eigenvalues --   -0.36504  -0.36338  -0.35985  -0.34552  -0.33820
  Beta  occ. eigenvalues --   -0.33221  -0.31359  -0.26847  -0.25762  -0.24217
  Beta  occ. eigenvalues --   -0.23912  -0.23741  -0.22888  -0.18692  -0.17081
  Beta virt. eigenvalues --   -0.07644  -0.01863  -0.01029  -0.00206   0.00354
  Beta virt. eigenvalues --    0.00614   0.01644   0.01919   0.02658   0.03469
  Beta virt. eigenvalues --    0.03519   0.04083   0.04463   0.05459   0.06097

 Mulliken charges and spin densities:
               1          2
     1  N   -0.428252   0.024665
     2  C   -0.174026   0.043993
     3  C   -0.344230   0.087741
     4  C   -0.343404   0.087491
     5  C   -0.179116   0.043903
     6  N   -0.427733   0.024573
     7  C    0.532205  -0.011062
     8  C   -0.646655   0.087126
     9  O   -0.492811   0.142846
    10  C    0.533177  -0.011241
    11  C   -0.173366   0.044130
    12  N   -0.428417   0.024759
    13  C   -0.345239   0.087665
    14  C   -0.344947   0.087646
    15  C   -0.178737   0.043851
    16  N   -0.427873   0.024647
    17  C    0.530776  -0.011115
    18  C   -0.646559   0.086985
    19  O   -0.492736   0.142822
    20  C    0.535193  -0.011038
    21  H    0.314331  -0.002398
    22  H    0.256204  -0.001001
    23  H    0.165277  -0.006717
    24  H    0.165128  -0.006704
    25  H    0.255910  -0.000981
    26  H    0.314319  -0.002377
    27  H    0.256341  -0.001007
    28  H    0.314257  -0.002401
    29  H    0.165305  -0.006715
    30  H    0.165270  -0.006719
    31  H    0.314308  -0.002379
    32  H    0.256099  -0.000987
 Sum of Mulliken charges =  -1.00000   1.00000

 Dipole moment (field-independent basis, Debye):
    X=              0.0035    Y=              0.0091    Z=             -0.5589  Tot=              0.5589
 Quadrupole moment (field-independent basis, Debye-Ang):
   XX=           -113.5092   YY=           -132.3253   ZZ=           -131.3688
   XY=              9.4578   XZ=             -0.3771   YZ=             -0.3828

  Exact polarizability: 601.268  59.925 481.950 -14.695   7.964 165.888
 Approx polarizability: 626.464  41.048 545.058 -15.439   9.990 188.191

                      1                      2                      3
                      A                      A                      A
 Frequencies --     33.2094                48.5520                89.4791
 Red. masses --      7.1335                 5.0796                 8.5005
 Frc consts  --      0.0046                 0.0071                 0.0401
 IR Inten    --     13.8939                 0.0011                 0.1421

                      4                      5                      6
                      A                      A                      A
 Frequencies --    114.3217               122.0338               185.5848
 Red. masses --      4.3335                 4.4668                 6.7388
 Frc consts  --      0.0334                 0.0392                 0.1367
 IR Inten    --      4.3855                 6.5515                 5.7374

                      7                      8                      9
                      A                      A                      A
 Frequencies --    222.8452               261.0562               311.4809
 Red. masses --      5.3817                 4.4164                 5.3528
 Frc consts  --      0.1575                 0.1773                 0.3060
 IR Inten    --     13.1160                27.5088                 4.5779

                     10                     11                     12
                      A                      A                      A
 Frequencies --    313.4626               335.5023               340.5736
 Red. masses --      5.0352                 3.3937                 3.3578
 Frc consts  --      0.2915                 0.2251                 0.2295
 IR Inten    --      0.0392                 4.0698                27.5916

                     13                     14                     15
                      A                      A                      A
 Frequencies --    364.9037               402.1863               414.4834
 Red. masses --      2.7992                 1.4076                 4.3272
 Frc consts  --      0.2196                 0.1341                 0.4380
 IR Inten    --     83.6372               270.0268                86.4973

                     16                     17                     18
                      A                      A                      A
 Frequencies --    415.2131               416.4428               431.9861
 Red. masses --      1.4516                 2.7643                 1.7445
 Frc consts  --      0.1475                 0.2825                 0.1918
 IR Inten    --    486.3101                82.3300               371.0660

                     19                     20                     21
                      A                      A                      A
 Frequencies --    443.4749               453.1545               459.2714
 Red. masses --      1.9634                 3.8436                 3.8180
 Frc consts  --      0.2275                 0.4650                 0.4745
 IR Inten    --     11.1582                 5.7078                61.1023

                     22                     23                     24
                      A                      A                      A
 Frequencies --    463.1640               470.0599               473.2322
 Red. masses --      3.0848                 5.4859                 3.4295
 Frc consts  --      0.3899                 0.7142                 0.4525
 IR Inten    --      1.0441                 5.0917                53.0234

                     25                     26                     27
                      A                      A                      A
 Frequencies --    504.6599               505.8117               539.9316
 Red. masses --      4.4702                 4.7766                 5.8675
 Frc consts  --      0.6708                 0.7200                 1.0078
 IR Inten    --      1.0059               153.0730                 0.0473

                     28                     29                     30
                      A                      A                      A
 Frequencies --    557.6516               579.8270               620.0856
 Red. masses --      3.2563                 3.0259                 2.4792
 Frc consts  --      0.5966                 0.5994                 0.5617
 IR Inten    --     77.8639               214.4723               128.5124

                     31                     32                     33
                      A                      A                      A
 Frequencies --    649.5414               673.9493               683.9490
 Red. masses --      3.8752                 1.4347                 1.4484
 Frc consts  --      0.9633                 0.3839                 0.3992
 IR Inten    --      0.7618               538.6000               207.4361

                     34                     35                     36
                      A                      A                      A
 Frequencies --    687.8122               690.5001               724.3235
 Red. masses --      1.5948                 1.3694                 4.9581
 Frc consts  --      0.4445                 0.3847                 1.5326
 IR Inten    --    407.8297               189.4806                 9.0662

                     37                     38                     39
                      A                      A                      A
 Frequencies --    747.5378               761.8892               765.2485
 Red. masses --      5.5810                 3.3563                 4.5513
 Frc consts  --      1.8375                 1.1479                 1.5703
 IR Inten    --      0.0650                 9.7590                 3.0266

                     40                     41                     42
                      A                      A                      A
 Frequencies --    793.5077               814.1837               814.2991
 Red. masses --      9.9526                 7.2714                 1.6945
 Frc consts  --      3.6922                 2.8400                 0.6620
 IR Inten    --      7.4242               126.2317                 6.6053

                     43                     44                     45
                      A                      A                      A
 Frequencies --    815.8374               860.9269               908.8900
 Red. masses --      1.8516                 5.0121                 1.3410
 Frc consts  --      0.7261                 2.1888                 0.6527
 IR Inten    --    140.9784                51.0121                 1.3469

                     46                     47                     48
                      A                      A                      A
 Frequencies --    909.4016               958.8324               960.8871
 Red. masses --      1.3335                 5.0649                 6.9893
 Frc consts  --      0.6498                 2.7435                 3.8021
 IR Inten    --      0.0483                 0.5501               317.5218

                     49                     50                     51
                      A                      A                      A
 Frequencies --    992.8796              1065.2305              1126.7162
 Red. masses --      3.6913                 1.7683                 1.5100
 Frc consts  --      2.1440                 1.1822                 1.1295
 IR Inten    --      0.0038                24.8916               379.2953

                     52                     53                     54
                      A                      A                      A
 Frequencies --   1136.2833              1147.2562              1164.3367
 Red. masses --      1.9761                 1.3338                 1.6043
 Frc consts  --      1.5032                 1.0343                 1.2814
 IR Inten    --      0.1459                 5.3172               362.5239

                     55                     56                     57
                      A                      A                      A
 Frequencies --   1191.6382              1219.0422              1236.9353
 Red. masses --      1.1563                 3.1602                 3.3990
 Frc consts  --      0.9674                 2.7669                 3.0640
 IR Inten    --      0.0076               139.3173               211.9325

                     58                     59                     60
                      A                      A                      A
 Frequencies --   1250.9156              1282.8542              1284.2422
 Red. masses --      4.8984                 2.9973                 5.8449
 Frc consts  --      4.5161                 2.9062                 5.6796
 IR Inten    --     26.3142                 0.6724                 0.0139

                     61                     62                     63
                      A                      A                      A
 Frequencies --   1306.0523              1342.1417              1346.3534
 Red. masses --      2.1420                 7.9506                 5.9111
 Frc consts  --      2.1527                 8.4381                 6.3130
 IR Inten    --      2.1618                 0.2763               307.6951

                     64                     65                     66
                      A                      A                      A
 Frequencies --   1389.8367              1396.2086              1396.9174
 Red. masses --      6.5396                 2.5713                 4.1620
 Frc consts  --      7.4427                 2.9533                 4.7851
 IR Inten    --      0.0098              1360.1777               133.6728

                     67                     68                     69
                      A                      A                      A
 Frequencies --   1423.1593              1465.6263              1487.8356
 Red. masses --      3.2750                 3.2268                 2.9458
 Frc consts  --      3.9081                 4.0839                 3.8421
 IR Inten    --    164.5448                 7.6286                 0.0274

                     70                     71                     72
                      A                      A                      A
 Frequencies --   1497.0159              1552.0677              1563.7817
 Red. masses --      4.2637                 1.2898                 1.1881
 Frc consts  --      5.6297                 1.8307                 1.7118
 IR Inten    --   2087.9996                 0.6622                 9.9844

                     73                     74                     75
                      A                      A                      A
 Frequencies --   1587.1528              1587.3341              1595.7061
 Red. masses --      4.4475                 2.2038                 3.4736
 Frc consts  --      6.6009                 3.2715                 5.2112
 IR Inten    --     34.4678               481.0608              1287.7543

                     76                     77                     78
                      A                      A                      A
 Frequencies --   1597.9577              1600.4804              1635.8829
 Red. masses --      1.2955                 1.8191                 7.3114
 Frc consts  --      1.9490                 2.7454                11.5281
 IR Inten    --      3.8943                 1.0808                 0.0030

                     79                     80                     81
                      A                      A                      A
 Frequencies --   3143.4616              3143.7540              3160.6664
 Red. masses --      1.0860                 1.0861                 1.0943
 Frc consts  --      6.3226                 6.3245                 6.4407
 IR Inten    --     84.6136                20.5977               109.3831

                     82                     83                     84
                      A                      A                      A
 Frequencies --   3161.0253              3434.8280              3435.5248
 Red. masses --      1.0942                 1.0566                 1.0568
 Frc consts  --      6.4416                 7.3448                 7.3488
 IR Inten    --     13.0313                32.9433               412.9765

                     85                     86                     87
                      A                      A                      A
 Frequencies --   3441.6774              3441.9806              3619.4289
 Red. masses --      1.0566                 1.0564                 1.0911
 Frc consts  --      7.3740                 7.3739                 8.4219
 IR Inten    --     11.6101                64.9182                98.2031

                     88                     89                     90
                      A                      A                      A
 Frequencies --   3620.0408              3620.7064              3620.9821
 Red. masses --      1.0910                 1.0914                 1.0913
 Frc consts  --      8.4233                 8.4300                 8.4307
 IR Inten    --    139.4787                12.8563                54.3755

 - Thermochemistry -
 -------------------
 Temperature   298.150 Kelvin.  Pressure   1.00000 Atm.
 Atom     1 has atomic number  7 and mass  14.00307

 Molecular mass:   268.09603 amu.
 Principal axes and moments of inertia in atomic units:
                           1         2         3
     Eigenvalues --  3478.579855563.796668995.61651
           X            0.92353  -0.38162   0.03812
           Y            0.38284   0.92325  -0.03229
           Z           -0.02287   0.04441   0.99875
 This molecule is an asymmetric top.
 Rotational symmetry number  1.
 Warning -- assumption of classical behavior for rotation
           may cause significant error
 Rotational temperatures (Kelvin)      0.02490     0.01557     0.00963
 Rotational constants (GHZ):           0.51882     0.32437     0.20062
 Zero-point vibrational energy     638979.8 (Joules/Mol)
                                  152.71983 (Kcal/Mol)
 Warning -- explicit consideration of  30 degrees of freedom as
           vibrations may cause significant error
 Vibrational temperatures:     47.78    69.86   128.74   164.48   175.58
          (Kelvin)            267.02   320.62   375.60   448.15   451.00
                              482.71   490.01   525.01   578.66   596.35
                              597.40   599.17   621.53   638.06   651.99
                              660.79   666.39   676.31   680.88   726.09
                              727.75   776.84   802.34   834.24   892.16
                              934.55   969.66   984.05   989.61   993.48
                             1042.14  1075.54  1096.19  1101.02  1141.68
                             1171.43  1171.59  1173.81  1238.68  1307.69
                             1308.43  1379.55  1382.50  1428.53  1532.63
                             1621.09  1634.86  1650.65  1675.22  1714.50
                             1753.93  1779.67  1799.79  1845.74  1847.74
                             1879.12  1931.04  1937.10  1999.66  2008.83
                             2009.85  2047.61  2108.71  2140.66  2153.87
                             2233.08  2249.93  2283.56  2283.82  2295.87
                             2299.10  2302.73  2353.67  4522.74  4523.16
                             4547.49  4548.01  4941.95  4942.95  4951.81
                             4952.24  5207.55  5208.43  5209.39  5209.79

 Zero-point correction=                           0.243375 (Hartree/Particle)
 Thermal correction to Energy=                    0.259583
 Thermal correction to Enthalpy=                  0.260527
 Thermal correction to Gibbs Free Energy=         0.199960
 Sum of electronic and zero-point Energies=           -910.363578
 Sum of electronic and thermal Energies=              -910.347369
 Sum of electronic and thermal Enthalpies=            -910.346425
 Sum of electronic and thermal Free Energies=         -910.406993

                     E (Thermal)             CV                S
                      KCal/Mol        Cal/Mol-Kelvin    Cal/Mol-Kelvin
 Total                  162.891             67.714            127.475
 Electronic               0.000              0.000              1.377
 Translational            0.889              2.981             42.658
 Rotational               0.889              2.981             33.520
 Vibrational            161.113             61.752             49.920
 Vibration     1          0.594              1.983              5.628
 Vibration     2          0.595              1.978              4.876
 Vibration     3          0.602              1.957              3.671
 Vibration     4          0.607              1.938              3.194
 Vibration     5          0.610              1.931              3.068
 Vibration     6          0.632              1.860              2.271
 Vibration     7          0.649              1.806              1.936
 Vibration     8          0.669              1.744              1.655
 Vibration     9          0.700              1.652              1.354
 Vibration    10          0.701              1.648              1.344
 Vibration    11          0.717              1.605              1.233
 Vibration    12          0.720              1.594              1.209
 Vibration    13          0.738              1.544              1.101
 Vibration    14          0.768              1.465              0.955
 Vibration    15          0.778              1.439              0.911
 Vibration    16          0.779              1.437              0.908
 Vibration    17          0.780              1.435              0.904
 Vibration    18          0.793              1.401              0.852
 Vibration    19          0.803              1.375              0.816
 Vibration    20          0.812              1.354              0.786
 Vibration    21          0.817              1.340              0.768
 Vibration    22          0.821              1.332              0.757
 Vibration    23          0.827              1.316              0.737
 Vibration    24          0.830              1.309              0.729
 Vibration    25          0.860              1.240              0.647
 Vibration    26          0.861              1.237              0.644
 Vibration    27          0.895              1.162              0.565
 Vibration    28          0.913              1.123              0.529
 Vibration    29          0.936              1.075              0.486
 Vibration    30          0.980              0.990              0.416

                           ! Non-Optimized Parameters !
 Normal termination of Gaussian 16 at Sat Feb 10 18:48:00 2024.
