 Gaussian 16, Revision A.03,
 Gaussian 16:  ES64L-G16RevA.03 25-Dec-2016

 ----------------------------------------------------------------
 #P UB3LYP/6-311++G(d,p) SCRF=(PCM,Solvent=n,n-DiMethylFormamide)
 ----------------------------------------------------------------

 ------------------
 Radical PCM in DMF
 ------------------
 Symbolic Z-matrix:
 Charge = -1 Multiplicity = 2

                         Standard orientation:
 ---------------------------------------------------------------------
 Center     Atomic      Atomic             Coordinates (Angstroms)
 Number     Number       Type             X           Y           Z
 ---------------------------------------------------------------------
      1          6           0        2.030599   -1.996787    0.047747
      2          6           0        3.362537   -1.653970    0.094708
      3          6           0        3.705309   -0.282713    0.126647
      4          6           0        1.015474   -1.013528    0.023403
      5          6           0        1.380912    0.362777    0.057264
      6          6           0        2.745537    0.708219    0.112916
      7          6           0       -0.384246   -1.439048   -0.033237
      8          6           0       -1.380933   -0.362648   -0.057616
      9          6           0       -1.015528    1.013663   -0.023899
     10          6           0        0.384278    1.439200    0.032729
     11          6           0       -2.745550   -0.708079   -0.113014
     12          6           0       -2.030584    1.996911   -0.048322
     13          6           0       -3.362575    1.654092   -0.095151
     14          8           0       -0.710703   -2.645942   -0.054922
     15          8           0        0.710662    2.646068    0.054420
     16          1           0        1.720541   -3.034692    0.029303
     17          1           0       -4.139561    2.407302   -0.122102
     18          1           0        3.010216    1.757413    0.151419
     19          1           0       -3.010205   -1.757292   -0.151330
     20          1           0       -1.720531    3.034820   -0.030050
     21          6           0       -3.705297    0.282900   -0.126754
     22         16           0        5.427604    0.173181    0.131673
     23          1           0        4.139531   -2.407179    0.121490
     24         16           0       -5.427640   -0.173202   -0.131276
     25          8           0       -5.554000   -1.571191   -0.552526
     26          8           0       -6.227543    0.866418   -0.786274
     27          7           0       -5.844602   -0.034096    1.522760
     28          1           0       -5.631805   -0.902332    2.006887
     29          1           0       -6.840668    0.163254    1.575095
     30          8           0        5.553910    1.571354    0.552315
     31          8           0        6.227295   -0.866103    0.787480
     32          7           0        5.845154    0.032932   -1.521923
     33          1           0        6.841338   -0.163714   -1.574073
     34          1           0        5.631292    0.900156   -2.007330
 ---------------------------------------------------------------------

 SCF Done:  E(UB3LYP) =  -1897.15403593     A.U. after   18 cycles

 The electronic state is 2-A.
 Alpha  occ. eigenvalues --  -89.07990 -89.07989 -19.13351 -19.13349 -19.13313
 Alpha  occ. eigenvalues --  -19.13311 -19.09154 -19.09153 -14.34750 -14.34748
 Alpha  occ. eigenvalues --  -10.24113 -10.24111 -10.22193 -10.22192 -10.20016
 Alpha  occ. eigenvalues --  -10.20015 -10.19743 -10.19743 -10.19330 -10.19329
 Alpha  occ. eigenvalues --  -10.19276 -10.19276 -10.18864 -10.18863  -8.14171
 Alpha  occ. eigenvalues --   -8.14170  -6.10451  -6.10450  -6.10428  -6.10428
 Alpha  occ. eigenvalues --   -6.10246  -6.10246  -1.13560  -1.13559  -1.02632
 Alpha  occ. eigenvalues --   -1.02630  -1.02156  -1.01907  -0.91528  -0.91524
 Alpha  occ. eigenvalues --   -0.88693  -0.87979  -0.81716  -0.78493  -0.77657
 Alpha  occ. eigenvalues --   -0.77123  -0.70684  -0.70182  -0.66051  -0.65303
 Alpha  occ. eigenvalues --   -0.61470  -0.60953  -0.57872  -0.56509  -0.55266
 Alpha  occ. eigenvalues --   -0.54205  -0.53051  -0.52716  -0.51885  -0.51168
 Alpha  occ. eigenvalues --   -0.49542  -0.48933  -0.48323  -0.47329  -0.46400
 Alpha  occ. eigenvalues --   -0.44946  -0.44755  -0.44332  -0.43938  -0.43156
 Alpha  occ. eigenvalues --   -0.42896  -0.41591  -0.39635  -0.39251  -0.38865
 Alpha  occ. eigenvalues --   -0.37725  -0.37582  -0.37393  -0.36470  -0.35841
 Alpha  occ. eigenvalues --   -0.34862  -0.34782  -0.33646  -0.33605  -0.32624
 Alpha  occ. eigenvalues --   -0.32538  -0.30577  -0.30574  -0.28421  -0.27981
 Alpha  occ. eigenvalues --   -0.27638  -0.26974  -0.26161  -0.25267  -0.15950
 Alpha virt. eigenvalues --   -0.07899  -0.05361  -0.02987  -0.01173  -0.00846
 Alpha virt. eigenvalues --    0.00458   0.00995   0.01119   0.02146   0.02375
 Alpha virt. eigenvalues --    0.03292   0.03325   0.03887   0.04203   0.04471

  Beta  occ. eigenvalues --  -89.07990 -89.07990 -19.13346 -19.13344 -19.13312
  Beta  occ. eigenvalues --  -19.13310 -19.08584 -19.08583 -14.34747 -14.34745
  Beta  occ. eigenvalues --  -10.23978 -10.23976 -10.22149 -10.22148 -10.20037
  Beta  occ. eigenvalues --  -10.20036 -10.19661 -10.19660 -10.19252 -10.19251
  Beta  occ. eigenvalues --  -10.19163 -10.19162 -10.18880 -10.18879  -8.14171
  Beta  occ. eigenvalues --   -8.14170  -6.10449  -6.10449  -6.10428  -6.10427
  Beta  occ. eigenvalues --   -6.10247  -6.10247  -1.13550  -1.13550  -1.02625
  Beta  occ. eigenvalues --   -1.02623  -1.01182  -1.00907  -0.91515  -0.91513
  Beta  occ. eigenvalues --   -0.88456  -0.87865  -0.81321  -0.78301  -0.77530
  Beta  occ. eigenvalues --   -0.76905  -0.70551  -0.69650  -0.65737  -0.65120
  Beta  occ. eigenvalues --   -0.61325  -0.60899  -0.57673  -0.56417  -0.55096
  Beta  occ. eigenvalues --   -0.54120  -0.53022  -0.52679  -0.51837  -0.51123
  Beta  occ. eigenvalues --   -0.49309  -0.48850  -0.48154  -0.47288  -0.46366
  Beta  occ. eigenvalues --   -0.44916  -0.44715  -0.44240  -0.42875  -0.42723
  Beta  occ. eigenvalues --   -0.42473  -0.41273  -0.38962  -0.38682  -0.37677
  Beta  occ. eigenvalues --   -0.37496  -0.37384  -0.37289  -0.35671  -0.35518
  Beta  occ. eigenvalues --   -0.34799  -0.34754  -0.33614  -0.33576  -0.32585
  Beta  occ. eigenvalues --   -0.32515  -0.30483  -0.30218  -0.27680  -0.26805
  Beta  occ. eigenvalues --   -0.26408  -0.26349  -0.25633  -0.24738
  Beta virt. eigenvalues --   -0.10134  -0.07089  -0.04283  -0.02770  -0.01162
  Beta virt. eigenvalues --   -0.00842   0.00810   0.01129   0.01266   0.02157
  Beta virt. eigenvalues --    0.02415   0.03352   0.03355   0.03921   0.04276

 Mulliken charges and spin densities:
               1          2
     1  C   -0.075102   0.008288
     2  C   -0.405330   0.070172
     3  C   -0.245372   0.019633
     4  C    0.562413   0.067109
     5  C    0.135362   0.046205
     6  C    0.000496   0.002628
     7  C   -0.620627   0.074545
     8  C    0.135060   0.046124
     9  C    0.562576   0.067055
    10  C   -0.620737   0.074478
    11  C   -0.000063   0.002696
    12  C   -0.074957   0.008257
    13  C   -0.405461   0.070163
    14  O   -0.405840   0.211799
    15  O   -0.405768   0.211715
    16  H    0.173304  -0.000646
    17  H    0.254578  -0.004456
    18  H    0.234369  -0.000402
    19  H    0.234385  -0.000408
    20  H    0.173320  -0.000644
    21  C   -0.244699   0.019572
    22  S    0.273554   0.004911
    23  H    0.254598  -0.004456
    24  S    0.273497   0.004895
    25  O   -0.260036   0.001775
    26  O   -0.321755  -0.002033
    27  N   -0.434614   0.000092
    28  H    0.306345  -0.000197
    29  H    0.328333   0.000749
    30  O   -0.259883   0.001775
    31  O   -0.321835  -0.002035
    32  N   -0.434754   0.000087
    33  H    0.328343   0.000750
    34  H    0.306303  -0.000197
 Sum of Mulliken charges =  -1.00000   1.00000

 Dipole moment (field-independent basis, Debye):
    X=             -0.0022    Y=             -0.0005    Z=             -0.0028  Tot=              0.0036
 Quadrupole moment (field-independent basis, Debye-Ang):
   XX=           -219.3344   YY=           -189.1854   ZZ=           -155.2431
   XY=             -8.6788   XZ=            -50.0769   YZ=             -7.5060

 Normal termination of Gaussian 16 at Tue Jan 16 06:06:35 2024.
