 Q-Chem 5.4, Q-Chem, Inc., Pleasanton, CA (2021)
 Q-Chem 5.4.0 for Intel X86 EM64T Linux

User input:
--------------------------------------------------------------
$molecule
0 1
C                 -0.2269580000      1.0002560000      0.1305530000
C                 -1.4150690000      0.2049460000     -0.2602820000
C                 -1.3484960000     -1.1246070000     -0.3770770000
C                 -0.0836980000     -1.8523140000     -0.1236040000
C                  1.1447600000     -1.0646710000      0.2437410000
C                  1.0566850000      0.2798670000      0.3743530000
O                 -0.3071500000      2.2156150000      0.2281700000
O                 -0.0408030000     -3.0673540000     -0.2142460000
C                  2.2649830000      1.1307490000      0.7307730000
C                  2.1935240000      1.9484820000      1.9963720000
O                  3.2437490000      1.1100790000      0.0175540000
H                 -2.3215270000      0.7714050000     -0.4425550000
H                 -2.1981180000     -1.7367770000     -0.6582270000
H                  1.9093390000      1.3145180000      2.8426760000
H                  1.4221240000      2.7147020000      1.8896090000
H                  3.1610390000      2.4129620000      2.1840840000
C                  2.3868310000     -1.8789240000      0.4448860000
H                  2.7090780000     -2.3009510000     -0.5121400000
H                  2.1748640000     -2.7285270000      1.0977360000
H                  3.2082310000     -1.2912150000      0.8467040000
$end

$rem
BASIS  =  6-311++G(d,p)
GUI  =  2
JOB_TYPE  =  SP
METHOD  =  B3LYP
SCF_CONVERGENCE  = 8
SOLVENT_METHOD = sm12
$end

$smx
solvent dimethylformamide
charges CM5
$end

--------------------------------------------------------------

             Standard Nuclear Orientation (Angstroms)
    I     Atom           X                Y                Z
 ----------------------------------------------------------------
    1      C      -0.2269580000     1.0002560000     0.1305530000
    2      C      -1.4150690000     0.2049460000    -0.2602820000
    3      C      -1.3484960000    -1.1246070000    -0.3770770000
    4      C      -0.0836980000    -1.8523140000    -0.1236040000
    5      C       1.1447600000    -1.0646710000     0.2437410000
    6      C       1.0566850000     0.2798670000     0.3743530000
    7      O      -0.3071500000     2.2156150000     0.2281700000
    8      O      -0.0408030000    -3.0673540000    -0.2142460000
    9      C       2.2649830000     1.1307490000     0.7307730000
   10      C       2.1935240000     1.9484820000     1.9963720000
   11      O       3.2437490000     1.1100790000     0.0175540000
   12      H      -2.3215270000     0.7714050000    -0.4425550000
   13      H      -2.1981180000    -1.7367770000    -0.6582270000
   14      H       1.9093390000     1.3145180000     2.8426760000
   15      H       1.4221240000     2.7147020000     1.8896090000
   16      H       3.1610390000     2.4129620000     2.1840840000
   17      C       2.3868310000    -1.8789240000     0.4448860000
   18      H       2.7090780000    -2.3009510000    -0.5121400000
   19      H       2.1748640000    -2.7285270000     1.0977360000
   20      H       3.2082310000    -1.2912150000     0.8467040000
 ----------------------------------------------------------------

   15    -573.5736532691      8.81e-09  Convergence criterion met
 Total energy in the final basis set =     -573.5911410074

                    Orbital Energies (a.u.)
 --------------------------------------------------------------

 Alpha MOs
 -- Occupied --
-19.1434 -19.1426 -19.1323 -10.2910 -10.2876 -10.2838 -10.2303 -10.2185
-10.2124 -10.2114 -10.1770 -10.1741  -1.0761  -1.0737  -1.0664  -0.8722
 -0.8159  -0.7655  -0.7292  -0.6951  -0.6472  -0.6015  -0.5574  -0.5353
 -0.5027  -0.4883  -0.4695  -0.4674  -0.4513  -0.4481  -0.4401  -0.4345
 -0.4297  -0.4090  -0.4065  -0.4013  -0.3933  -0.3721  -0.3132  -0.2985
 -0.2937  -0.2895  -0.2642

          Ground-State Mulliken Net Atomic Charges

     Atom                 Charge (a.u.)
  ----------------------------------------
      1 C                    -1.020944
      2 C                     0.614293
      3 C                     0.642882
      4 C                    -0.817786
      5 C                     0.085038
      6 C                     0.898147
      7 O                    -0.317986
      8 O                    -0.301016
      9 C                    -0.554838
     10 C                    -0.422966
     11 O                    -0.322380
     12 H                     0.341308
     13 H                     0.336642
     14 H                     0.219788
     15 H                     0.197902
     16 H                     0.179668
     17 C                    -0.323784
     18 H                     0.203623
     19 H                     0.194545
     20 H                     0.167864
  ----------------------------------------
  Sum of atomic charges =     0.000000

                    Cartesian Multipole Moments
 -----------------------------------------------------------------
    Charge (ESU x 10^10)
                -0.0000
    Dipole Moment (Debye)
         X      -2.1042      Y      -0.6382      Z       1.8100
       Tot       2.8480
    Quadrupole Moments (Debye-Ang)
        XX     -71.8608     XY      -2.6895     YY     -83.4956
        XZ       6.8663     YZ       1.7515     ZZ     -65.3629

 Total job time:  241.49s(wall), 1692.31s(cpu)
        *  Thank you very much for using Q-Chem.  Have a nice day.  *
