 Gaussian 16, Revision A.03,
 Gaussian 16:  ES64L-G16RevA.03 25-Dec-2016

 ----------------------------------------------------------------
 #P UB3LYP/6-311++G(d,p) SCRF=(PCM,Solvent=n,n-DiMethylFormamide)
 ----------------------------------------------------------------

 ------------------
 Radical PCM in DMF
 ------------------
 Symbolic Z-matrix:
 Charge = -1 Multiplicity = 2

                         Standard orientation:
 ---------------------------------------------------------------------
 Center     Atomic      Atomic             Coordinates (Angstroms)
 Number     Number       Type             X           Y           Z
 ---------------------------------------------------------------------
      1          6           0       -4.667213   -0.262379    0.004472
      2          6           0       -3.233396    0.202809    0.014835
      3          6           0       -2.922599    1.573736    0.040388
      4          6           0       -1.617180    2.019402    0.020757
      5          6           0       -0.548843    1.102701   -0.007980
      6          6           0        0.815656    1.640828   -0.012861
      7          8           0        1.040642    2.876847   -0.015107
      8          6           0        1.900581    0.663110   -0.010004
      9          6           0        3.240799    1.108608   -0.013780
     10          6           0        4.291490    0.213562   -0.003001
     11          6           0        4.031082   -1.175232    0.013157
     12          6           0        2.728528   -1.632369    0.017857
     13          6           0        1.636914   -0.734542    0.005203
     14          6           0        0.276351   -1.268477    0.007629
     15          8           0        0.094304   -2.527155    0.042686
     16          6           0       -0.817394   -0.303006   -0.019976
     17          6           0       -2.189448   -0.734857   -0.025840
     18          7           0       -2.487686   -2.086068   -0.119832
     19          1           0       -4.920618   -0.865584    0.889077
     20          1           0       -4.887196   -0.883411   -0.873702
     21          1           0       -5.350172    0.590696   -0.007990
     22          1           0       -3.738605    2.292212    0.067481
     23          1           0       -1.374074    3.074357    0.030808
     24          1           0        3.407738    2.179623   -0.024287
     25          1           0        5.316166    0.573795   -0.006445
     26          1           0        4.856084   -1.881694    0.021158
     27          1           0        2.501540   -2.691819    0.029962
     28          1           0       -3.361592   -2.385973    0.282326
     29          1           0       -1.667008   -2.680622    0.024672
 ---------------------------------------------------------------------

 SCF Done:  E(UB3LYP) =  -783.802398858     A.U. after   19 cycles

 The electronic state is 2-A.
 Alpha  occ. eigenvalues --  -19.07679 -19.07167 -14.30259 -10.22567 -10.21986
 Alpha  occ. eigenvalues --  -10.21124 -10.17144 -10.17120 -10.17093 -10.17045
 Alpha  occ. eigenvalues --  -10.17007 -10.16913 -10.16817 -10.16817 -10.16763
 Alpha  occ. eigenvalues --  -10.16644 -10.16447 -10.15508  -1.00283  -0.99834
 Alpha  occ. eigenvalues --   -0.91191  -0.85632  -0.83541  -0.78836  -0.75340
 Alpha  occ. eigenvalues --   -0.74883  -0.72818  -0.69248  -0.65698  -0.62836
 Alpha  occ. eigenvalues --   -0.61073  -0.57911  -0.55652  -0.54283  -0.51641
 Alpha  occ. eigenvalues --   -0.49713  -0.47433  -0.46905  -0.44954  -0.44078
 Alpha  occ. eigenvalues --   -0.43552  -0.42717  -0.42215  -0.41500  -0.41295
 Alpha  occ. eigenvalues --   -0.40709  -0.39445  -0.37997  -0.37851  -0.36793
 Alpha  occ. eigenvalues --   -0.36445  -0.35014  -0.34258  -0.33846  -0.33308
 Alpha  occ. eigenvalues --   -0.30721  -0.26474  -0.25549  -0.24602  -0.24246
 Alpha  occ. eigenvalues --   -0.23531  -0.20916  -0.13682
 Alpha virt. eigenvalues --   -0.04669  -0.01760  -0.00484   0.00227   0.00657
 Alpha virt. eigenvalues --    0.01002   0.01934   0.02151   0.03526   0.03925
 Alpha virt. eigenvalues --    0.04172   0.04204   0.04806   0.05779   0.06050

  Beta  occ. eigenvalues --  -19.07178 -19.06645 -14.30241 -10.22365 -10.21803
  Beta  occ. eigenvalues --  -10.21115 -10.17113 -10.17095 -10.17041 -10.16959
  Beta  occ. eigenvalues --  -10.16901 -10.16847 -10.16817 -10.16798 -10.16696
  Beta  occ. eigenvalues --  -10.16618 -10.16454 -10.15464  -0.99407  -0.98904
  Beta  occ. eigenvalues --   -0.91099  -0.85397  -0.83397  -0.78503  -0.75135
  Beta  occ. eigenvalues --   -0.74668  -0.72634  -0.69015  -0.65091  -0.62655
  Beta  occ. eigenvalues --   -0.60869  -0.57821  -0.55426  -0.54106  -0.51478
  Beta  occ. eigenvalues --   -0.49611  -0.47240  -0.46637  -0.44877  -0.43953
  Beta  occ. eigenvalues --   -0.43435  -0.42246  -0.42168  -0.41337  -0.40369
  Beta  occ. eigenvalues --   -0.40226  -0.39244  -0.37778  -0.36693  -0.36449
  Beta  occ. eigenvalues --   -0.35583  -0.34911  -0.34119  -0.33268  -0.32700
  Beta  occ. eigenvalues --   -0.30129  -0.24864  -0.24611  -0.24147  -0.23760
  Beta  occ. eigenvalues --   -0.23055  -0.20108
  Beta virt. eigenvalues --   -0.08053  -0.03673  -0.00779  -0.00472   0.00231
  Beta virt. eigenvalues --    0.01003   0.01026   0.01945   0.02148   0.03577
  Beta virt. eigenvalues --    0.03934   0.04178   0.04224   0.05009   0.06040

 Mulliken charges and spin densities:
               1          2
     1  C   -0.452224  -0.003083
     2  C    0.626029   0.071210
     3  C   -0.823733   0.015626
     4  C   -0.162535   0.059510
     5  C    0.502831   0.035848
     6  C   -0.645665   0.104811
     7  O   -0.463381   0.195243
     8  C    0.059077   0.035573
     9  C    0.080994   0.031315
    10  C   -0.455211   0.037389
    11  C   -0.527739   0.042528
    12  C    0.146573   0.026359
    13  C    0.127320   0.031707
    14  C   -0.478899   0.113848
    15  O   -0.455828   0.183399
    16  C    0.112660   0.001837
    17  C    0.144513   0.017329
    18  N   -0.414821   0.010619
    19  H    0.170548   0.003433
    20  H    0.171097   0.003533
    21  H    0.169214   0.000129
    22  H    0.142618  -0.002294
    23  H    0.159167  -0.004005
    24  H    0.160482  -0.001615
    25  H    0.179754  -0.003012
    26  H    0.179287  -0.003542
    27  H    0.166191  -0.000717
    28  H    0.258361  -0.000786
    29  H    0.323319  -0.002193
 Sum of Mulliken charges =  -1.00000   1.00000

 Dipole moment (field-independent basis, Debye):
    X=             -3.7389    Y=             -2.6410    Z=              0.9146  Tot=              4.6681
 Quadrupole moment (field-independent basis, Debye-Ang):
   XX=           -102.1528   YY=           -138.3903   ZZ=           -113.6139
   XY=             -3.9023   XZ=             -3.0110   YZ=             -2.0890

 Normal termination of Gaussian 16 at Sun Jan 14 01:15:54 2024.
