 Gaussian 16, Revision A.03,
 Gaussian 16:  ES64L-G16RevA.03 25-Dec-2016

 --------------------------------------
 #P UB3LYP/6-311++G(d,p) nosym opt freq
 --------------------------------------

 -------
 Radical
 -------
 Symbolic Z-matrix:
 Charge = -1 Multiplicity = 2

 SCF Done:  E(UB3LYP) =  -992.970642725     A.U. after   23 cycles
 Optimization completed.
    -- Stationary point found.
 Normal termination of Gaussian 16 at Wed Dec 27 20:01:21 2023.

 ----------------------------------------------------------------------
 #P Geom=AllCheck Guess=TCheck SCRF=Check GenChk UB3LYP/6-311++G(d,p) F
 req
 ----------------------------------------------------------------------

 Structure from the checkpoint file:  "171-rad.chk"
 -------
 Radical
 -------
 Charge = -1 Multiplicity = 2

                          Input orientation:
 ---------------------------------------------------------------------
 Center     Atomic      Atomic             Coordinates (Angstroms)
 Number     Number       Type             X           Y           Z
 ---------------------------------------------------------------------
      1          6           0       -1.308268    1.907185   -4.252339
      2          6           0       -1.233244    0.530832   -4.330632
      3          6           0       -0.967403   -0.226489   -3.168894
      4          6           0       -1.124879    2.577956   -3.023000
      5          6           0       -0.858989    1.818663   -1.857886
      6          6           0       -0.783459    0.411369   -1.958588
      7          6           0       -1.206236    4.034648   -2.979840
      8          6           0       -0.659676    2.457916   -0.562368
      9          6           0       -1.021322    4.684718   -1.691119
     10          6           0       -0.763055    3.909030   -0.498885
     11          6           0       -1.065974    6.123357   -1.603154
     12          6           0       -0.805011    6.733519   -0.374918
     13          6           0       -0.561394    5.980622    0.778161
     14          6           0       -0.568192    4.587156    0.756835
     15          8           0       -1.424489    4.670831   -4.061322
     16          8           0       -0.393819    1.729365    0.449350
     17          1           0       -1.509096    2.514728   -5.126547
     18          1           0       -1.378180    0.030294   -5.283531
     19          1           0       -0.908295   -1.309324   -3.228685
     20          1           0       -0.577635   -0.143231   -1.051026
     21          1           0       -0.385876    6.503996    1.710239
     22          1           0       -0.805542    7.814036   -0.299938
     23          7           0       -1.367286    6.877633   -2.716878
     24          6           0       -1.220842    8.304959   -2.763177
     25          1           0       -1.423374    6.320993   -3.572930
     26          1           0       -0.203158    8.644771   -2.504816
     27          1           0       -1.915761    8.818564   -2.082095
     28          1           0       -1.442638    8.644981   -3.777202
     29          7           0       -0.407514    3.853492    1.925387
     30          6           0        0.159571    4.423259    3.117773
     31          6           0        0.293133    3.353877    4.199562
     32          8           0        0.895701    3.866443    5.394599
     33          1           0       -0.252431    2.859303    1.719024
     34          1           0       -0.468499    5.233295    3.511124
     35          1           0        1.159592    4.868398    2.933655
     36          1           0        0.867363    2.501120    3.814510
     37          1           0       -0.691490    2.987725    4.494162
     38          1           0        1.754997    4.228983    5.156114
 ---------------------------------------------------------------------

 SCF Done:  E(UB3LYP) =  -992.970642725     A.U. after    1 cycles

 Alpha  occ. eigenvalues --  -19.04748 -18.95221 -18.95176 -14.19198 -14.19185
 Alpha  occ. eigenvalues --  -10.13203 -10.10552 -10.10231 -10.10220 -10.09829
 Alpha  occ. eigenvalues --  -10.08995 -10.08930 -10.06085 -10.06037 -10.05415
 Alpha  occ. eigenvalues --  -10.05350 -10.05348 -10.05330 -10.05164 -10.05117
 Alpha  occ. eigenvalues --  -10.04864 -10.04746  -0.94604  -0.87957  -0.87670
 Alpha  occ. eigenvalues --   -0.81545  -0.80997  -0.74046  -0.71670  -0.66587
 Alpha  occ. eigenvalues --   -0.65365  -0.63300  -0.62519  -0.60926  -0.56845
 Alpha  occ. eigenvalues --   -0.54630  -0.54245  -0.51219  -0.50056  -0.46650
 Alpha  occ. eigenvalues --   -0.45031  -0.42834  -0.42019  -0.40958  -0.39455
 Alpha  occ. eigenvalues --   -0.38184  -0.37531  -0.35934  -0.35486  -0.34561
 Alpha  occ. eigenvalues --   -0.34182  -0.33599  -0.32461  -0.31356  -0.30782
 Alpha  occ. eigenvalues --   -0.30347  -0.29777  -0.29609  -0.29122  -0.27878
 Alpha  occ. eigenvalues --   -0.27322  -0.26156  -0.25907  -0.25514  -0.25393
 Alpha  occ. eigenvalues --   -0.24611  -0.23206  -0.22233  -0.21891  -0.20241
 Alpha  occ. eigenvalues --   -0.19862  -0.14852  -0.13779  -0.13745  -0.12609
 Alpha  occ. eigenvalues --   -0.12192  -0.11425  -0.06706  -0.01448
 Alpha virt. eigenvalues --    0.06188   0.07293   0.07432   0.08119   0.09169
 Alpha virt. eigenvalues --    0.09374   0.09625   0.10057   0.10614   0.10866
 Alpha virt. eigenvalues --    0.11365   0.12074   0.12629   0.13194   0.13224

  Beta  occ. eigenvalues --  -19.04748 -18.94714 -18.94678 -14.19155 -14.19144
  Beta  occ. eigenvalues --  -10.13203 -10.10552 -10.10066 -10.10062 -10.09831
  Beta  occ. eigenvalues --  -10.08979 -10.08901 -10.06040 -10.05990 -10.05395
  Beta  occ. eigenvalues --  -10.05359 -10.05354 -10.05310 -10.05084 -10.05036
  Beta  occ. eigenvalues --  -10.04748 -10.04614  -0.94604  -0.87127  -0.86812
  Beta  occ. eigenvalues --   -0.81403  -0.80874  -0.73845  -0.71506  -0.66225
  Beta  occ. eigenvalues --   -0.65261  -0.63124  -0.62348  -0.60824  -0.56660
  Beta  occ. eigenvalues --   -0.54187  -0.53968  -0.51073  -0.49862  -0.46570
  Beta  occ. eigenvalues --   -0.44893  -0.42772  -0.41818  -0.40857  -0.39391
  Beta  occ. eigenvalues --   -0.38120  -0.37455  -0.35676  -0.35416  -0.34438
  Beta  occ. eigenvalues --   -0.34066  -0.33507  -0.32381  -0.31259  -0.30728
  Beta  occ. eigenvalues --   -0.30162  -0.29609  -0.29018  -0.28737  -0.27559
  Beta  occ. eigenvalues --   -0.27127  -0.25991  -0.25657  -0.25296  -0.24500
  Beta  occ. eigenvalues --   -0.23640  -0.23057  -0.21763  -0.21064  -0.20211
  Beta  occ. eigenvalues --   -0.19259  -0.13609  -0.13173  -0.12406  -0.12228
  Beta  occ. eigenvalues --   -0.11758  -0.10984  -0.05620
  Beta virt. eigenvalues --    0.03830   0.06193   0.07301   0.08111   0.08252
  Beta virt. eigenvalues --    0.09169   0.09474   0.10036   0.10505   0.10624
  Beta virt. eigenvalues --    0.10890   0.11413   0.12081   0.12702   0.13212

 Mulliken charges and spin densities:
               1          2
     1  C   -0.031386   0.015932
     2  C   -0.376858   0.040877
     3  C   -0.381977   0.035253
     4  C    0.362758   0.044317
     5  C    0.305089   0.032665
     6  C   -0.074388   0.019759
     7  C   -0.553859   0.074059
     8  C   -0.608995   0.081341
     9  C    0.199763   0.007906
    10  C    0.402341   0.017936
    11  C    0.066731   0.020244
    12  C   -0.217227   0.102016
    13  C   -0.382259   0.083164
    14  C   -0.236549   0.027003
    15  O   -0.379314   0.184816
    16  O   -0.362361   0.189937
    17  H    0.158993  -0.000285
    18  H    0.123592  -0.003309
    19  H    0.123711  -0.002881
    20  H    0.147324  -0.000904
    21  H    0.119019  -0.006909
    22  H    0.137526  -0.007608
    23  N   -0.258023   0.019359
    24  C   -0.372123  -0.003526
    25  H    0.384396  -0.003249
    26  H    0.129049   0.004551
    27  H    0.121939   0.002408
    28  H    0.119287  -0.000073
    29  N   -0.075301   0.020173
    30  C   -0.232608  -0.001294
    31  C   -0.318988  -0.000923
    32  O   -0.263328   0.000012
    33  H    0.418298  -0.001568
    34  H    0.151885   0.001313
    35  H    0.098563   0.006695
    36  H    0.152587   0.000939
    37  H    0.173272  -0.000252
    38  H    0.229422   0.000109
 Sum of Mulliken charges =  -1.00000   1.00000

 Dipole moment (field-independent basis, Debye):
    X=              5.2148    Y=            -16.0104    Z=              5.3495  Tot=             17.6676
 Quadrupole moment (field-independent basis, Debye-Ang):
   XX=           -141.5871   YY=           -202.3964   ZZ=           -187.6177
   XY=             20.6496   XZ=             -8.2763   YZ=             20.9424

  Exact polarizability: 148.716  -0.621 380.511  43.872  41.719 349.744
 Approx polarizability: 236.202  -7.584 594.715  63.754  39.240 547.576

                      1                      2                      3
                      A                      A                      A
 Frequencies --     29.2930                46.9031                58.3159
 Red. masses --      6.7540                 4.1684                 2.4509
 Frc consts  --      0.0034                 0.0054                 0.0049
 IR Inten    --      0.8894                 4.9013                 1.8927

                      4                      5                      6
                      A                      A                      A
 Frequencies --     65.4014                74.2957                77.0311
 Red. masses --      4.5914                 3.7799                 3.8970
 Frc consts  --      0.0116                 0.0123                 0.0136
 IR Inten    --      2.9575                 5.0105                 1.9035

                      7                      8                      9
                      A                      A                      A
 Frequencies --    115.7187               133.6966               154.3675
 Red. masses --      3.6748                 4.6495                 3.4812
 Frc consts  --      0.0290                 0.0490                 0.0489
 IR Inten    --      1.5114                 0.8382                 4.5649

                     10                     11                     12
                      A                      A                      A
 Frequencies --    176.9962               181.2334               222.7119
 Red. masses --      3.8677                 5.9396                 1.1727
 Frc consts  --      0.0714                 0.1149                 0.0343
 IR Inten    --      1.2015                 1.1449                 0.7981

                     13                     14                     15
                      A                      A                      A
 Frequencies --    233.1877               250.0937               267.1082
 Red. masses --      3.2999                 5.5287                 5.5685
 Frc consts  --      0.1057                 0.2037                 0.2341
 IR Inten    --      8.3664                 5.7957                 1.5636

                     16                     17                     18
                      A                      A                      A
 Frequencies --    302.6404               326.4407               333.4087
 Red. masses --      1.6262                 3.5773                 2.8444
 Frc consts  --      0.0878                 0.2246                 0.1863
 IR Inten    --     84.7408                 8.2381                32.2361

                     19                     20                     21
                      A                      A                      A
 Frequencies --    370.3449               383.7706               401.4961
 Red. masses --      5.2953                 6.1987                 8.2817
 Frc consts  --      0.4279                 0.5379                 0.7866
 IR Inten    --      0.9600                22.7444                 1.9945

                     22                     23                     24
                      A                      A                      A
 Frequencies --    419.0868               438.5926               444.3982
 Red. masses --      6.6018                 3.7660                 9.0336
 Frc consts  --      0.6832                 0.4268                 1.0511
 IR Inten    --      0.3652                 3.1826                10.4230

                     25                     26                     27
                      A                      A                      A
 Frequencies --    475.7131               492.6665               502.1332
 Red. masses --      6.4485                 8.3055                 4.6311
 Frc consts  --      0.8598                 1.1877                 0.6880
 IR Inten    --     10.5172                 0.8352                 0.3621

                     28                     29                     30
                      A                      A                      A
 Frequencies --    533.7476               581.4008               605.3473
 Red. masses --      5.2268                 3.8408                 3.6035
 Frc consts  --      0.8773                 0.7649                 0.7780
 IR Inten    --     26.0170                21.9046                 9.1058

                     31                     32                     33
                      A                      A                      A
 Frequencies --    630.8085               646.3156               669.8810
 Red. masses --      5.1909                 4.7640                 4.6751
 Frc consts  --      1.2170                 1.1725                 1.2360
 IR Inten    --      5.0708                 2.8723                14.9252

                     34                     35                     36
                      A                      A                      A
 Frequencies --    701.5611               719.1578               731.6538
 Red. masses --      1.3705                 2.0655                 3.8654
 Frc consts  --      0.3974                 0.6294                 1.2192
 IR Inten    --     41.7845                25.8444                16.8457

                     37                     38                     39
                      A                      A                      A
 Frequencies --    741.2245               755.0271               778.5122
 Red. masses --      4.8258                 1.7937                 1.6006
 Frc consts  --      1.5621                 0.6025                 0.5716
 IR Inten    --      5.5929               117.3090                36.9355

                     40                     41                     42
                      A                      A                      A
 Frequencies --    791.3652               799.9891               804.5047
 Red. masses --      2.5174                 3.7480                 2.2728
 Frc consts  --      0.9289                 1.4133                 0.8667
 IR Inten    --      0.0864                 5.4921                18.4871

                     43                     44                     45
                      A                      A                      A
 Frequencies --    822.6653               860.1273               867.3121
 Red. masses --      1.1395                 1.3780                 6.0160
 Frc consts  --      0.4544                 0.6006                 2.6663
 IR Inten    --      3.8209                 0.6163                21.0831

                     46                     47                     48
                      A                      A                      A
 Frequencies --    869.8827               899.7705               951.7235
 Red. masses --      1.5054                 6.6253                 5.2431
 Frc consts  --      0.6712                 3.1602                 2.7981
 IR Inten    --      0.0373                13.6416                 6.7273

                     49                     50                     51
                      A                      A                      A
 Frequencies --    981.7608               982.6493              1023.1894
 Red. masses --      1.3621                 1.2576                 3.9520
 Frc consts  --      0.7735                 0.7155                 2.4377
 IR Inten    --      2.3525                 0.0016               178.6983

                     52                     53                     54
                      A                      A                      A
 Frequencies --   1032.5290              1051.9765              1064.3643
 Red. masses --      2.7226                 2.3120                 3.0316
 Frc consts  --      1.7102                 1.5075                 2.0235
 IR Inten    --     28.8198                 5.8938                63.2239

                     55                     56                     57
                      A                      A                      A
 Frequencies --   1099.3035              1110.7192              1118.0579
 Red. masses --      1.6808                 2.1181                 1.9449
 Frc consts  --      1.1967                 1.5396                 1.4325
 IR Inten    --     18.4849                20.5353                13.0291

                     58                     59                     60
                      A                      A                      A
 Frequencies --   1145.5418              1149.7161              1159.2178
 Red. masses --      1.2990                 1.3234                 3.8653
 Frc consts  --      1.0043                 1.0306                 3.0603
 IR Inten    --      5.4904                 9.1393                40.9182

                     61                     62                     63
                      A                      A                      A
 Frequencies --   1178.9680              1192.1775              1196.1764
 Red. masses --      2.5180                 1.4851                 1.4447
 Frc consts  --      2.0621                 1.2436                 1.2179
 IR Inten    --      7.6003                21.8952                 4.3778

                     64                     65                     66
                      A                      A                      A
 Frequencies --   1199.3061              1234.0007              1250.1748
 Red. masses --      1.6389                 3.4596                 1.9162
 Frc consts  --      1.3888                 3.1039                 1.7646
 IR Inten    --     26.6325                 0.2211                19.5084

                     67                     68                     69
                      A                      A                      A
 Frequencies --   1277.4448              1292.7593              1296.0168
 Red. masses --      2.3204                 1.7344                 1.6007
 Frc consts  --      2.2310                 1.7078                 1.5840
 IR Inten    --      5.4122                44.9448                 8.9368

                     70                     71                     72
                      A                      A                      A
 Frequencies --   1320.9260              1333.6171              1344.3491
 Red. masses --      3.2406                 2.1245                 1.6455
 Frc consts  --      3.3315                 2.2262                 1.7522
 IR Inten    --     59.6997               124.8716                93.1214

                     73                     74                     75
                      A                      A                      A
 Frequencies --   1367.0106              1378.7727              1388.5480
 Red. masses --      9.5358                 1.2710                 4.2522
 Frc consts  --     10.4991                 1.4236                 4.8305
 IR Inten    --      0.4943               119.7277                87.4722

                     76                     77                     78
                      A                      A                      A
 Frequencies --   1397.8136              1425.1065              1454.4781
 Red. masses --      2.8395                 1.4248                 2.2842
 Frc consts  --      3.2688                 1.7050                 2.8471
 IR Inten    --    329.7518                 3.7997                11.2887

                     79                     80                     81
                      A                      A                      A
 Frequencies --   1459.2576              1475.8192              1479.2386
 Red. masses --      1.9072                 1.0444                 3.4374
 Frc consts  --      2.3928                 1.3403                 4.4316
 IR Inten    --    102.4642                 3.9439                65.8380

                     82                     83                     84
                      A                      A                      A
 Frequencies --   1482.5064              1508.9096              1515.8603
 Red. masses --      2.3785                 1.1388                 1.8374
 Frc consts  --      3.0799                 1.5277                 2.4875
 IR Inten    --     39.1449               100.7612               429.7255

                     85                     86                     87
                      A                      A                      A
 Frequencies --   1519.7395              1522.7923              1553.2393
 Red. masses --      1.2739                 1.3513                 2.1734
 Frc consts  --      1.7335                 1.8462                 3.0893
 IR Inten    --    139.8968                25.4649               406.5451

                     88                     89                     90
                      A                      A                      A
 Frequencies --   1559.8317              1602.1744              1610.9231
 Red. masses --      3.2494                 2.4572                 2.6142
 Frc consts  --      4.6581                 3.7163                 3.9971
 IR Inten    --     26.7263               325.3438                38.3336

                     91                     92                     93
                      A                      A                      A
 Frequencies --   1623.8940              1632.7858              2852.3505
 Red. masses --      5.4022                 7.4595                 1.0748
 Frc consts  --      8.3934                11.7171                 5.1521
 IR Inten    --      4.7325                52.1939               230.5026

                     94                     95                     96
                      A                      A                      A
 Frequencies --   2922.6416              2962.6883              2987.4995
 Red. masses --      1.0586                 1.0830                 1.0793
 Frc consts  --      5.3277                 5.6007                 5.6754
 IR Inten    --    247.0430               133.8472                26.8370

                     97                     98                     99
                      A                      A                      A
 Frequencies --   3005.5223              3082.4024              3095.9306
 Red. masses --      1.0730                 1.0910                 1.0951
 Frc consts  --      5.7105                 6.1076                 6.1845
 IR Inten    --     81.2238                42.7289                29.1961

                    100                    101                    102
                      A                      A                      A
 Frequencies --   3134.3309              3153.6744              3167.4283
 Red. masses --      1.0849                 1.0917                 1.0847
 Frc consts  --      6.2793                 6.3970                 6.4119
 IR Inten    --     18.6860                61.6318                34.1322

                    103                    104                    105
                      A                      A                      A
 Frequencies --   3186.6210              3188.6665              3190.9039
 Red. masses --      1.0918                 1.0912                 1.0924
 Frc consts  --      6.5322                 6.5366                 6.5533
 IR Inten    --     34.6173                 8.4972                28.5044

                    106                    107                    108
                      A                      A                      A
 Frequencies --   3264.4435              3335.8273              3824.1337
 Red. masses --      1.0817                 1.0822                 1.0662
 Frc consts  --      6.7917                 7.0952                 9.1863
 IR Inten    --    159.0368               144.8382                15.8451

 - Thermochemistry -
 -------------------
 Temperature   298.150 Kelvin.  Pressure   1.00000 Atm.
 Atom     1 has atomic number  6 and mass  12.00000

 Molecular mass:   296.11609 amu.
 Principal axes and moments of inertia in atomic units:
                           1         2         3
     Eigenvalues --  5129.715508684.32853**********
           X            0.19766  -0.09276   0.97587
           Y            0.20386   0.97764   0.05163
           Z            0.95884  -0.18873  -0.21215
 This molecule is an asymmetric top.
 Rotational symmetry number  1.
 Warning -- assumption of classical behavior for rotation
           may cause significant error
 Rotational temperatures (Kelvin)      0.01688     0.00997     0.00630
 Rotational constants (GHZ):           0.35182     0.20782     0.13130
 Zero-point vibrational energy     784078.8 (Joules/Mol)
                                  187.39932 (Kcal/Mol)
 Warning -- explicit consideration of  30 degrees of freedom as
           vibrations may cause significant error
 Vibrational temperatures:     42.15    67.48    83.90    94.10   106.89
          (Kelvin)            110.83   166.49   192.36   222.10   254.66
                              260.75   320.43   335.51   359.83   384.31
                              435.43   469.68   479.70   532.84   552.16
                              577.66   602.97   631.04   639.39   684.44
                              708.84   722.46   767.94   836.51   870.96
                              907.59   929.90   963.81  1009.39  1034.71
                             1052.69  1066.46  1086.32  1120.11  1138.60
                             1151.01  1157.50  1183.63  1237.53  1247.87
                             1251.57  1294.57  1369.32  1412.53  1413.81
                             1472.14  1485.58  1513.56  1531.38  1581.65
                             1598.08  1608.64  1648.18  1654.19  1667.86
                             1696.27  1715.28  1721.03  1725.53  1775.45
                             1798.72  1837.96  1859.99  1864.68  1900.52
                             1918.78  1934.22  1966.82  1983.75  1997.81
                             2011.14  2050.41  2092.67  2099.55  2123.37
                             2128.29  2133.00  2170.98  2180.98  2186.57
                             2190.96  2234.76  2244.25  2305.17  2317.76
                             2336.42  2349.21  4103.90  4205.03  4262.65
                             4298.35  4324.28  4434.89  4454.35  4509.60
                             4537.43  4557.22  4584.84  4587.78  4591.00
                             4696.81  4799.51  5502.08

 Zero-point correction=                           0.298640 (Hartree/Particle)
 Thermal correction to Energy=                    0.317971
 Thermal correction to Enthalpy=                  0.318916
 Thermal correction to Gibbs Free Energy=         0.249523
 Sum of electronic and zero-point Energies=           -992.672003
 Sum of electronic and thermal Energies=              -992.652671
 Sum of electronic and thermal Enthalpies=            -992.651727
 Sum of electronic and thermal Free Energies=         -992.721120

                     E (Thermal)             CV                S
                      KCal/Mol        Cal/Mol-Kelvin    Cal/Mol-Kelvin
 Total                  199.530             74.841            146.049
 Electronic               0.000              0.000              1.377
 Translational            0.889              2.981             42.954
 Rotational               0.889              2.981             34.770
 Vibrational            197.753             68.879             66.948
 Vibration     1          0.593              1.984              5.877
 Vibration     2          0.595              1.979              4.944
 Vibration     3          0.596              1.974              4.513
 Vibration     4          0.597              1.971              4.287
 Vibration     5          0.599              1.966              4.036
 Vibration     6          0.599              1.964              3.965
 Vibration     7          0.608              1.936              3.171
 Vibration     8          0.613              1.920              2.892
 Vibration     9          0.620              1.898              2.618
 Vibration    10          0.628              1.871              2.360
 Vibration    11          0.630              1.865              2.316
 Vibration    12          0.648              1.806              1.937
 Vibration    13          0.654              1.790              1.854
 Vibration    14          0.663              1.763              1.730
 Vibration    15          0.672              1.733              1.615
 Vibration    16          0.694              1.669              1.402
 Vibration    17          0.710              1.623              1.278
 Vibration    18          0.715              1.609              1.244
 Vibration    19          0.742              1.533              1.078
 Vibration    20          0.753              1.505              1.024
 Vibration    21          0.767              1.467              0.957
 Vibration    22          0.782              1.429              0.895
 Vibration    23          0.799              1.386              0.831
 Vibration    24          0.804              1.373              0.813
 Vibration    25          0.832              1.304              0.722
 Vibration    26          0.848              1.266              0.677
 Vibration    27          0.857              1.245              0.653
 Vibration    28          0.889              1.175              0.579
 Vibration    29          0.938              1.072              0.483
 Vibration    30          0.964              1.020              0.441

 Optimization completed.
    -- Stationary point found.
 Normal termination of Gaussian 16 at Wed Dec 27 22:35:39 2023.
