 Q-Chem 5.4, Q-Chem, Inc., Pleasanton, CA (2021)
 Q-Chem 5.4.0 for Intel X86 EM64T Linux

User input:
--------------------------------------------------------------
$molecule
-1 2
C                 -1.3082680000      1.9071850000     -4.2523390000
C                 -1.2332440000      0.5308320000     -4.3306320000
C                 -0.9674030000     -0.2264890000     -3.1688940000
C                 -1.1248790000      2.5779560000     -3.0230000000
C                 -0.8589890000      1.8186630000     -1.8578860000
C                 -0.7834590000      0.4113690000     -1.9585880000
C                 -1.2062360000      4.0346480000     -2.9798400000
C                 -0.6596760000      2.4579160000     -0.5623680000
C                 -1.0213220000      4.6847180000     -1.6911190000
C                 -0.7630550000      3.9090300000     -0.4988850000
C                 -1.0659740000      6.1233570000     -1.6031540000
C                 -0.8050110000      6.7335190000     -0.3749180000
C                 -0.5613940000      5.9806220000      0.7781610000
C                 -0.5681920000      4.5871560000      0.7568350000
O                 -1.4244890000      4.6708310000     -4.0613220000
O                 -0.3938190000      1.7293650000      0.4493500000
H                 -1.5090960000      2.5147280000     -5.1265470000
H                 -1.3781800000      0.0302940000     -5.2835310000
H                 -0.9082950000     -1.3093240000     -3.2286850000
H                 -0.5776350000     -0.1432310000     -1.0510260000
H                 -0.3858760000      6.5039960000      1.7102390000
H                 -0.8055420000      7.8140360000     -0.2999380000
N                 -1.3672860000      6.8776330000     -2.7168780000
C                 -1.2208420000      8.3049590000     -2.7631770000
H                 -1.4233740000      6.3209930000     -3.5729300000
H                 -0.2031580000      8.6447710000     -2.5048160000
H                 -1.9157610000      8.8185640000     -2.0820950000
H                 -1.4426380000      8.6449810000     -3.7772020000
N                 -0.4075140000      3.8534920000      1.9253870000
C                  0.1595710000      4.4232590000      3.1177730000
C                  0.2931330000      3.3538770000      4.1995620000
O                  0.8957010000      3.8664430000      5.3945990000
H                 -0.2524310000      2.8593030000      1.7190240000
H                 -0.4684990000      5.2332950000      3.5111240000
H                  1.1595920000      4.8683980000      2.9336550000
H                  0.8673630000      2.5011200000      3.8145100000
H                 -0.6914900000      2.9877250000      4.4941620000
H                  1.7549970000      4.2289830000      5.1561140000
$end

$rem
BASIS  =  6-311++G(d,p)
GUI  =  2
JOB_TYPE  =  SP
METHOD  =  B3LYP
SCF_CONVERGENCE  = 8
SOLVENT_METHOD = sm12
$end

$smx
solvent dimethylformamide
charges CM5
$end

--------------------------------------------------------------

             Standard Nuclear Orientation (Angstroms)
    I     Atom           X                Y                Z
 ----------------------------------------------------------------
    1      C      -1.3082680000     1.9071850000    -4.2523390000
    2      C      -1.2332440000     0.5308320000    -4.3306320000
    3      C      -0.9674030000    -0.2264890000    -3.1688940000
    4      C      -1.1248790000     2.5779560000    -3.0230000000
    5      C      -0.8589890000     1.8186630000    -1.8578860000
    6      C      -0.7834590000     0.4113690000    -1.9585880000
    7      C      -1.2062360000     4.0346480000    -2.9798400000
    8      C      -0.6596760000     2.4579160000    -0.5623680000
    9      C      -1.0213220000     4.6847180000    -1.6911190000
   10      C      -0.7630550000     3.9090300000    -0.4988850000
   11      C      -1.0659740000     6.1233570000    -1.6031540000
   12      C      -0.8050110000     6.7335190000    -0.3749180000
   13      C      -0.5613940000     5.9806220000     0.7781610000
   14      C      -0.5681920000     4.5871560000     0.7568350000
   15      O      -1.4244890000     4.6708310000    -4.0613220000
   16      O      -0.3938190000     1.7293650000     0.4493500000
   17      H      -1.5090960000     2.5147280000    -5.1265470000
   18      H      -1.3781800000     0.0302940000    -5.2835310000
   19      H      -0.9082950000    -1.3093240000    -3.2286850000
   20      H      -0.5776350000    -0.1432310000    -1.0510260000
   21      H      -0.3858760000     6.5039960000     1.7102390000
   22      H      -0.8055420000     7.8140360000    -0.2999380000
   23      N      -1.3672860000     6.8776330000    -2.7168780000
   24      C      -1.2208420000     8.3049590000    -2.7631770000
   25      H      -1.4233740000     6.3209930000    -3.5729300000
   26      H      -0.2031580000     8.6447710000    -2.5048160000
   27      H      -1.9157610000     8.8185640000    -2.0820950000
   28      H      -1.4426380000     8.6449810000    -3.7772020000
   29      N      -0.4075140000     3.8534920000     1.9253870000
   30      C       0.1595710000     4.4232590000     3.1177730000
   31      C       0.2931330000     3.3538770000     4.1995620000
   32      O       0.8957010000     3.8664430000     5.3945990000
   33      H      -0.2524310000     2.8593030000     1.7190240000
   34      H      -0.4684990000     5.2332950000     3.5111240000
   35      H       1.1595920000     4.8683980000     2.9336550000
   36      H       0.8673630000     2.5011200000     3.8145100000
   37      H      -0.6914900000     2.9877250000     4.4941620000
   38      H       1.7549970000     4.2289830000     5.1561140000
 ----------------------------------------------------------------

   17    -992.9647523943      5.52e-09  Convergence criterion met
 Total energy in the final basis set =     -993.0589601738

                    Orbital Energies (a.u.)
 --------------------------------------------------------------

 Alpha MOs
 -- Occupied --
-19.1279 -19.0768 -19.0768 -14.3102 -14.3083 -10.2275 -10.2274 -10.2194
-10.2131 -10.2118 -10.2041 -10.1983 -10.1804 -10.1799 -10.1783 -10.1777
-10.1768 -10.1765 -10.1761 -10.1759 -10.1706 -10.1699  -1.0267  -1.0043
 -1.0020  -0.9316  -0.9264  -0.8631  -0.8370  -0.7882  -0.7607  -0.7556
 -0.7462  -0.7180  -0.6809  -0.6685  -0.6464  -0.6310  -0.6163  -0.5859
 -0.5713  -0.5391  -0.5318  -0.5179  -0.5077  -0.4917  -0.4813  -0.4714
 -0.4680  -0.4631  -0.4567  -0.4420  -0.4385  -0.4297  -0.4227  -0.4187
 -0.4165  -0.4070  -0.4025  -0.3930  -0.3864  -0.3804  -0.3790  -0.3740
 -0.3688  -0.3537  -0.3462  -0.3423  -0.3384  -0.3156  -0.2847  -0.2719
 -0.2611  -0.2582  -0.2489  -0.2455  -0.2382  -0.1887  -0.1383

 Beta MOs
 -- Occupied --
-19.1279 -19.0720 -19.0719 -14.3096 -14.3076 -10.2260 -10.2258 -10.2194
-10.2128 -10.2114 -10.2041 -10.1984 -10.1800 -10.1795 -10.1782 -10.1776
-10.1763 -10.1762 -10.1758 -10.1754 -10.1693 -10.1685  -1.0267  -0.9962
 -0.9937  -0.9299  -0.9249  -0.8612  -0.8353  -0.7843  -0.7594  -0.7540
 -0.7445  -0.7171  -0.6783  -0.6630  -0.6450  -0.6297  -0.6150  -0.5849
 -0.5697  -0.5371  -0.5308  -0.5170  -0.5069  -0.4909  -0.4790  -0.4706
 -0.4670  -0.4621  -0.4557  -0.4397  -0.4373  -0.4294  -0.4175  -0.4157
 -0.4127  -0.4040  -0.4010  -0.3911  -0.3855  -0.3785  -0.3714  -0.3675
 -0.3622  -0.3523  -0.3417  -0.3398  -0.3315  -0.3100  -0.2846  -0.2563
 -0.2549  -0.2489  -0.2448  -0.2412  -0.2340  -0.1768

          Ground-State Mulliken Net Atomic Charges

     Atom                 Charge (a.u.)    Spin (a.u.)
  --------------------------------------------------------
      1 C                     0.116736       0.022438
      2 C                     0.901645       0.037197
      3 C                     1.037286       0.033316
      4 C                    -0.566906       0.039609
      5 C                    -0.743989       0.029487
      6 C                     0.018828       0.024867
      7 C                    -1.709367       0.069233
      8 C                    -1.732234       0.073071
      9 C                    -0.681007      -0.004640
     10 C                    -0.314552       0.007738
     11 C                    -0.977650       0.030329
     12 C                     0.803207       0.106705
     13 C                     0.498284       0.091449
     14 C                    -1.041639       0.037716
     15 O                    -0.296917       0.178560
     16 O                    -0.256942       0.184362
     17 H                     0.175135      -0.000565
     18 H                     0.351676      -0.002847
     19 H                     0.357306      -0.002532
     20 H                     0.162995      -0.001099
     21 H                     0.302422      -0.007180
     22 H                     0.315052      -0.007697
     23 N                    -0.342017       0.029270
     24 C                     0.062278      -0.002794
     25 H                     0.322845      -0.003505
     26 H                     0.210606       0.003216
     27 H                     0.195741       0.002304
     28 H                     0.287229      -0.000168
     29 N                    -0.096075       0.029344
     30 C                     0.090022      -0.000757
     31 C                     0.377816      -0.001019
     32 O                    -0.188038      -0.000067
     33 H                     0.385819      -0.001381
     34 H                     0.206440       0.001572
     35 H                     0.156323       0.004319
     36 H                     0.170814       0.000193
     37 H                     0.150778      -0.000058
     38 H                     0.290052       0.000016
  --------------------------------------------------------
  Sum of atomic charges =    -1.000000

                    Cartesian Multipole Moments
 -----------------------------------------------------------------
    Charge (ESU x 10^10)
                -4.8032
    Dipole Moment (Debye)
         X       5.5579      Y     -15.5708      Z       5.9825
       Tot      17.5821
    Quadrupole Moments (Debye-Ang)
        XX    -141.6773     XY      21.8823     YY    -190.4163
        XZ      -6.9156     YZ      24.7563     ZZ    -181.1744

 Total job time:  1605.58s(wall), 12339.17s(cpu)
        *  Thank you very much for using Q-Chem.  Have a nice day.  *
