 Q-Chem 5.4, Q-Chem, Inc., Pleasanton, CA (2021)
 Q-Chem 5.4.0 for Intel X86 EM64T Linux

User input:
--------------------------------------------------------------
$molecule
0 1
C                  4.8777450000     -2.8724200000     -0.3477780000
C                  5.6114970000     -1.9790750000     -1.1187520000
C                  5.0317810000     -0.7801700000     -1.5424010000
C                  3.5574960000     -2.5730120000      0.0055280000
C                  2.9727510000     -1.3661290000     -0.4205050000
C                  3.7200200000     -0.4757700000     -1.1951090000
C                  2.7893980000     -3.5369100000      0.8281610000
C                  1.4070800000     -3.1982150000      1.1843520000
C                  0.8061480000     -1.9853670000      0.7614300000
C                  1.5632290000     -1.0120250000     -0.0619610000
C                  0.6637830000     -4.0982610000      1.9626870000
C                 -0.6681860000     -3.7948610000      2.3185560000
C                 -0.5072600000     -1.7056670000      1.1228300000
C                 -1.2422190000     -2.6039960000      1.8970620000
O                  3.3032990000     -4.6012020000      1.2044300000
O                  1.0676620000      0.0394200000     -0.4384030000
O                  1.1398780000     -5.2748620000      2.4145320000
H                  5.3068720000     -3.8069320000     -0.0087390000
H                  6.6341520000     -2.2133470000     -1.3911660000
H                  5.6058820000     -0.0844690000     -2.1438260000
H                  3.2520160000      0.4476440000     -1.5129370000
H                  2.0732920000     -5.3492650000      2.0900800000
O                 -1.3746840000     -4.6699310000      3.0690640000
H                 -0.9482210000     -0.7747050000      0.7903800000
H                 -2.2656930000     -2.3917320000      2.1818260000
H                 -0.8094750000     -5.4323110000      3.2617280000
$end
$rem
MAX_SCF_CYCLES=200
BASIS  =  6-311++G(d,p)
GUI  =  2
JOB_TYPE  =  SP
METHOD  =  B3LYP
SOLVENT_METHOD = COSMO
$end
$solvent
dielectric 37.219
opticaldielectric 1.43
$end

--------------------------------------------------------------

             Standard Nuclear Orientation (Angstroms)
    I     Atom           X                Y                Z
 ----------------------------------------------------------------
    1      C       2.7090065392    -1.6332478261     0.0000677416
    2      C       4.0173939420    -1.1652941967     0.0000556025
    3      C       4.2688589573     0.2093649098     0.0000113006
    4      C       1.6414138591    -0.7289394879     0.0000329551
    5      C       1.8934372724     0.6554309838    -0.0000302539
    6      C       3.2127929815     1.1141923344    -0.0000168631
    7      C       0.2523983402    -1.2451127465     0.0000374007
    8      C      -0.8483461249    -0.2751895535    -0.0000455858
    9      C      -0.6078759662     1.1223642589    -0.0000900214
   10      C       0.7768866591     1.6524317055    -0.0000452269
   11      C      -2.1704336741    -0.7447245538    -0.0000337966
   12      C      -3.2466802220     0.1688010792     0.0000558297
   13      C      -1.6822286894     2.0053415235    -0.0000577497
   14      C      -2.9951828381     1.5333814507     0.0000244765
   15      O       0.0285201227    -2.4650588935    -0.0000028419
   16      O       1.0097161692     2.8518574992     0.0000138913
   17      O      -2.5064031223    -2.0494639087    -0.0001432539
   18      H       2.4911583433    -2.6938854960     0.0000463214
   19      H       4.8427667646    -1.8679147984     0.0000646944
   20      H       5.2903460359     0.5725012730     0.0000242903
   21      H       3.3857622023     2.1832187348     0.0000117497
   22      H      -1.6588718283    -2.5630369596    -0.0003140086
   23      O      -4.5165729531    -0.2954419943     0.0001409155
   24      H      -1.4781775424     3.0683669125    -0.0000014616
   25      H      -3.8362426044     2.2162167415     0.0000965883
   26      H      -4.4874693208    -1.2634073186     0.0002072824
 ----------------------------------------------------------------

    9    -839.4651404035      6.19e-06  Convergence criterion met
 Total energy in the final basis set =     -839.4651404035
    5    -839.4813584946      2.71e-06  Convergence criterion met
 Total energy in the final basis set =     -839.4813584946

                    Orbital Energies (a.u.)
 --------------------------------------------------------------

 Alpha MOs
 -- Occupied --
-19.1767 -19.1733 -19.1439 -19.1286 -10.2932 -10.2822 -10.2694 -10.2633
-10.2125 -10.2104 -10.2090 -10.2055 -10.1985 -10.1983 -10.1977 -10.1977
-10.1967 -10.1963  -1.1080  -1.0839  -1.0645  -1.0634  -0.8954  -0.8808
 -0.8143  -0.7804  -0.7745  -0.7701  -0.6977  -0.6777  -0.6581  -0.6321
 -0.6008  -0.5840  -0.5655  -0.5485  -0.5315  -0.5157  -0.4988  -0.4802
 -0.4732  -0.4669  -0.4624  -0.4519  -0.4507  -0.4436  -0.4333  -0.4245
 -0.4223  -0.3977  -0.3958  -0.3869  -0.3816  -0.3814  -0.3681  -0.3511
 -0.2985  -0.2898  -0.2794  -0.2791  -0.2709  -0.2428

          Ground-State Mulliken Net Atomic Charges

     Atom                 Charge (a.u.)
  ----------------------------------------
      1 C                     0.200370
      2 C                    -0.443875
      3 C                    -0.461034
      4 C                     0.190058
      5 C                    -0.123836
      6 C                     0.161329
      7 C                    -0.441448
      8 C                     0.601803
      9 C                     0.451580
     10 C                    -0.485515
     11 C                    -0.072829
     12 C                    -0.355390
     13 C                     0.075743
     14 C                    -0.015852
     15 O                    -0.331726
     16 O                    -0.312763
     17 O                    -0.387222
     18 H                     0.206477
     19 H                     0.226750
     20 H                     0.227248
     21 H                     0.198608
     22 H                     0.380997
     23 O                    -0.281468
     24 H                     0.200610
     25 H                     0.256727
     26 H                     0.334657
  ----------------------------------------
  Sum of atomic charges =     0.000000

                    Cartesian Multipole Moments
 -----------------------------------------------------------------
    Charge (ESU x 10^10)
                 0.0000
    Dipole Moment (Debye)
         X       2.1177      Y      -1.9715      Z       0.0002
       Tot       2.8933
    Quadrupole Moments (Debye-Ang)
        XX     -83.2437     XY      -5.9536     YY    -110.5933
        XZ      -0.0015     YZ       0.0006     ZZ    -105.0877

 Total job time:  57.51s(wall), 421.04s(cpu)
        *  Thank you very much for using Q-Chem.  Have a nice day.  *
