 Gaussian 16, Revision A.03,
 Gaussian 16:  ES64L-G16RevA.03 25-Dec-2016

 --------------------------------------
 #P UB3LYP/6-311++G(d,p) nosym opt freq
 --------------------------------------

 --------
 Oxidized
 --------
 Symbolic Z-matrix:
 Charge =  0 Multiplicity = 1

 SCF Done:  E(UB3LYP) =  -951.084448699     A.U. after   18 cycles
 SCF Done:  E(UB3LYP) =  -951.091088920     A.U. after   18 cycles
 SCF Done:  E(UB3LYP) =  -951.091909777     A.U. after   17 cycles
 SCF Done:  E(UB3LYP) =  -951.093345569     A.U. after   17 cycles
 SCF Done:  E(UB3LYP) =  -951.093748793     A.U. after   16 cycles
 SCF Done:  E(UB3LYP) =  -951.095614556     A.U. after   18 cycles
 SCF Done:  E(UB3LYP) =  -951.097117547     A.U. after   18 cycles
 SCF Done:  E(UB3LYP) =  -951.099925215     A.U. after   18 cycles
 SCF Done:  E(UB3LYP) =  -951.103199533     A.U. after   17 cycles
 SCF Done:  E(UB3LYP) =  -951.103590207     A.U. after   15 cycles
 SCF Done:  E(UB3LYP) =  -951.103871610     A.U. after   17 cycles
 SCF Done:  E(UB3LYP) =  -951.103912122     A.U. after   14 cycles
 SCF Done:  E(UB3LYP) =  -951.103964541     A.U. after   14 cycles
 SCF Done:  E(UB3LYP) =  -951.103976195     A.U. after   12 cycles
 SCF Done:  E(UB3LYP) =  -951.103980582     A.U. after   13 cycles
 SCF Done:  E(UB3LYP) =  -951.103981907     A.U. after   12 cycles
 SCF Done:  E(UB3LYP) =  -951.103982369     A.U. after   11 cycles
 SCF Done:  E(UB3LYP) =  -951.103982407     A.U. after   11 cycles
 Optimization completed.
    -- Stationary point found.
 Normal termination of Gaussian 16 at Thu Dec 28 22:02:22 2023.

 ----------------------------------------------------------------------
 #P Geom=AllCheck Guess=TCheck SCRF=Check GenChk UB3LYP/6-311++G(d,p) F
 req
 ----------------------------------------------------------------------

 Structure from the checkpoint file:  "301.chk"
 --------
 Oxidized
 --------
 Charge =  0 Multiplicity = 1

                          Input orientation:
 ---------------------------------------------------------------------
 Center     Atomic      Atomic             Coordinates (Angstroms)
 Number     Number       Type             X           Y           Z
 ---------------------------------------------------------------------
      1          6           0       -0.649734    2.888415    0.417375
      2          6           0       -1.649995    2.501157   -0.468421
      3          6           0       -1.420084    1.458958   -1.368557
      4          6           0        0.584660    2.233964    0.398599
      5          6           0        0.818807    1.185776   -0.506689
      6          6           0       -0.193002    0.799134   -1.384185
      7          6           0        1.651649    2.638841    1.330423
      8          6           0        2.955411    1.924945    1.269966
      9          6           0        3.211513    0.930547    0.372921
     10          6           0        2.130646    0.451193   -0.535044
     11          8           0        1.538182    3.537462    2.157701
     12          8           0        2.277416   -0.519157   -1.252690
     13          8           0        3.871766    2.372837    2.130237
     14          1           0       -0.806028    3.690414    1.128275
     15          1           0       -2.607512    3.008799   -0.458509
     16          1           0       -2.199982    1.159621   -2.059454
     17          1           0       -0.000297   -0.015144   -2.071464
     18          1           0        3.433214    3.080694    2.641558
     19          7           0        4.451243    0.279271    0.432720
     20          7           0        4.966664    0.002223   -0.675403
     21          6           0        6.180669   -0.728224   -0.607127
     22          6           0        6.794681   -1.145563    0.583963
     23          6           0        6.762936   -1.028516   -1.842821
     24          6           0        7.955603   -1.744351   -1.894597
     25          6           0        8.566689   -2.158798   -0.712723
     26          6           0        7.984008   -1.857405    0.523433
     27          1           0        6.330561   -0.901772    1.530776
     28          1           0        6.261118   -0.695326   -2.743377
     29          1           0        8.405967   -1.978842   -2.852135
     30          1           0        9.495829   -2.716492   -0.749566
     31          1           0        8.465004   -2.181730    1.439466
 ---------------------------------------------------------------------

 SCF Done:  E(UB3LYP) =  -951.103982407     A.U. after    1 cycles

 Alpha  occ. eigenvalues --  -19.18335 -19.15108 -19.13097 -14.37405 -14.37103
 Alpha  occ. eigenvalues --  -10.29598 -10.28615 -10.27522 -10.23363 -10.21877
 Alpha  occ. eigenvalues --  -10.21753 -10.21347 -10.20970 -10.20947 -10.20842
 Alpha  occ. eigenvalues --  -10.20541 -10.19180 -10.18900 -10.18865 -10.18784
 Alpha  occ. eigenvalues --  -10.18725  -1.11499  -1.07133  -1.06915  -1.04649
 Alpha  occ. eigenvalues --   -0.90099  -0.88041  -0.84972  -0.80709  -0.78827
 Alpha  occ. eigenvalues --   -0.77085  -0.76251  -0.71936  -0.68983  -0.66337
 Alpha  occ. eigenvalues --   -0.64091  -0.62097  -0.61449  -0.59219  -0.57977
 Alpha  occ. eigenvalues --   -0.55524  -0.53452  -0.52204  -0.50387  -0.50165
 Alpha  occ. eigenvalues --   -0.48512  -0.47868  -0.47050  -0.46665  -0.46059
 Alpha  occ. eigenvalues --   -0.45159  -0.44789  -0.43959  -0.43343  -0.42543
 Alpha  occ. eigenvalues --   -0.41622  -0.40942  -0.40470  -0.39012  -0.38186
 Alpha  occ. eigenvalues --   -0.38000  -0.37567  -0.36728  -0.35911  -0.30799
 Alpha  occ. eigenvalues --   -0.29837  -0.29057  -0.28719  -0.28413  -0.27013
 Alpha  occ. eigenvalues --   -0.25373  -0.23014
 Alpha virt. eigenvalues --   -0.13159  -0.09090  -0.05973  -0.02883  -0.02360
 Alpha virt. eigenvalues --   -0.01255  -0.00553  -0.00022   0.00836   0.01015
 Alpha virt. eigenvalues --    0.01224   0.02186   0.02413   0.02514   0.03614

  Beta  occ. eigenvalues --  -19.18335 -19.15108 -19.13097 -14.37405 -14.37103
  Beta  occ. eigenvalues --  -10.29598 -10.28615 -10.27522 -10.23363 -10.21877
  Beta  occ. eigenvalues --  -10.21753 -10.21347 -10.20970 -10.20947 -10.20842
  Beta  occ. eigenvalues --  -10.20541 -10.19180 -10.18900 -10.18865 -10.18784
  Beta  occ. eigenvalues --  -10.18725  -1.11499  -1.07133  -1.06915  -1.04649
  Beta  occ. eigenvalues --   -0.90099  -0.88041  -0.84972  -0.80709  -0.78827
  Beta  occ. eigenvalues --   -0.77085  -0.76251  -0.71936  -0.68983  -0.66337
  Beta  occ. eigenvalues --   -0.64091  -0.62097  -0.61449  -0.59219  -0.57977
  Beta  occ. eigenvalues --   -0.55524  -0.53452  -0.52204  -0.50387  -0.50165
  Beta  occ. eigenvalues --   -0.48512  -0.47868  -0.47050  -0.46665  -0.46059
  Beta  occ. eigenvalues --   -0.45159  -0.44789  -0.43959  -0.43343  -0.42543
  Beta  occ. eigenvalues --   -0.41622  -0.40942  -0.40470  -0.39012  -0.38186
  Beta  occ. eigenvalues --   -0.38000  -0.37567  -0.36728  -0.35911  -0.30799
  Beta  occ. eigenvalues --   -0.29837  -0.29057  -0.28719  -0.28413  -0.27013
  Beta  occ. eigenvalues --   -0.25373  -0.23014
  Beta virt. eigenvalues --   -0.13159  -0.09090  -0.05973  -0.02883  -0.02360
  Beta virt. eigenvalues --   -0.01255  -0.00553  -0.00022   0.00836   0.01015
  Beta virt. eigenvalues --    0.01224   0.02186   0.02413   0.02514   0.03614

 Mulliken charges and spin densities:
               1          2
     1  C    0.147467   0.000000
     2  C   -0.269792  -0.000000
     3  C   -0.312631   0.000000
     4  C    0.683071  -0.000000
     5  C    0.328659  -0.000000
     6  C    0.206032   0.000000
     7  C   -0.718330  -0.000000
     8  C   -0.124655   0.000000
     9  C    0.308383  -0.000000
    10  C   -0.799651   0.000000
    11  O   -0.274755   0.000000
    12  O   -0.166733  -0.000000
    13  O   -0.174472  -0.000000
    14  H    0.182157  -0.000000
    15  H    0.182487  -0.000000
    16  H    0.179737   0.000000
    17  H    0.185034  -0.000000
    18  H    0.290331  -0.000000
    19  N    0.103329   0.000000
    20  N    0.119397  -0.000000
    21  C   -0.362746   0.000000
    22  C    0.047127   0.000000
    23  C   -0.001949  -0.000000
    24  C   -0.101118   0.000000
    25  C   -0.308532  -0.000000
    26  C   -0.248894   0.000000
    27  H    0.193250  -0.000000
    28  H    0.189562  -0.000000
    29  H    0.180168   0.000000
    30  H    0.154662  -0.000000
    31  H    0.183407   0.000000
 Sum of Mulliken charges =   0.00000   0.00000

 Dipole moment (field-independent basis, Debye):
    X=             -1.3755    Y=              0.2812    Z=             -0.6369  Tot=              1.5416
 Quadrupole moment (field-independent basis, Debye-Ang):
   XX=            -99.5917   YY=           -120.6962   ZZ=           -117.3223
   XY=            -12.4067   XZ=              1.0325   YZ=             -2.9071

  Exact polarizability: 344.480-107.821 208.703  -5.376  57.811 200.056
 Approx polarizability: 452.675-139.753 367.292 -16.368 138.418 382.254

                      1                      2                      3
                      A                      A                      A
 Frequencies --     22.5840                34.0395                45.0720
 Red. masses --      4.0650                 6.7719                 6.4458
 Frc consts  --      0.0012                 0.0046                 0.0077
 IR Inten    --      0.4938                 1.8958                 1.6341

                      4                      5                      6
                      A                      A                      A
 Frequencies --     74.3761               105.8300               123.0295
 Red. masses --      9.5585                 5.3720                 6.7228
 Frc consts  --      0.0312                 0.0354                 0.0600
 IR Inten    --      1.4670                 0.0644                 1.1590

                      7                      8                      9
                      A                      A                      A
 Frequencies --    130.2306               167.0927               188.7795
 Red. masses --      6.5669                 6.8739                 7.1670
 Frc consts  --      0.0656                 0.1131                 0.1505
 IR Inten    --      0.1025                 0.4662                 1.1457

                     10                     11                     12
                      A                      A                      A
 Frequencies --    254.5321               268.4441               279.8278
 Red. masses --      6.3722                 6.7479                 6.3715
 Frc consts  --      0.2432                 0.2865                 0.2940
 IR Inten    --      0.3804                 1.2937                 3.4323

                     13                     14                     15
                      A                      A                      A
 Frequencies --    350.7870               358.0033               387.2899
 Red. masses --      6.2310                 6.2465                10.1917
 Frc consts  --      0.4517                 0.4717                 0.9007
 IR Inten    --      3.0829                12.4524                20.5834

                     16                     17                     18
                      A                      A                      A
 Frequencies --    411.2361               418.5805               421.4669
 Red. masses --     10.5087                 2.9326                 4.5804
 Frc consts  --      1.0471                 0.3027                 0.4794
 IR Inten    --      6.3729                 0.1180                 0.6306

                     19                     20                     21
                      A                      A                      A
 Frequencies --    444.2068               451.6315               473.4576
 Red. masses --      5.0101                 7.0654                 7.3961
 Frc consts  --      0.5825                 0.8491                 0.9768
 IR Inten    --      2.1918                 9.6022                 3.8569

                     22                     23                     24
                      A                      A                      A
 Frequencies --    517.8587               525.2518               589.8970
 Red. masses --      5.6823                 4.9872                 6.8283
 Frc consts  --      0.8978                 0.8107                 1.4000
 IR Inten    --      6.9286                 1.4764                 7.2949

                     25                     26                     27
                      A                      A                      A
 Frequencies --    614.2443               628.6645               667.9432
 Red. masses --      7.4508                 6.4917                 6.4851
 Frc consts  --      1.6563                 1.5116                 1.7047
 IR Inten    --      8.6417                 0.0512                 5.3169

                     28                     29                     30
                      A                      A                      A
 Frequencies --    670.0505               694.7365               699.2397
 Red. masses --      1.1351                 2.7364                 3.1884
 Frc consts  --      0.3003                 0.7782                 0.9185
 IR Inten    --     73.7085                16.6874                31.8055

                     31                     32                     33
                      A                      A                      A
 Frequencies --    718.9276               731.3988               736.1608
 Red. masses --      5.2179                 3.3507                 4.2770
 Frc consts  --      1.5890                 1.0561                 1.3656
 IR Inten    --      7.1655                55.1416                21.3039

                     34                     35                     36
                      A                      A                      A
 Frequencies --    767.2105               786.7868               803.7186
 Red. masses --      6.1970                 1.8661                 1.8008
 Frc consts  --      2.1491                 0.6806                 0.6854
 IR Inten    --      2.7520                32.1784                26.7834

                     37                     38                     39
                      A                      A                      A
 Frequencies --    855.5139               863.6662               912.5454
 Red. masses --      1.2489                 6.8180                 1.4119
 Frc consts  --      0.5386                 2.9964                 0.6927
 IR Inten    --      0.4071                11.4075                 1.2278

                     40                     41                     42
                      A                      A                      A
 Frequencies --    916.0124               951.5846               982.2232
 Red. masses --      4.9024                 1.4287                 8.6358
 Frc consts  --      2.4236                 0.7622                 4.9088
 IR Inten    --      6.9554                 4.1285               138.1517

                     43                     44                     45
                      A                      A                      A
 Frequencies --    995.7731               997.9656              1006.9931
 Red. masses --      1.3676                 1.3778                 1.3024
 Frc consts  --      0.7990                 0.8085                 0.7781
 IR Inten    --      0.0460                 1.5604                 0.1207

                     46                     47                     48
                      A                      A                      A
 Frequencies --   1015.5272              1016.1805              1038.3486
 Red. masses --      6.1238                 1.3290                 2.1030
 Frc consts  --      3.7209                 0.8086                 1.3359
 IR Inten    --      3.1885                 0.1189                18.3227

                     49                     50                     51
                      A                      A                      A
 Frequencies --   1047.6107              1066.0263              1098.3379
 Red. masses --      3.6568                 2.6013                 1.4841
 Frc consts  --      2.3646                 1.7417                 1.0548
 IR Inten    --     20.2068                38.4861                 7.0297

                     52                     53                     54
                      A                      A                      A
 Frequencies --   1113.1557              1162.7487              1179.5638
 Red. masses --      2.1543                 1.8477                 1.3715
 Frc consts  --      1.5728                 1.4718                 1.1243
 IR Inten    --      0.6005               194.9519                 8.5045

                     55                     56                     57
                      A                      A                      A
 Frequencies --   1181.9398              1189.3704              1223.2235
 Red. masses --      1.1449                 1.6184                 2.5541
 Frc consts  --      0.9424                 1.3488                 2.2517
 IR Inten    --      6.9757                12.4741                23.9869

                     58                     59                     60
                      A                      A                      A
 Frequencies --   1233.8883              1291.2061              1301.8082
 Red. masses --      2.5466                 5.4905                 2.0985
 Frc consts  --      2.2844                 5.3933                 2.0954
 IR Inten    --     20.9719               141.7927                59.7891

                     61                     62                     63
                      A                      A                      A
 Frequencies --   1313.3086              1337.4195              1350.6745
 Red. masses --      2.3765                 1.5409                 5.0510
 Frc consts  --      2.4150                 1.6239                 5.4291
 IR Inten    --    422.1456                14.6538                11.5714

                     64                     65                     66
                      A                      A                      A
 Frequencies --   1362.8684              1393.4717              1480.6340
 Red. masses --      6.4895                 2.5620                 2.3739
 Frc consts  --      7.1018                 2.9311                 3.0662
 IR Inten    --     61.9144               566.3094                21.9905

                     67                     68                     69
                      A                      A                      A
 Frequencies --   1484.1234              1504.5584              1506.7480
 Red. masses --      2.3907                 2.3947                 2.5513
 Frc consts  --      3.1026                 3.1939                 3.4127
 IR Inten    --      8.9808                 3.8591                 6.7694

                     70                     71                     72
                      A                      A                      A
 Frequencies --   1545.6393              1612.6687              1622.4054
 Red. masses --      6.9641                 6.6199                 5.9354
 Frc consts  --      9.8024                10.1436                 9.2049
 IR Inten    --     43.1023                 2.3676                 3.0052

                     73                     74                     75
                      A                      A                      A
 Frequencies --   1627.5455              1637.9014              1673.1646
 Red. masses --      5.8896                 5.9738                 7.5593
 Frc consts  --      9.1918                 9.4422                12.4683
 IR Inten    --     63.9111                 1.5400                43.2835

                     76                     77                     78
                      A                      A                      A
 Frequencies --   1697.6258              1724.8279              3164.6197
 Red. masses --     11.1661                12.7249                 1.0860
 Frc consts  --     18.9599                22.3047                 6.4080
 IR Inten    --    299.7452               145.6083                 0.7083

                     79                     80                     81
                      A                      A                      A
 Frequencies --   3172.6395              3175.7938              3185.9245
 Red. masses --      1.0871                 1.0896                 1.0934
 Frc consts  --      6.4471                 6.4750                 6.5391
 IR Inten    --      3.1977                10.7650                20.9794

                     82                     83                     84
                      A                      A                      A
 Frequencies --   3186.6277              3197.1580              3200.5062
 Red. masses --      1.0916                 1.0957                 1.0933
 Frc consts  --      6.5309                 6.5987                 6.5979
 IR Inten    --      8.1722                11.3523                 1.3974

                     85                     86                     87
                      A                      A                      A
 Frequencies --   3203.7585              3206.5841              3603.0498
 Red. masses --      1.0948                 1.0929                 1.0640
 Frc consts  --      6.6208                 6.6210                 8.1386
 IR Inten    --      9.9754                 3.9456               202.7046

 - Thermochemistry -
 -------------------
 Temperature   298.150 Kelvin.  Pressure   1.00000 Atm.
 Atom     1 has atomic number  6 and mass  12.00000

 Molecular mass:   278.06914 amu.
 Principal axes and moments of inertia in atomic units:
                           1         2         3
     Eigenvalues --  2298.13886********************
           X            0.89476   0.32395   0.30734
           Y           -0.43843   0.50675   0.74228
           Z           -0.08472   0.79891  -0.59545
 This molecule is an asymmetric top.
 Rotational symmetry number  1.
 Warning -- assumption of classical behavior for rotation
           may cause significant error
 Rotational temperatures (Kelvin)      0.03769     0.00731     0.00627
 Rotational constants (GHZ):           0.78531     0.15231     0.13060
 Zero-point vibrational energy     594400.8 (Joules/Mol)
                                  142.06519 (Kcal/Mol)
 Warning -- explicit consideration of  25 degrees of freedom as
           vibrations may cause significant error
 Vibrational temperatures:     32.49    48.98    64.85   107.01   152.27
          (Kelvin)            177.01   187.37   240.41   271.61   366.21
                              386.23   402.61   504.70   515.09   557.22
                              591.68   602.24   606.40   639.11   649.80
                              681.20   745.08   755.72   848.73   883.76
                              904.51   961.02   964.05   999.57  1006.05
                             1034.38  1052.32  1059.17  1103.84  1132.01
                             1156.37  1230.89  1242.62  1312.95  1317.94
                             1369.12  1413.20  1432.70  1435.85  1448.84
                             1461.12  1462.06  1493.95  1507.28  1533.77
                             1580.26  1601.58  1672.94  1697.13  1700.55
                             1711.24  1759.95  1775.29  1857.76  1873.01
                             1889.56  1924.25  1943.32  1960.86  2004.89
                             2130.30  2135.32  2164.72  2167.87  2223.83
                             2320.27  2334.28  2341.67  2356.57  2407.31
                             2442.50  2481.64  4553.18  4564.72  4569.26
                             4583.83  4584.85  4600.00  4604.81  4609.49
                             4613.56  5183.99

 Zero-point correction=                           0.226395 (Hartree/Particle)
 Thermal correction to Energy=                    0.242741
 Thermal correction to Enthalpy=                  0.243685
 Thermal correction to Gibbs Free Energy=         0.180615
 Sum of electronic and zero-point Energies=           -950.877587
 Sum of electronic and thermal Energies=              -950.861242
 Sum of electronic and thermal Enthalpies=            -950.860298
 Sum of electronic and thermal Free Energies=         -950.923367

                     E (Thermal)             CV                S
                      KCal/Mol        Cal/Mol-Kelvin    Cal/Mol-Kelvin
 Total                  152.322             63.942            132.742
 Electronic               0.000              0.000              0.000
 Translational            0.889              2.981             42.766
 Rotational               0.889              2.981             34.286
 Vibrational            150.545             57.980             55.689
 Vibration     1          0.593              1.985              6.393
 Vibration     2          0.594              1.983              5.579
 Vibration     3          0.595              1.979              5.023
 Vibration     4          0.599              1.966              4.034
 Vibration     5          0.605              1.945              3.344
 Vibration     6          0.610              1.930              3.052
 Vibration     7          0.612              1.923              2.943
 Vibration     8          0.624              1.883              2.468
 Vibration     9          0.633              1.855              2.240
 Vibration    10          0.665              1.755              1.699
 Vibration    11          0.673              1.731              1.606
 Vibration    12          0.680              1.711              1.535
 Vibration    13          0.728              1.574              1.163
 Vibration    14          0.733              1.559              1.131
 Vibration    15          0.756              1.497              1.011
 Vibration    16          0.775              1.446              0.922
 Vibration    17          0.781              1.430              0.897
 Vibration    18          0.784              1.424              0.887
 Vibration    19          0.804              1.374              0.813
 Vibration    20          0.810              1.357              0.791
 Vibration    21          0.830              1.309              0.728
 Vibration    22          0.873              1.210              0.615
 Vibration    23          0.880              1.194              0.598
 Vibration    24          0.947              1.053              0.467
 Vibration    25          0.974              1.002              0.426

                           ! Non-Optimized Parameters !
 Normal termination of Gaussian 16 at Thu Dec 28 23:27:43 2023.
