 Gaussian 16, Revision A.03,
 Gaussian 16:  ES64L-G16RevA.03 25-Dec-2016

 ----------------------------------------------------------------------
 #P UB3LYP/6-311++G(d,p) nosym opt freq SCRF=(PCM,Solvent=n,n-DiMethylF
 ormamide)
 ----------------------------------------------------------------------

 --------
 Oxidized
 --------
 Symbolic Z-matrix:
 Charge =  0 Multiplicity = 1

 SCF Done:  E(UB3LYP) =  -649.858502625     A.U. after   14 cycles
 SCF Done:  E(UB3LYP) =  -649.858588463     A.U. after   12 cycles
 SCF Done:  E(UB3LYP) =  -649.858594934     A.U. after   11 cycles
 SCF Done:  E(UB3LYP) =  -649.858600910     A.U. after   10 cycles
 SCF Done:  E(UB3LYP) =  -649.858601770     A.U. after   10 cycles
 Optimization completed.
    -- Stationary point found.
 Normal termination of Gaussian 16 at Sun Feb 11 15:13:18 2024.

 ----------------------------------------------------------------------
 #P Geom=AllCheck Guess=TCheck SCRF=Check GenChk UB3LYP/6-311++G(d,p) F
 req
 ----------------------------------------------------------------------

 Structure from the checkpoint file:  "307.chk"
 --------
 Oxidized
 --------
 Charge =  0 Multiplicity = 1

                          Input orientation:
 ---------------------------------------------------------------------
 Center     Atomic      Atomic             Coordinates (Angstroms)
 Number     Number       Type             X           Y           Z
 ---------------------------------------------------------------------
      1          6           0       -3.421920   -0.724751   -0.380621
      2          6           0       -2.032220   -0.267043   -0.067462
      3          6           0       -1.757597    0.695559    0.833651
      4          6           0       -0.394871    1.145937    1.141410
      5          8           0       -0.215006    2.040481    1.987036
      6          6           0        0.725723    0.521951    0.436184
      7          6           0        2.052693    0.924945    0.698590
      8          8           0        2.343817    1.884085    1.593355
      9          6           0        3.113618    0.313797    0.010523
     10          6           0        2.855862   -0.678664   -0.919622
     11          6           0        1.543554   -1.088622   -1.190282
     12          6           0        0.485409   -0.493115   -0.518032
     13          6           0       -0.911353   -0.929597   -0.807762
     14          8           0       -1.152485   -1.805706   -1.626975
     15          1           0       -4.156102   -0.179291    0.211871
     16          1           0       -3.526593   -1.794951   -0.181714
     17          1           0       -3.642181   -0.581523   -1.442205
     18          1           0       -2.548000    1.193520    1.385271
     19          1           0        1.487008    2.194980    1.974212
     20          1           0        4.125359    0.636055    0.224852
     21          1           0        3.681721   -1.143720   -1.444795
     22          1           0        1.343564   -1.864330   -1.917485
 ---------------------------------------------------------------------

 SCF Done:  E(UB3LYP) =  -649.858601770     A.U. after    1 cycles

 Alpha  occ. eigenvalues --  -19.16682 -19.14505 -19.13956 -10.29122 -10.28799
 Alpha  occ. eigenvalues --  -10.27057 -10.22494 -10.21398 -10.20949 -10.20778
 Alpha  occ. eigenvalues --  -10.20494 -10.19877 -10.19798 -10.18015  -1.09371
 Alpha  occ. eigenvalues --   -1.07097  -1.06371  -0.89277  -0.85169  -0.79404
 Alpha  occ. eigenvalues --   -0.77551  -0.73431  -0.69472  -0.66125  -0.62955
 Alpha  occ. eigenvalues --   -0.60934  -0.55190  -0.54302  -0.53751  -0.49873
 Alpha  occ. eigenvalues --   -0.48297  -0.47345  -0.46884  -0.46655  -0.44265
 Alpha  occ. eigenvalues --   -0.43670  -0.42444  -0.41621  -0.41018  -0.40713
 Alpha  occ. eigenvalues --   -0.40559  -0.38960  -0.38160  -0.36043  -0.30438
 Alpha  occ. eigenvalues --   -0.29809  -0.28423  -0.28248  -0.25498
 Alpha virt. eigenvalues --   -0.13226  -0.05249  -0.03694  -0.00648   0.00384
 Alpha virt. eigenvalues --    0.00903   0.02159   0.02276   0.02484   0.03369
 Alpha virt. eigenvalues --    0.04064   0.04819   0.05079   0.05101   0.05851

  Beta  occ. eigenvalues --  -19.16682 -19.14505 -19.13956 -10.29122 -10.28799
  Beta  occ. eigenvalues --  -10.27057 -10.22494 -10.21398 -10.20949 -10.20778
  Beta  occ. eigenvalues --  -10.20494 -10.19877 -10.19798 -10.18015  -1.09371
  Beta  occ. eigenvalues --   -1.07097  -1.06371  -0.89277  -0.85169  -0.79404
  Beta  occ. eigenvalues --   -0.77551  -0.73431  -0.69472  -0.66125  -0.62955
  Beta  occ. eigenvalues --   -0.60934  -0.55190  -0.54302  -0.53751  -0.49873
  Beta  occ. eigenvalues --   -0.48297  -0.47345  -0.46884  -0.46655  -0.44265
  Beta  occ. eigenvalues --   -0.43670  -0.42444  -0.41621  -0.41018  -0.40713
  Beta  occ. eigenvalues --   -0.40559  -0.38960  -0.38160  -0.36043  -0.30438
  Beta  occ. eigenvalues --   -0.29809  -0.28423  -0.28248  -0.25498
  Beta virt. eigenvalues --   -0.13226  -0.05249  -0.03694  -0.00648   0.00384
  Beta virt. eigenvalues --    0.00903   0.02159   0.02276   0.02484   0.03369
  Beta virt. eigenvalues --    0.04064   0.04819   0.05079   0.05101   0.05851

 Mulliken charges and spin densities:
               1          2
     1  C   -0.295129   0.000000
     2  C    0.635465  -0.000000
     3  C   -0.395768   0.000000
     4  C   -0.938611  -0.000000
     5  O   -0.339972   0.000000
     6  C    0.994824   0.000000
     7  C   -0.243739  -0.000000
     8  O   -0.316187   0.000000
     9  C   -0.046984   0.000000
    10  C   -0.398357  -0.000000
    11  C   -0.048585   0.000000
    12  C    0.361933  -0.000000
    13  C   -0.433246   0.000000
    14  O   -0.272624   0.000000
    15  H    0.175896   0.000000
    16  H    0.192045  -0.000000
    17  H    0.192143  -0.000000
    18  H    0.206236   0.000000
    19  H    0.349875   0.000000
    20  H    0.217037  -0.000000
    21  H    0.218763   0.000000
    22  H    0.184985   0.000000
 Sum of Mulliken charges =  -0.00000  -0.00000

 Dipole moment (field-independent basis, Debye):
    X=             -0.5701    Y=             -0.9369    Z=             -0.8571  Tot=              1.3919
 Quadrupole moment (field-independent basis, Debye-Ang):
   XX=            -66.3801   YY=            -90.1920   ZZ=            -88.2888
   XY=             -6.2958   XZ=             -7.4635   YZ=             -7.6589

  Exact polarizability: 252.699  17.285 177.007   1.843  77.525 169.195
 Approx polarizability: 280.304  23.346 227.924   6.641 109.699 216.615

                      1                      2                      3
                      A                      A                      A
 Frequencies --     57.7931                98.3395               142.6913
 Red. masses --      5.8033                 5.8877                 1.2918
 Frc consts  --      0.0114                 0.0335                 0.0155
 IR Inten    --     11.3942                 0.4721                 0.1922

                      4                      5                      6
                      A                      A                      A
 Frequencies --    170.0977               197.6106               250.5784
 Red. masses --      3.9956                 3.1427                 3.9877
 Frc consts  --      0.0681                 0.0723                 0.1475
 IR Inten    --      1.1990                 0.2543                 0.1422

                      7                      8                      9
                      A                      A                      A
 Frequencies --    251.6677               312.6853               357.6377
 Red. masses --      4.8263                 4.4063                 3.9205
 Frc consts  --      0.1801                 0.2538                 0.2954
 IR Inten    --      0.0507                 4.5177                 0.0637

                     10                     11                     12
                      A                      A                      A
 Frequencies --    367.4066               411.1983               436.4660
 Red. masses --      7.3714                 9.6924                 8.5962
 Frc consts  --      0.5863                 0.9656                 0.9648
 IR Inten    --      6.7555                33.0144                23.9636

                     13                     14                     15
                      A                      A                      A
 Frequencies --    463.6989               473.3552               511.8431
 Red. masses --      3.9256                 6.2435                 7.3504
 Frc consts  --      0.4973                 0.8242                 1.1346
 IR Inten    --      0.0272                16.6872                 2.8204

                     16                     17                     18
                      A                      A                      A
 Frequencies --    552.2647               601.4563               667.1715
 Red. masses --      4.6400                 7.6679                 4.2967
 Frc consts  --      0.8338                 1.6343                 1.1268
 IR Inten    --      5.6056                22.9681                 1.8653

                     19                     20                     21
                      A                      A                      A
 Frequencies --    670.4388               688.0951               720.9419
 Red. masses --      3.4206                 5.9703                 3.3840
 Frc consts  --      0.9059                 1.6655                 1.0363
 IR Inten    --      6.1597                26.5189                 2.2594

                     22                     23                     24
                      A                      A                      A
 Frequencies --    758.8170               773.2859               798.5550
 Red. masses --      2.0448                 1.5835                 4.6981
 Frc consts  --      0.6937                 0.5579                 1.7652
 IR Inten    --    143.9655                89.5794                 2.1947

                     25                     26                     27
                      A                      A                      A
 Frequencies --    817.5176               908.8335               912.9666
 Red. masses --      1.5914                 1.4592                 6.7523
 Frc consts  --      0.6267                 0.7101                 3.3160
 IR Inten    --     25.4783                27.5966                44.4818

                     28                     29                     30
                      A                      A                      A
 Frequencies --    933.5947              1000.3886              1008.0930
 Red. masses --      1.4447                 2.5648                 1.3210
 Frc consts  --      0.7419                 1.5123                 0.7910
 IR Inten    --      2.4366                39.7144                 0.1986

                     31                     32                     33
                      A                      A                      A
 Frequencies --   1044.7356              1054.8502              1072.2421
 Red. masses --      2.4268                 1.5467                 2.4435
 Frc consts  --      1.5606                 1.0140                 1.6552
 IR Inten    --     43.8633                 5.6508                16.3187

                     34                     35                     36
                      A                      A                      A
 Frequencies --   1132.5192              1180.5105              1207.2841
 Red. masses --      2.0880                 1.2610                 2.2768
 Frc consts  --      1.5779                 1.0354                 1.9552
 IR Inten    --      2.0432                35.9795                28.4728

                     37                     38                     39
                      A                      A                      A
 Frequencies --   1251.2920              1269.8653              1326.3373
 Red. masses --      2.0117                 3.0420                 3.6167
 Frc consts  --      1.8558                 2.8902                 3.7486
 IR Inten    --    398.5013               533.2717                35.5948

                     40                     41                     42
                      A                      A                      A
 Frequencies --   1364.6670              1386.8897              1395.9724
 Red. masses --      2.2467                 4.3288                 3.1586
 Frc consts  --      2.4652                 4.9057                 3.6265
 IR Inten    --    125.8188               171.1818               169.2815

                     43                     44                     45
                      A                      A                      A
 Frequencies --   1408.5987              1458.2352              1468.9966
 Red. masses --      1.3602                 1.0432                 1.0783
 Frc consts  --      1.5902                 1.3070                 1.3709
 IR Inten    --     17.1429                13.9726                34.5649

                     46                     47                     48
                      A                      A                      A
 Frequencies --   1477.5838              1502.9063              1602.5438
 Red. masses --      2.3959                 3.0100                 4.1726
 Frc consts  --      3.0819                 4.0058                 6.3137
 IR Inten    --    130.3159               174.5017                82.1347

                     49                     50                     51
                      A                      A                      A
 Frequencies --   1624.3048              1638.6822              1675.1383
 Red. masses --      6.2229                 7.0594                 8.1240
 Frc consts  --      9.6734                11.1688                13.4315
 IR Inten    --      4.5772               624.2651               689.1656

                     52                     53                     54
                      A                      A                      A
 Frequencies --   1703.1112              3036.5060              3086.6265
 Red. masses --      9.6840                 1.0367                 1.0990
 Frc consts  --     16.5497                 5.6319                 6.1690
 IR Inten    --    120.2106                10.1286                 9.7258

                     55                     56                     57
                      A                      A                      A
 Frequencies --   3128.3459              3177.5056              3184.2297
 Red. masses --      1.1025                 1.0920                 1.0882
 Frc consts  --      6.3569                 6.4961                 6.5006
 IR Inten    --     18.7230                 9.7688                 7.1511

                     58                     59                     60
                      A                      A                      A
 Frequencies --   3198.9134              3210.5962              3330.1117
 Red. masses --      1.0938                 1.0938                 1.0682
 Frc consts  --      6.5946                 6.6430                 6.9796
 IR Inten    --      7.6377                 5.1578               412.7392

 - Thermochemistry -
 -------------------
 Temperature   298.150 Kelvin.  Pressure   1.00000 Atm.
 Atom     1 has atomic number  6 and mass  12.00000

 Molecular mass:   188.04734 amu.
 Principal axes and moments of inertia in atomic units:
                           1         2         3
     Eigenvalues --  1588.492902778.295454355.72080
           X            0.92729  -0.36828   0.06710
           Y            0.30921   0.65252  -0.69182
           Z            0.21099   0.66226   0.71895
 This molecule is an asymmetric top.
 Rotational symmetry number  1.
 Warning -- assumption of classical behavior for rotation
           may cause significant error
 Rotational temperatures (Kelvin)      0.05453     0.03118     0.01989
 Rotational constants (GHZ):           1.13613     0.64959     0.41434
 Zero-point vibrational energy     430150.8 (Joules/Mol)
                                  102.80850 (Kcal/Mol)
 Warning -- explicit consideration of  17 degrees of freedom as
           vibrations may cause significant error
 Vibrational temperatures:     83.15   141.49   205.30   244.73   284.32
          (Kelvin)            360.53   362.09   449.88   514.56   528.62
                              591.62   627.98   667.16   681.05   736.43
                              794.59   865.36   959.91   964.61   990.02
                             1037.27  1091.77  1112.59  1148.94  1176.23
                             1307.61  1313.56  1343.23  1439.34  1450.42
                             1503.14  1517.69  1542.72  1629.44  1698.49
                             1737.01  1800.33  1827.05  1908.30  1963.45
                             1995.42  2008.49  2026.66  2098.08  2113.56
                             2125.91  2162.35  2305.70  2337.01  2357.70
                             2410.15  2450.40  4368.85  4440.97  4500.99
                             4571.72  4581.40  4602.52  4619.33  4791.29

 Zero-point correction=                           0.163836 (Hartree/Particle)
 Thermal correction to Energy=                    0.175033
 Thermal correction to Enthalpy=                  0.175977
 Thermal correction to Gibbs Free Energy=         0.126784
 Sum of electronic and zero-point Energies=           -649.694766
 Sum of electronic and thermal Energies=              -649.683569
 Sum of electronic and thermal Enthalpies=            -649.682625
 Sum of electronic and thermal Free Energies=         -649.731818

                     E (Thermal)             CV                S
                      KCal/Mol        Cal/Mol-Kelvin    Cal/Mol-Kelvin
 Total                  109.835             44.028            103.535
 Electronic               0.000              0.000              0.000
 Translational            0.889              2.981             41.600
 Rotational               0.889              2.981             31.331
 Vibrational            108.057             38.066             30.604
 Vibration     1          0.596              1.974              4.531
 Vibration     2          0.604              1.950              3.487
 Vibration     3          0.616              1.911              2.767
 Vibration     4          0.625              1.879              2.434
 Vibration     5          0.637              1.843              2.155
 Vibration     6          0.663              1.762              1.727
 Vibration     7          0.664              1.760              1.719
 Vibration     8          0.701              1.649              1.348
 Vibration     9          0.733              1.560              1.132
 Vibration    10          0.740              1.539              1.091
 Vibration    11          0.775              1.446              0.922
 Vibration    12          0.797              1.391              0.838
 Vibration    13          0.821              1.331              0.755
 Vibration    14          0.830              1.309              0.728
 Vibration    15          0.867              1.224              0.629
 Vibration    16          0.908              1.135              0.539
 Vibration    17          0.960              1.029              0.447

 Optimization completed.
    -- Stationary point found.
 Normal termination of Gaussian 16 at Sun Feb 11 15:41:52 2024.
