 Gaussian 16, Revision A.03,
 Gaussian 16:  ES64L-G16RevA.03 25-Dec-2016

 ----------------------------------------------------------------------
 #P UB3LYP/6-311++G(d,p) nosym opt freq SCRF=(PCM,Solvent=n,n-DiMethylF
 ormamide)
 ----------------------------------------------------------------------

 --------
 Oxidized
 --------
 Symbolic Z-matrix:
 Charge =  0 Multiplicity = 1

 SCF Done:  E(UB3LYP) =  -727.241602034     A.U. after   14 cycles
 SCF Done:  E(UB3LYP) =  -727.241673754     A.U. after   11 cycles
 SCF Done:  E(UB3LYP) =  -727.241683672     A.U. after   10 cycles
 SCF Done:  E(UB3LYP) =  -727.241684036     A.U. after    9 cycles
 Optimization completed.
    -- Stationary point found.
 Normal termination of Gaussian 16 at Sat Feb 10 10:37:49 2024.

 ----------------------------------------------------------------------
 #P Geom=AllCheck Guess=TCheck SCRF=Check GenChk UB3LYP/6-311++G(d,p) F
 req
 ----------------------------------------------------------------------

 Structure from the checkpoint file:  "065.chk"
 --------
 Oxidized
 --------
 Charge =  0 Multiplicity = 1

                          Input orientation:
 ---------------------------------------------------------------------
 Center     Atomic      Atomic             Coordinates (Angstroms)
 Number     Number       Type             X           Y           Z
 ---------------------------------------------------------------------
      1          6           0       -1.353072   -2.033802    1.120015
      2          6           0       -1.420352   -1.996684   -0.359226
      3          6           0       -0.795201   -1.044034   -1.060967
      4          6           0       -0.009799    0.011289   -0.376251
      5          6           0        0.059916   -0.023242    1.099616
      6          6           0       -0.562689   -0.973404    1.815635
      7          8           0       -1.927380   -2.907843    1.755521
      8          8           0        0.564061    0.884132   -1.016894
      9          6           0       -0.530314   -1.061013    3.313038
     10          8           0        0.252370    0.005006    3.826051
     11          6           0        0.405573    0.113222    5.185093
     12          6           0       -0.162021   -0.761532    6.114705
     13          6           0        1.191043    1.187955    5.619343
     14          6           0        1.405697    1.383897    6.978267
     15          6           0        0.063733   -0.550280    7.478433
     16          6           0        0.842973    0.515383    7.918624
     17          1           0       -2.001630   -2.781362   -0.829628
     18          1           0       -0.831561   -0.998338   -2.143279
     19          1           0        0.638979    0.757508    1.576411
     20          1           0       -0.113011   -2.030454    3.610955
     21          1           0       -1.555099   -1.014505    3.700396
     22          1           0       -0.771813   -1.597846    5.801203
     23          1           0        1.621956    1.854585    4.881603
     24          1           0        2.015269    2.218831    7.305063
     25          1           0       -0.379578   -1.232632    8.194973
     26          1           0        1.011880    0.670447    8.977569
 ---------------------------------------------------------------------

 SCF Done:  E(UB3LYP) =  -727.241684036     A.U. after    1 cycles

 Alpha  occ. eigenvalues --  -19.17099 -19.15075 -19.14677 -10.29618 -10.29158
 Alpha  occ. eigenvalues --  -10.25187 -10.24832 -10.22858 -10.21717 -10.21632
 Alpha  occ. eigenvalues --  -10.21119 -10.18533 -10.18476 -10.18349 -10.18085
 Alpha  occ. eigenvalues --  -10.17699  -1.08811  -1.07969  -1.07376  -0.87721
 Alpha  occ. eigenvalues --   -0.86384  -0.81757  -0.76612  -0.75836  -0.73085
 Alpha  occ. eigenvalues --   -0.70095  -0.64558  -0.62601  -0.60574  -0.59842
 Alpha  occ. eigenvalues --   -0.55754  -0.52377  -0.51927  -0.50212  -0.49873
 Alpha  occ. eigenvalues --   -0.49221  -0.48265  -0.46153  -0.45537  -0.45201
 Alpha  occ. eigenvalues --   -0.44449  -0.43593  -0.42932  -0.42628  -0.41009
 Alpha  occ. eigenvalues --   -0.39677  -0.38292  -0.37250  -0.34547  -0.34153
 Alpha  occ. eigenvalues --   -0.31779  -0.30061  -0.29847  -0.28686  -0.26803
 Alpha  occ. eigenvalues --   -0.24010
 Alpha virt. eigenvalues --   -0.14216  -0.03562  -0.02456  -0.01325  -0.00744
 Alpha virt. eigenvalues --   -0.00717   0.00135   0.00711   0.01282   0.02070
 Alpha virt. eigenvalues --    0.02956   0.03107   0.03455   0.03709   0.05532

  Beta  occ. eigenvalues --  -19.17099 -19.15075 -19.14677 -10.29618 -10.29158
  Beta  occ. eigenvalues --  -10.25187 -10.24832 -10.22858 -10.21717 -10.21632
  Beta  occ. eigenvalues --  -10.21119 -10.18533 -10.18476 -10.18349 -10.18085
  Beta  occ. eigenvalues --  -10.17699  -1.08811  -1.07969  -1.07376  -0.87721
  Beta  occ. eigenvalues --   -0.86384  -0.81757  -0.76612  -0.75836  -0.73085
  Beta  occ. eigenvalues --   -0.70095  -0.64558  -0.62601  -0.60574  -0.59842
  Beta  occ. eigenvalues --   -0.55754  -0.52377  -0.51927  -0.50212  -0.49873
  Beta  occ. eigenvalues --   -0.49221  -0.48265  -0.46153  -0.45537  -0.45201
  Beta  occ. eigenvalues --   -0.44449  -0.43593  -0.42932  -0.42628  -0.41009
  Beta  occ. eigenvalues --   -0.39677  -0.38292  -0.37250  -0.34547  -0.34153
  Beta  occ. eigenvalues --   -0.31779  -0.30061  -0.29847  -0.28686  -0.26803
  Beta  occ. eigenvalues --   -0.24010
  Beta virt. eigenvalues --   -0.14216  -0.03562  -0.02456  -0.01325  -0.00744
  Beta virt. eigenvalues --   -0.00717   0.00135   0.00711   0.01282   0.02070
  Beta virt. eigenvalues --    0.02956   0.03107   0.03455   0.03709   0.05532

 Mulliken charges and spin densities:
               1          2
     1  C   -1.231375   0.000000
     2  C    0.302563  -0.000000
     3  C    0.139357   0.000000
     4  C   -0.392524   0.000000
     5  C   -0.480622  -0.000000
     6  C    0.848764   0.000000
     7  O   -0.253799   0.000000
     8  O   -0.286426   0.000000
     9  C   -0.105021   0.000000
    10  O   -0.115064  -0.000000
    11  C    0.479888   0.000000
    12  C   -0.024068  -0.000000
    13  C   -0.087617   0.000000
    14  C   -0.248906   0.000000
    15  C   -0.327404   0.000000
    16  C   -0.396153   0.000000
    17  H    0.243052  -0.000000
    18  H    0.249754   0.000000
    19  H    0.230849   0.000000
    20  H    0.253181   0.000000
    21  H    0.252449   0.000000
    22  H    0.174347  -0.000000
    23  H    0.182815  -0.000000
    24  H    0.204596   0.000000
    25  H    0.214706   0.000000
    26  H    0.172658  -0.000000
 Sum of Mulliken charges =  -0.00000   0.00000

 Dipole moment (field-independent basis, Debye):
    X=             -1.0206    Y=             -1.5060    Z=              0.7556  Tot=              1.9699
 Quadrupole moment (field-independent basis, Debye-Ang):
   XX=            -95.7340   YY=            -97.3117   ZZ=            -81.4219
   XY=             -0.9715   XZ=              4.9273   YZ=              5.8791

  Exact polarizability: 165.166  70.502 218.960 -11.605 -29.426 268.060
 Approx polarizability: 201.494  98.320 279.230 -32.676 -60.259 297.021

                      1                      2                      3
                      A                      A                      A
 Frequencies --     29.2112                34.4713                65.5489
 Red. masses --      4.6067                 5.1397                 6.3322
 Frc consts  --      0.0023                 0.0036                 0.0160
 IR Inten    --      0.3013                 0.1978                 0.0416

                      4                      5                      6
                      A                      A                      A
 Frequencies --     78.1671               109.7113               170.8914
 Red. masses --      7.1051                 4.0872                 3.3442
 Frc consts  --      0.0256                 0.0290                 0.0575
 IR Inten    --     11.9837                19.8542                 0.5581

                      7                      8                      9
                      A                      A                      A
 Frequencies --    182.8099               228.9196               233.5428
 Red. masses --      6.9068                 7.3785                 4.9481
 Frc consts  --      0.1360                 0.2278                 0.1590
 IR Inten    --      0.0501                 2.5738                 1.2520

                     10                     11                     12
                      A                      A                      A
 Frequencies --    260.4861               386.7401               422.2051
 Red. masses --      3.9524                 3.0909                 9.8496
 Frc consts  --      0.1580                 0.2724                 1.0345
 IR Inten    --      0.5891                 2.8801                48.2640

                     13                     14                     15
                      A                      A                      A
 Frequencies --    422.5242               447.6216               460.1789
 Red. masses --      2.9965                 6.1457                 8.3168
 Frc consts  --      0.3152                 0.7255                 1.0377
 IR Inten    --      0.0189                 1.7934                 1.0931

                     16                     17                     18
                      A                      A                      A
 Frequencies --    497.6439               516.0010               582.8772
 Red. masses --      6.7324                 2.7804                 2.1846
 Frc consts  --      0.9823                 0.4362                 0.4373
 IR Inten    --      1.3450                16.6266                 0.4752

                     19                     20                     21
                      A                      A                      A
 Frequencies --    590.1137               604.7615               627.7817
 Red. masses --      5.1084                 7.0287                 6.3939
 Frc consts  --      1.0481                 1.5146                 1.4847
 IR Inten    --      2.6887                 7.5239                 0.7974

                     22                     23                     24
                      A                      A                      A
 Frequencies --    701.2950               725.0104               764.5546
 Red. masses --      2.0741                 5.6774                 1.7129
 Frc consts  --      0.6010                 1.7583                 0.5899
 IR Inten    --     46.8113                 0.6545               113.0150

                     25                     26                     27
                      A                      A                      A
 Frequencies --    785.3808               787.1672               813.9874
 Red. masses --      5.6702                 6.4744                 1.4762
 Frc consts  --      2.0607                 2.3636                 0.5763
 IR Inten    --     12.9514                 0.0688                17.5657

                     28                     29                     30
                      A                      A                      A
 Frequencies --    829.0223               851.0198               897.9706
 Red. masses --      1.2656                 6.8006                 1.4508
 Frc consts  --      0.5125                 2.9019                 0.6893
 IR Inten    --      2.8357                30.8852                 8.7939

                     31                     32                     33
                      A                      A                      A
 Frequencies --    915.2121               927.6177               977.6624
 Red. masses --      3.0021                 1.6077                 1.3481
 Frc consts  --      1.4816                 0.8151                 0.7592
 IR Inten    --     15.1598                88.2336                 0.0177

                     34                     35                     36
                      A                      A                      A
 Frequencies --    996.1760              1008.0653              1010.1338
 Red. masses --      1.2720                 5.9631                 1.2585
 Frc consts  --      0.7437                 3.5703                 0.7566
 IR Inten    --      0.0856                 1.0234                 0.0096

                     37                     38                     39
                      A                      A                      A
 Frequencies --   1026.8433              1035.7252              1050.4629
 Red. masses --      1.7127                 3.3481                 2.8215
 Frc consts  --      1.0640                 2.1161                 1.8344
 IR Inten    --      0.0047                40.2326               177.6265

                     40                     41                     42
                      A                      A                      A
 Frequencies --   1098.0431              1110.8039              1146.9474
 Red. masses --      1.7650                 2.0957                 1.6469
 Frc consts  --      1.2538                 1.5235                 1.2764
 IR Inten    --      1.1855                53.1868                46.3006

                     43                     44                     45
                      A                      A                      A
 Frequencies --   1173.3237              1192.5098              1225.3962
 Red. masses --      1.1092                 1.1550                 1.6589
 Frc consts  --      0.8997                 0.9677                 1.4676
 IR Inten    --      6.4498                36.1127                 4.7790

                     46                     47                     48
                      A                      A                      A
 Frequencies --   1251.3000              1259.1166              1292.5072
 Red. masses --      4.8724                 1.0680                 3.2667
 Frc consts  --      4.4948                 0.9976                 3.2153
 IR Inten    --    646.6639                 1.9160                72.2539

                     49                     50                     51
                      A                      A                      A
 Frequencies --   1325.3704              1342.2748              1354.8000
 Red. masses --      3.2998                 2.1385                 1.6689
 Frc consts  --      3.4152                 2.2701                 1.8048
 IR Inten    --     71.6911                27.3437                 4.0373

                     52                     53                     54
                      A                      A                      A
 Frequencies --   1388.6242              1430.6100              1476.6689
 Red. masses --      1.7583                 1.8018                 1.1789
 Frc consts  --      1.9976                 2.1727                 1.5146
 IR Inten    --      4.9818                36.5409                59.4574

                     55                     56                     57
                      A                      A                      A
 Frequencies --   1484.1450              1520.2424              1620.5784
 Red. masses --      1.9971                 2.1412                 5.8526
 Frc consts  --      2.5918                 2.9156                 9.0561
 IR Inten    --     15.9557               141.7198                67.3823

                     58                     59                     60
                      A                      A                      A
 Frequencies --   1634.4219              1651.5067              1678.6335
 Red. masses --      5.7735                 7.9399                10.6370
 Frc consts  --      9.0870                12.7593                17.6595
 IR Inten    --    102.6107                59.1943                 8.8431

                     61                     62                     63
                      A                      A                      A
 Frequencies --   1689.3212              1715.4702              3009.2209
 Red. masses --     11.2189                 8.1952                 1.0555
 Frc consts  --     18.8636                14.2094                 5.6312
 IR Inten    --   1221.6109                 4.8668                28.9093

                     64                     65                     66
                      A                      A                      A
 Frequencies --   3041.6691              3167.8872              3174.7540
 Red. masses --      1.1049                 1.0858                 1.0893
 Frc consts  --      6.0225                 6.4201                 6.4688
 IR Inten    --     18.5177                 2.1032                13.6123

                     67                     68                     69
                      A                      A                      A
 Frequencies --   3184.1690              3186.5089              3194.0197
 Red. masses --      1.0877                 1.0927                 1.0970
 Frc consts  --      6.4976                 6.5368                 6.5937
 IR Inten    --      3.2211                28.8987                16.4748

                     70                     71                     72
                      A                      A                      A
 Frequencies --   3200.2441              3205.8849              3208.1484
 Red. masses --      1.0995                 1.0922                 1.0928
 Frc consts  --      6.6348                 6.6140                 6.6269
 IR Inten    --      2.3978                 0.5749                 5.4423

 - Thermochemistry -
 -------------------
 Temperature   298.150 Kelvin.  Pressure   1.00000 Atm.
 Atom     1 has atomic number  6 and mass  12.00000

 Molecular mass:   214.06299 amu.
 Principal axes and moments of inertia in atomic units:
                           1         2         3
     Eigenvalues --  1396.274917504.173168889.18710
           X            0.18704   0.54560   0.81691
           Y            0.18292   0.79770  -0.57465
           Z            0.96517  -0.25691  -0.04940
 This molecule is an asymmetric top.
 Rotational symmetry number  1.
 Warning -- assumption of classical behavior for rotation
           may cause significant error
 Rotational temperatures (Kelvin)      0.06203     0.01154     0.00974
 Rotational constants (GHZ):           1.29254     0.24050     0.20303
 Zero-point vibrational energy     518525.2 (Joules/Mol)
                                  123.93049 (Kcal/Mol)
 Warning -- explicit consideration of  20 degrees of freedom as
           vibrations may cause significant error
 Vibrational temperatures:     42.03    49.60    94.31   112.46   157.85
          (Kelvin)            245.87   263.02   329.36   336.02   374.78
                              556.43   607.46   607.92   644.03   662.09
                              716.00   742.41   838.63   849.04   870.12
                              903.24  1009.01  1043.13  1100.02  1129.99
                             1132.56  1171.15  1192.78  1224.43  1291.98
                             1316.79  1334.63  1406.64  1433.28  1450.38
                             1453.36  1477.40  1490.18  1511.38  1579.84
                             1598.20  1650.20  1688.15  1715.76  1763.07
                             1800.34  1811.59  1859.63  1906.91  1931.23
                             1949.26  1997.92  2058.33  2124.60  2135.35
                             2187.29  2331.65  2351.57  2376.15  2415.18
                             2430.56  2468.18  4329.60  4376.28  4557.88
                             4567.76  4581.31  4584.68  4595.48  4604.44
                             4612.55  4615.81

 Zero-point correction=                           0.197496 (Hartree/Particle)
 Thermal correction to Energy=                    0.210872
 Thermal correction to Enthalpy=                  0.211816
 Thermal correction to Gibbs Free Energy=         0.155391
 Sum of electronic and zero-point Energies=           -727.044188
 Sum of electronic and thermal Energies=              -727.030812
 Sum of electronic and thermal Enthalpies=            -727.029868
 Sum of electronic and thermal Free Energies=         -727.086293

                     E (Thermal)             CV                S
                      KCal/Mol        Cal/Mol-Kelvin    Cal/Mol-Kelvin
 Total                  132.324             50.944            118.757
 Electronic               0.000              0.000              0.000
 Translational            0.889              2.981             41.987
 Rotational               0.889              2.981             32.899
 Vibrational            130.547             44.982             43.872
 Vibration     1          0.593              1.984              5.882
 Vibration     2          0.594              1.983              5.554
 Vibration     3          0.597              1.971              4.283
 Vibration     4          0.599              1.964              3.936
 Vibration     5          0.606              1.941              3.274
 Vibration     6          0.626              1.878              2.426
 Vibration     7          0.630              1.863              2.300
 Vibration     8          0.652              1.797              1.887
 Vibration     9          0.654              1.790              1.852
 Vibration    10          0.669              1.745              1.659
 Vibration    11          0.755              1.498              1.013
 Vibration    12          0.785              1.422              0.885
 Vibration    13          0.785              1.421              0.883
 Vibration    14          0.807              1.366              0.803
 Vibration    15          0.818              1.338              0.766
 Vibration    16          0.853              1.255              0.664
 Vibration    17          0.871              1.215              0.619
 Vibration    18          0.940              1.068              0.480
 Vibration    19          0.947              1.053              0.467
 Vibration    20          0.963              1.022              0.442

                           ! Non-Optimized Parameters !
 Normal termination of Gaussian 16 at Sat Feb 10 11:13:45 2024.
