 Q-Chem 5.4, Q-Chem, Inc., Pleasanton, CA (2021)
 Q-Chem 5.4.0 for Intel X86 EM64T Linux

User input:
--------------------------------------------------------------
$molecule
0 1
C                 -1.6481450000      3.4030620000     -0.3207740000
C                 -2.6517800000      3.4351720000      0.6421260000
C                 -2.6514290000      2.5024890000      1.6811920000
C                 -0.6438830000      2.4351290000     -0.2407900000
C                 -0.6401810000      1.4961290000      0.8021110000
C                 -1.6503560000      1.5363760000      1.7619860000
C                  0.4269190000      2.3840690000     -1.2496560000
C                  1.4786850000      1.3337450000     -1.1180540000
C                  1.5100650000      0.4118970000     -0.1211920000
C                  0.4348040000      0.4495650000      0.9004070000
O                  0.5112070000      3.1562870000     -2.1988370000
O                  0.4072820000     -0.3553110000      1.8208860000
O                  2.4018270000      1.3842120000     -2.0932640000
C                  2.5794080000     -0.6466200000      0.0106470000
C                  2.5756060000     -1.6547180000     -1.1764640000
C                  3.9970190000     -0.0683140000      0.2029010000
C                  4.9858710000     -1.1841990000      0.6046550000
C                  4.6851600000     -2.5602270000     -0.0555130000
C                  3.9526650000     -2.3193960000     -1.3872560000
C                  5.9613040000     -3.4291300000     -0.1859980000
C                  5.6863170000     -4.8181910000     -0.7989190000
C                  6.6762610000     -3.6049610000      1.1710810000
C                  7.9444430000     -4.4648750000      1.0706520000
C                  7.6536250000     -5.8362430000      0.4508650000
C                  6.9518310000     -5.6829180000     -0.9031530000
H                 -1.6263380000      4.1153050000     -1.1364610000
H                 -3.4331520000      4.1841020000      0.5848990000
H                 -3.4343140000      2.5290000000      2.4306790000
H                 -1.6356220000      0.8059800000      2.5611870000
H                  2.1413460000      2.1294250000     -2.6690960000
H                  2.3326910000     -1.1972090000      0.9207500000
H                  2.2783660000     -1.1533970000     -2.1000510000
H                  1.8211540000     -2.4221820000     -0.9750220000
H                  3.9866130000      0.7080500000      0.9738120000
H                  4.3198230000      0.4158350000     -0.7217320000
H                  4.9817970000     -1.2943670000      1.6928210000
H                  5.9985110000     -0.8655660000      0.3307270000
H                  3.9946310000     -3.1097070000      0.6011990000
H                  3.8056670000     -3.2515800000     -1.9359410000
H                  4.5794840000     -1.6839490000     -2.0251040000
H                  6.6517190000     -2.8972090000     -0.8601470000
H                  5.2423170000     -4.7195160000     -1.7926070000
H                  4.9440760000     -5.3374810000     -0.1762620000
H                  5.9766090000     -4.0758630000      1.8762970000
H                  6.9342200000     -2.6316300000      1.5960870000
H                  8.3934050000     -4.5819820000      2.0628120000
H                  8.6871930000     -3.9409740000      0.4544840000
H                  7.0099220000     -6.4112400000      1.1296150000
H                  8.5797200000     -6.4099910000      0.3384910000
H                  6.6963300000     -6.6656280000     -1.3138050000
H                  7.6453990000     -5.2198670000     -1.6175110000
$end
$rem
MAX_SCF_CYCLES=200
BASIS  =  6-311++G(d,p)
GUI  =  2
JOB_TYPE  =  SP
SCF_CONVERGENCE  = 6
METHOD  =  B3LYP
SOLVENT_METHOD = COSMO
$end
$solvent
dielectric 37.219
opticaldielectric 1.43
$end

--------------------------------------------------------------

             Standard Nuclear Orientation (Angstroms)
    I     Atom           X                Y                Z
 ----------------------------------------------------------------
    1      C       5.8984263146    -0.3797711631     0.0184776504
    2      C       6.6788413393     0.7653866902    -0.1042275068
    3      C       6.0686681490     2.0146943364    -0.2325822381
    4      C       4.5055816004    -0.2712160759     0.0127076892
    5      C       3.8887431951     0.9827032757    -0.1160317448
    6      C       4.6794233904     2.1242899045    -0.2386619406
    7      C       3.6619492120    -1.4707200961     0.1411956328
    8      C       2.1793496113    -1.3017557444     0.1333993639
    9      C       1.5527902578    -0.1030402774     0.0108151382
   10      C       2.3909758180     1.1138250398    -0.1231750834
   11      O       4.1031011432    -2.6093947336     0.2559768190
   12      O       1.8854325845     2.2214395209    -0.2392811796
   13      O       1.5138367679    -2.4626017438     0.2570999516
   14      C       0.0516153166     0.0636954362     0.0081298622
   15      C      -0.6268679288    -0.6277040673    -1.2113519013
   16      C      -0.6213778010    -0.4020445494     1.3162532917
   17      C      -2.0979583085     0.0481792212     1.3542328794
   18      C      -2.7940877679     0.0433957507    -0.0368396725
   19      C      -2.0994893789    -0.9970561029    -0.9329875018
   20      C      -4.3262679133    -0.1518953299     0.0850113157
   21      C      -5.0498266967    -0.1180953382    -1.2773765555
   22      C      -4.9643222754     0.8932570301     1.0253764788
   23      C      -6.4842921598     0.7237797571     1.1624628061
   24      C      -7.1843299495     0.7500488441    -0.2008486968
   25      C      -6.5710382410    -0.2884210601    -1.1468094025
   26      H       6.3476790930    -1.3601495566     0.1191805054
   27      H       7.7598249735     0.6868308092    -0.1001491594
   28      H       6.6783876905     2.9060204889    -0.3280929187
   29      H       4.1906470889     3.0854173161    -0.3374013538
   30      H       2.1982064371    -3.1567630366     0.3245796846
   31      H      -0.1212598248     1.1386327148    -0.0751109226
   32      H      -0.0804476111    -1.5317961419    -1.4883531039
   33      H      -0.5712999312     0.0516955436    -2.0681517947
   34      H      -0.0902674819     0.0077336887     2.1806355797
   35      H      -0.5496451740    -1.4894090375     1.3939820603
   36      H      -2.1577225308     1.0507666908     1.7872518546
   37      H      -2.6454120650    -0.6147281099     2.0345648296
   38      H      -2.6370557461     1.0287320195    -0.4999623374
   39      H      -2.6144258856    -1.1072556853    -1.8891920287
   40      H      -2.1516074977    -1.9768138896    -0.4421683898
   41      H      -4.4950510349    -1.1463945476     0.5283771472
   42      H      -4.6620187705    -0.8968885221    -1.9387197236
   43      H      -4.8344199293     0.8421413216    -1.7671020169
   44      H      -4.7477881193     1.8964130088     0.6311909096
   45      H      -4.5061273845     0.8457793043     2.0165119331
   46      H      -6.8880717326     1.5062457094     1.8139008175
   47      H      -6.6969527466    -0.2325071771     1.6585511036
   48      H      -7.0790314258     1.7496864520    -0.6427916100
   49      H      -8.2586417022     0.5725566161    -0.0833012619
   50      H      -7.0371654968    -0.2256727591    -2.1359619702
   51      H      -6.7883318599    -1.2950304563    -0.7656517474
 ----------------------------------------------------------------

   11   -1079.9846882223      5.81e-07  Convergence criterion met
 Total energy in the final basis set =    -1079.9846882223
    6   -1079.9982699624      9.37e-07  Convergence criterion met
 Total energy in the final basis set =    -1079.9982699624

                    Orbital Energies (a.u.)
 --------------------------------------------------------------

 Alpha MOs
 -- Occupied --
-19.1759 -19.1497 -19.1303 -10.2934 -10.2821 -10.2666 -10.2099 -10.2090
-10.2026 -10.2001 -10.1979 -10.1963 -10.1962 -10.1778 -10.1637 -10.1627
-10.1617 -10.1604 -10.1570 -10.1559 -10.1557 -10.1555 -10.1549 -10.1538
-10.1537  -1.1077  -1.0663  -1.0646  -0.8921  -0.8501  -0.8334  -0.8145
 -0.7832  -0.7790  -0.7535  -0.7382  -0.7301  -0.7147  -0.6904  -0.6551
 -0.6450  -0.6185  -0.6121  -0.6038  -0.5931  -0.5828  -0.5704  -0.5468
 -0.5420  -0.5338  -0.5107  -0.4957  -0.4832  -0.4803  -0.4703  -0.4684
 -0.4674  -0.4557  -0.4517  -0.4427  -0.4368  -0.4319  -0.4291  -0.4238
 -0.4158  -0.4102  -0.4093  -0.3920  -0.3861  -0.3850  -0.3776  -0.3757
 -0.3719  -0.3679  -0.3644  -0.3603  -0.3507  -0.3428  -0.3344  -0.3283
 -0.3221  -0.3109  -0.3089  -0.3045  -0.2964  -0.2895  -0.2859  -0.2805
 -0.2797  -0.2761  -0.2537

          Ground-State Mulliken Net Atomic Charges

     Atom                 Charge (a.u.)
  ----------------------------------------
      1 C                     0.089110
      2 C                    -0.418821
      3 C                    -0.503590
      4 C                     0.493152
      5 C                     0.207791
      6 C                     0.111352
      7 C                    -0.457186
      8 C                    -0.429467
      9 C                     0.882006
     10 C                    -0.566943
     11 O                    -0.327411
     12 O                    -0.287655
     13 O                    -0.193480
     14 C                     0.848270
     15 C                    -0.927331
     16 C                    -1.180010
     17 C                    -0.349923
     18 C                     0.516895
     19 C                    -0.639382
     20 C                     0.154083
     21 C                    -0.296823
     22 C                    -0.224054
     23 C                    -0.430334
     24 C                    -0.406148
     25 C                    -0.522593
     26 H                     0.207714
     27 H                     0.232438
     28 H                     0.230491
     29 H                     0.209420
     30 H                     0.322552
     31 H                     0.274880
     32 H                     0.195922
     33 H                     0.197365
     34 H                     0.206436
     35 H                     0.191604
     36 H                     0.156209
     37 H                     0.175620
     38 H                     0.169513
     39 H                     0.142180
     40 H                     0.181859
     41 H                     0.163962
     42 H                     0.144047
     43 H                     0.170122
     44 H                     0.171098
     45 H                     0.165004
     46 H                     0.178889
     47 H                     0.146573
     48 H                     0.127813
     49 H                     0.178204
     50 H                     0.178668
     51 H                     0.139829
  ----------------------------------------
  Sum of atomic charges =    -0.000080

                    Cartesian Multipole Moments
 -----------------------------------------------------------------
    Charge (ESU x 10^10)
                -0.0004
    Dipole Moment (Debye)
         X       2.9568      Y      -0.1449      Z       0.0307
       Tot       2.9605
    Quadrupole Moments (Debye-Ang)
        XX    -119.8696     XY      10.5119     YY    -156.9673
        XZ      -1.0604     YZ       0.2810     ZZ    -152.6231

 Total job time:  243.84s(wall), 1904.06s(cpu)
        *  Thank you very much for using Q-Chem.  Have a nice day.  *
