 Q-Chem 5.4, Q-Chem, Inc., Pleasanton, CA (2021)
 Q-Chem 5.4.0 for Intel X86 EM64T Linux

User input:
--------------------------------------------------------------
$molecule
-1 2
C                  0.0947190000     -0.6311830000      2.1770150000
C                 -0.4043370000     -1.1279270000      0.9079570000
C                 -0.2272290000     -0.4390520000     -0.2551190000
C                  0.4550690000      0.8416690000     -0.3264760000
C                  0.9393480000      1.3671320000      0.9472030000
C                  0.7869120000      0.6326630000      2.1109320000
O                 -0.0653170000     -1.2632360000      3.2601070000
O                  0.6334980000      1.4162770000     -1.4364310000
H                 -0.9226470000     -2.0829020000      0.9252280000
H                 -0.5883560000     -0.8292780000     -1.2026470000
C                  1.6746260000      2.6671690000      1.0779230000
C                  1.1781420000      3.9860350000      0.4081000000
C                 -0.3255380000      3.9709530000      0.0801550000
C                  1.4605210000      5.1421130000      1.3905380000
C                  2.0029360000      4.2078370000     -0.8802410000
O                  2.6658550000      2.7277730000      1.7931670000
H                 -0.5570520000      3.2308590000     -0.6842270000
H                 -0.6254980000      4.9573860000     -0.2930050000
H                 -0.9227240000      3.7564340000      0.9719550000
H                  0.8833510000      5.0270880000      2.3138180000
H                  1.1752540000      6.0935720000      0.9285660000
H                  2.5165140000      5.1803710000      1.6594940000
H                  1.8284420000      3.3938190000     -1.5846700000
H                  3.0702470000      4.2593450000     -0.6448340000
H                  1.7088190000      5.1559810000     -1.3466280000
H                  1.1900650000      1.0177200000      3.0414590000
$end
$rem
MAX_SCF_CYCLES=200
BASIS  =  6-311++G(d,p)
GUI  =  2
JOB_TYPE  =  SP
METHOD  =  B3LYP
SOLVENT_METHOD = COSMO
$end
$solvent
dielectric 37.219
opticaldielectric 1.43
$end

--------------------------------------------------------------

             Standard Nuclear Orientation (Angstroms)
    I     Atom           X                Y                Z
 ----------------------------------------------------------------
    1      C       2.8129128743    -0.7325519702    -0.1580097292
    2      C       3.1052672788     0.6889316765    -0.1732689623
    3      C       2.1353629468     1.6260028175     0.0263432987
    4      C       0.7401053703     1.2920347268     0.2556689878
    5      C       0.4260646723    -0.1342188975     0.2470232776
    6      C       1.4319934416    -1.0716107167     0.0846948456
    7      O       3.7059887194    -1.6081020947    -0.3424502644
    8      O      -0.1108233833     2.1969612538     0.4815884441
    9      H       4.1395747547     0.9746335671    -0.3450341193
   10      H       2.3685825982     2.6871708237     0.0317662898
   11      C      -0.9528629718    -0.6773320872     0.4737483815
   12      C      -2.2100456208    -0.1152234107    -0.2597994099
   13      C      -1.8697084177     0.6267368430    -1.5645961382
   14      C      -3.1277860007    -1.3102761279    -0.5930264550
   15      C      -2.9490747210     0.8303421948     0.7143902415
   16      O      -1.1043865787    -1.6460346318     1.2061674770
   17      H      -1.3011072678     1.5342336805    -1.3677207330
   18      H      -2.7984859077     0.9060088671    -2.0761173610
   19      H      -1.2942036103    -0.0104597578    -2.2433681682
   20      H      -2.6428766520    -1.9989634518    -1.2925796062
   21      H      -4.0492772847    -0.9456714669    -1.0599170992
   22      H      -3.3832950644    -1.8723025015     0.3057302943
   23      H      -2.3124815206     1.6768212956     0.9742284711
   24      H      -3.2280602711     0.2946380114     1.6267555144
   25      H      -3.8661523716     1.2021809097     0.2414174715
   26      H       1.1881794260    -2.1278964857     0.1233837627
 ----------------------------------------------------------------

    9    -652.3065747133      6.32e-06  Convergence criterion met
 Total energy in the final basis set =     -652.3065747133
    4    -652.3891086858      7.57e-06  Convergence criterion met
 Total energy in the final basis set =     -652.3891086858

                    Orbital Energies (a.u.)
 --------------------------------------------------------------

 Alpha MOs
 -- Occupied --
-19.1154 -19.0895 -19.0863 -10.2623 -10.2349 -10.2288 -10.1857 -10.1813
-10.1754 -10.1724 -10.1715 -10.1505 -10.1499 -10.1476  -1.0484  -1.0111
 -1.0088  -0.8333  -0.8099  -0.7611  -0.6970  -0.6795  -0.6777  -0.6404
 -0.5933  -0.5817  -0.5084  -0.4878  -0.4787  -0.4668  -0.4554  -0.4393
 -0.4314  -0.4233  -0.4210  -0.4148  -0.4008  -0.3892  -0.3847  -0.3739
 -0.3698  -0.3662  -0.3625  -0.3557  -0.3248  -0.3211  -0.2910  -0.2706
 -0.2600  -0.2528  -0.2425  -0.1753

 Beta MOs
 -- Occupied --
-19.1151 -19.0820 -19.0800 -10.2623 -10.2337 -10.2276 -10.1857 -10.1804
-10.1733 -10.1717 -10.1706 -10.1505 -10.1499 -10.1476  -1.0478  -0.9996
 -0.9959  -0.8271  -0.8095  -0.7584  -0.6875  -0.6795  -0.6768  -0.6373
 -0.5899  -0.5791  -0.5059  -0.4859  -0.4754  -0.4651  -0.4535  -0.4381
 -0.4293  -0.4221  -0.4111  -0.4088  -0.3919  -0.3826  -0.3778  -0.3678
 -0.3649  -0.3629  -0.3607  -0.3480  -0.3245  -0.3203  -0.2650  -0.2592
 -0.2535  -0.2464  -0.2381

          Ground-State Mulliken Net Atomic Charges

     Atom                 Charge (a.u.)    Spin (a.u.)
  --------------------------------------------------------
      1 C                    -0.356899       0.118728
      2 C                     0.017152       0.066077
      3 C                    -0.349176       0.044250
      4 C                    -0.783529       0.094979
      5 C                     1.768218       0.057003
      6 C                    -0.054567       0.127283
      7 O                    -0.528809       0.257591
      8 O                    -0.453878       0.230634
      9 H                     0.213308      -0.004279
     10 H                     0.215446      -0.007451
     11 C                    -1.055801       0.011669
     12 C                     0.876451       0.000783
     13 C                    -0.736573      -0.000617
     14 C                    -0.582458      -0.000432
     15 C                    -0.578912       0.008076
     16 O                    -0.297105       0.008333
     17 H                     0.140907       0.000128
     18 H                     0.158727      -0.000128
     19 H                     0.141114      -0.000314
     20 H                     0.165449      -0.000026
     21 H                     0.155077       0.000283
     22 H                     0.174664      -0.000022
     23 H                     0.193493      -0.002240
     24 H                     0.163250       0.000257
     25 H                     0.164350       0.000284
     26 H                     0.230103      -0.010849
  --------------------------------------------------------
  Sum of atomic charges =    -1.000000

                    Cartesian Multipole Moments
 -----------------------------------------------------------------
    Charge (ESU x 10^10)
                -4.8032
    Dipole Moment (Debye)
         X      -7.1738      Y       2.4288      Z      -2.6872
       Tot       8.0364
    Quadrupole Moments (Debye-Ang)
        XX    -118.3322     XY      16.1959     YY    -109.7780
        XZ       6.2325     YZ       0.2781     ZZ     -91.9453

 Total job time:  56.84s(wall), 425.53s(cpu)
        *  Thank you very much for using Q-Chem.  Have a nice day.  *
