 Gaussian 16, Revision A.03,
 Gaussian 16:  ES64L-G16RevA.03 25-Dec-2016

 ----------------------------------------------------------------
 #P UB3LYP/6-311++G(d,p) SCRF=(PCM,Solvent=n,n-DiMethylFormamide)
 ----------------------------------------------------------------

 -------
 Reduced
 -------
 Symbolic Z-matrix:
 Charge = -2 Multiplicity = 1

                         Standard orientation:
 ---------------------------------------------------------------------
 Center     Atomic      Atomic             Coordinates (Angstroms)
 Number     Number       Type             X           Y           Z
 ---------------------------------------------------------------------
      1          6           0       -4.857276   -0.769192    0.006643
      2          6           0       -3.458320   -0.206659   -0.008272
      3          6           0       -3.258779    1.208555   -0.007522
      4          6           0       -2.000870    1.763072   -0.001991
      5          8           0       -1.852020    3.122327   -0.004261
      6          6           0       -0.833452    0.918981    0.000331
      7          6           0        0.471734    1.486478    0.000721
      8          8           0        0.638280    2.814685    0.001028
      9          6           0        1.596490    0.612675    0.000878
     10          6           0        2.936785    1.143226    0.003544
     11          8           0        3.128896    2.498203    0.005982
     12          6           0        4.019600    0.294622    0.003713
     13          6           0        3.838747   -1.118477    0.001406
     14          6           0        2.578031   -1.669231   -0.001192
     15          8           0        2.426169   -3.029247   -0.002365
     16          6           0        1.412549   -0.820095   -0.001627
     17          6           0        0.104765   -1.385031   -0.005714
     18          8           0       -0.062192   -2.714876   -0.014532
     19          6           0       -1.019329   -0.511733   -0.002068
     20          6           0       -2.361302   -1.043241    0.000256
     21          8           0       -2.540912   -2.402064    0.018470
     22          1           0       -5.293243   -0.779052    1.019085
     23          1           0       -4.864937   -1.799581   -0.355913
     24          1           0       -5.530037   -0.170475   -0.622319
     25          1           0       -4.118253    1.874638   -0.016843
     26          1           0       -0.848209    3.260692   -0.002501
     27          1           0        2.191426    2.880686    0.004327
     28          1           0        5.017881    0.723131    0.005831
     29          1           0        4.697314   -1.784170    0.001835
     30          1           0        1.422457   -3.165257   -0.007045
     31          1           0       -1.596414   -2.776543    0.004316
 ---------------------------------------------------------------------

 SCF Done:  E(UB3LYP) =  -1029.57665489     A.U. after   15 cycles

 The electronic state is 1-A.
 Alpha  occ. eigenvalues --  -19.10763 -19.10742 -19.10713 -19.10371 -19.06251
 Alpha  occ. eigenvalues --  -19.06158 -10.20649 -10.20624 -10.20614 -10.20138
 Alpha  occ. eigenvalues --  -10.19987 -10.19869 -10.15668 -10.15613 -10.15608
 Alpha  occ. eigenvalues --  -10.15516 -10.15224 -10.15173 -10.14499 -10.14450
 Alpha  occ. eigenvalues --  -10.14176  -1.02874  -1.02647  -1.02081  -1.01805
 Alpha  occ. eigenvalues --   -0.96023  -0.95790  -0.83669  -0.81696  -0.77413
 Alpha  occ. eigenvalues --   -0.73555  -0.72132  -0.70727  -0.68077  -0.64949
 Alpha  occ. eigenvalues --   -0.62226  -0.59999  -0.57417  -0.56138  -0.52369
 Alpha  occ. eigenvalues --   -0.50288  -0.49566  -0.48994  -0.48680  -0.48580
 Alpha  occ. eigenvalues --   -0.44601  -0.42438  -0.42079  -0.41998  -0.40495
 Alpha  occ. eigenvalues --   -0.40090  -0.39732  -0.39133  -0.38769  -0.38407
 Alpha  occ. eigenvalues --   -0.38229  -0.37855  -0.37729  -0.36289  -0.35613
 Alpha  occ. eigenvalues --   -0.34096  -0.34066  -0.33989  -0.33091  -0.32589
 Alpha  occ. eigenvalues --   -0.31827  -0.28559  -0.27772  -0.24495  -0.24193
 Alpha  occ. eigenvalues --   -0.22986  -0.22301  -0.20344  -0.18367  -0.12296
 Alpha virt. eigenvalues --   -0.01524  -0.00731   0.00077   0.00817   0.01369
 Alpha virt. eigenvalues --    0.02136   0.02646   0.03585   0.04178   0.04254
 Alpha virt. eigenvalues --    0.04405   0.04691   0.05595   0.06260   0.06476

  Beta  occ. eigenvalues --  -19.10763 -19.10742 -19.10713 -19.10371 -19.06251
  Beta  occ. eigenvalues --  -19.06158 -10.20649 -10.20624 -10.20614 -10.20138
  Beta  occ. eigenvalues --  -10.19987 -10.19869 -10.15668 -10.15613 -10.15608
  Beta  occ. eigenvalues --  -10.15516 -10.15224 -10.15173 -10.14499 -10.14450
  Beta  occ. eigenvalues --  -10.14176  -1.02874  -1.02647  -1.02081  -1.01805
  Beta  occ. eigenvalues --   -0.96023  -0.95790  -0.83669  -0.81696  -0.77413
  Beta  occ. eigenvalues --   -0.73555  -0.72132  -0.70727  -0.68077  -0.64949
  Beta  occ. eigenvalues --   -0.62226  -0.59999  -0.57417  -0.56138  -0.52369
  Beta  occ. eigenvalues --   -0.50288  -0.49566  -0.48994  -0.48680  -0.48580
  Beta  occ. eigenvalues --   -0.44601  -0.42438  -0.42079  -0.41998  -0.40495
  Beta  occ. eigenvalues --   -0.40090  -0.39732  -0.39133  -0.38769  -0.38407
  Beta  occ. eigenvalues --   -0.38229  -0.37855  -0.37729  -0.36289  -0.35613
  Beta  occ. eigenvalues --   -0.34096  -0.34066  -0.33989  -0.33091  -0.32589
  Beta  occ. eigenvalues --   -0.31827  -0.28559  -0.27772  -0.24495  -0.24193
  Beta  occ. eigenvalues --   -0.22986  -0.22301  -0.20344  -0.18367  -0.12296
  Beta virt. eigenvalues --   -0.01524  -0.00731   0.00077   0.00817   0.01369
  Beta virt. eigenvalues --    0.02136   0.02646   0.03585   0.04178   0.04254
  Beta virt. eigenvalues --    0.04405   0.04691   0.05595   0.06260   0.06476

 Mulliken charges and spin densities:
               1          2
     1  C   -0.222733  -0.000000
     2  C    0.640119  -0.000000
     3  C   -0.397442  -0.000000
     4  C   -0.354811   0.000000
     5  O   -0.476219  -0.000000
     6  C    0.559855   0.000000
     7  C   -0.454237  -0.000000
     8  O   -0.711361   0.000000
     9  C    0.426609  -0.000000
    10  C   -0.352899   0.000000
    11  O   -0.478997   0.000000
    12  C   -0.165743   0.000000
    13  C   -0.208235   0.000000
    14  C   -0.345853   0.000000
    15  O   -0.483666  -0.000000
    16  C    0.464289  -0.000000
    17  C   -0.344564   0.000000
    18  O   -0.733258  -0.000000
    19  C    0.156836   0.000000
    20  C   -0.678641   0.000000
    21  O   -0.503510  -0.000000
    22  H    0.159350  -0.000000
    23  H    0.168555  -0.000000
    24  H    0.141356   0.000000
    25  H    0.151660   0.000000
    26  H    0.416415   0.000000
    27  H    0.415413  -0.000000
    28  H    0.168066  -0.000000
    29  H    0.168064   0.000000
    30  H    0.419306   0.000000
    31  H    0.456278   0.000000
 Sum of Mulliken charges =  -2.00000  -0.00000

 Dipole moment (field-independent basis, Debye):
    X=             -3.3146    Y=             -0.5125    Z=              0.0099  Tot=              3.3540
 Quadrupole moment (field-independent basis, Debye-Ang):
   XX=           -180.8439   YY=           -194.3450   ZZ=           -132.2983
   XY=             -1.4281   XZ=              0.0190   YZ=             -0.0122

 Normal termination of Gaussian 16 at Tue Jan 16 06:29:11 2024.
