 Q-Chem 5.4, Q-Chem, Inc., Pleasanton, CA (2021)
 Q-Chem 5.4.0 for Intel X86 EM64T Linux

User input:
--------------------------------------------------------------
$molecule
-1 2
C                  2.3895730000      3.4480130000      2.8292620000
C                  3.4647290000      3.4409140000      1.8852710000
C                  3.3869650000      2.7589690000      0.6861290000
C                  2.2027800000      1.9638330000      0.3327400000
C                  1.1275990000      1.9709780000      1.2767040000
C                  1.2053640000      2.6529260000      2.4758430000
O                  2.4024800000      4.1017370000      3.9203050000
O                  2.1899120000      1.3100080000     -0.7582440000
N                  0.2169530000      2.6511080000      3.4543140000
C                 -1.1740750000      2.4276050000      3.1312820000
C                 -2.0509290000      2.5636750000      4.3744350000
N                  4.3753510000      2.7608680000     -0.2923880000
C                  5.7664090000      2.9841730000      0.0306830000
C                  6.6432110000      2.8484970000     -1.2125500000
H                  4.3393900000      4.0268870000      2.1483790000
H                  0.2529200000      1.3850400000      1.0135780000
H                  0.4208300000      3.3802440000      4.1344160000
H                 -1.2897560000      1.4186190000      2.7183220000
H                 -1.5287330000      3.1209190000      2.3468830000
H                 -1.7459960000      1.8478370000      5.1431550000
H                 -3.1023250000      2.3841670000      4.1295310000
H                 -1.9730250000      3.5692960000      4.8011060000
H                  4.1714380000      2.0317430000     -0.9724980000
H                  6.1210620000      2.2905630000      0.8148240000
H                  5.8821540000      3.9930050000      0.4439910000
H                  6.5651990000      1.8430450000     -1.6396030000
H                  7.6946330000      3.0278090000     -0.9676100000
H                  6.3383180000      3.5646530000     -1.9809880000
$end
$rem
MAX_SCF_CYCLES=200
BASIS  =  6-311++G(d,p)
GUI  =  2
JOB_TYPE  =  SP
METHOD  =  B3LYP
SOLVENT_METHOD = PCM
$end
$pcm
theory = CPCM
$end
$solvent
dielectric 37.219
opticaldielectric 1.43
$end

--------------------------------------------------------------

             Standard Nuclear Orientation (Angstroms)
    I     Atom           X                Y                Z
 ----------------------------------------------------------------
    1      C       2.3895730000     3.4480130000     2.8292620000
    2      C       3.4647290000     3.4409140000     1.8852710000
    3      C       3.3869650000     2.7589690000     0.6861290000
    4      C       2.2027800000     1.9638330000     0.3327400000
    5      C       1.1275990000     1.9709780000     1.2767040000
    6      C       1.2053640000     2.6529260000     2.4758430000
    7      O       2.4024800000     4.1017370000     3.9203050000
    8      O       2.1899120000     1.3100080000    -0.7582440000
    9      N       0.2169530000     2.6511080000     3.4543140000
   10      C      -1.1740750000     2.4276050000     3.1312820000
   11      C      -2.0509290000     2.5636750000     4.3744350000
   12      N       4.3753510000     2.7608680000    -0.2923880000
   13      C       5.7664090000     2.9841730000     0.0306830000
   14      C       6.6432110000     2.8484970000    -1.2125500000
   15      H       4.3393900000     4.0268870000     2.1483790000
   16      H       0.2529200000     1.3850400000     1.0135780000
   17      H       0.4208300000     3.3802440000     4.1344160000
   18      H      -1.2897560000     1.4186190000     2.7183220000
   19      H      -1.5287330000     3.1209190000     2.3468830000
   20      H      -1.7459960000     1.8478370000     5.1431550000
   21      H      -3.1023250000     2.3841670000     4.1295310000
   22      H      -1.9730250000     3.5692960000     4.8011060000
   23      H       4.1714380000     2.0317430000    -0.9724980000
   24      H       6.1210620000     2.2905630000     0.8148240000
   25      H       5.8821540000     3.9930050000     0.4439910000
   26      H       6.5651990000     1.8430450000    -1.6396030000
   27      H       7.6946330000     3.0278090000    -0.9676100000
   28      H       6.3383180000     3.5646530000    -1.9809880000
 ----------------------------------------------------------------

    8    -649.7796109946      7.13e-06  Convergence criterion met
 Total energy in the final basis set =     -649.7796109946

                    Orbital Energies (a.u.)
 --------------------------------------------------------------

 Alpha MOs
 -- Occupied --
-19.0681 -19.0681 -14.3117 -14.3117 -10.2133 -10.2132 -10.1962 -10.1962
-10.1938 -10.1938 -10.1565 -10.1565 -10.1424 -10.1424  -0.9945  -0.9909
 -0.9202  -0.9202  -0.8043  -0.7596  -0.7382  -0.7066  -0.6644  -0.6332
 -0.6120  -0.5705  -0.5663  -0.5067  -0.4850  -0.4844  -0.4677  -0.4584
 -0.4455  -0.4260  -0.4141  -0.4090  -0.4034  -0.3995  -0.3816  -0.3744
 -0.3727  -0.3629  -0.3627  -0.3577  -0.3521  -0.3425  -0.3022  -0.2934
 -0.2442  -0.2369  -0.2333  -0.1989  -0.1404

 Beta MOs
 -- Occupied --
-19.0633 -19.0633 -14.3101 -14.3101 -10.2110 -10.2110 -10.1939 -10.1939
-10.1938 -10.1938 -10.1565 -10.1565 -10.1431 -10.1431  -0.9860  -0.9822
 -0.9166  -0.9162  -0.7994  -0.7580  -0.7374  -0.7051  -0.6564  -0.6321
 -0.6098  -0.5668  -0.5636  -0.5044  -0.4832  -0.4813  -0.4659  -0.4561
 -0.4439  -0.4240  -0.4115  -0.4015  -0.3967  -0.3949  -0.3740  -0.3728
 -0.3716  -0.3594  -0.3585  -0.3507  -0.3438  -0.3393  -0.2945  -0.2753
 -0.2397  -0.2322  -0.2171  -0.1910

          Ground-State Mulliken Net Atomic Charges

     Atom                 Charge (a.u.)    Spin (a.u.)
  --------------------------------------------------------
      1 C                    -0.582039       0.132925
      2 C                     0.468624      -0.085835
      3 C                    -0.231222       0.202970
      4 C                    -0.581561       0.132939
      5 C                     0.468664      -0.085841
      6 C                    -0.231304       0.202952
      7 O                    -0.571847       0.180616
      8 O                    -0.571852       0.180616
      9 N                    -0.069154       0.066804
     10 C                    -0.145795      -0.010144
     11 C                    -0.651943       0.005814
     12 N                    -0.069144       0.066798
     13 C                    -0.145876      -0.010148
     14 C                    -0.651819       0.005817
     15 H                     0.198060      -0.000187
     16 H                     0.198064      -0.000187
     17 H                     0.298274      -0.003506
     18 H                     0.153488       0.001068
     19 H                     0.170396       0.009124
     20 H                     0.154364       0.001526
     21 H                     0.156894      -0.000387
     22 H                     0.151679      -0.000780
     23 H                     0.298254      -0.003506
     24 H                     0.170390       0.009125
     25 H                     0.153477       0.001067
     26 H                     0.151675      -0.000780
     27 H                     0.156888      -0.000387
     28 H                     0.154363       0.001527
  --------------------------------------------------------
  Sum of atomic charges =    -1.000004

                    Cartesian Multipole Moments
 -----------------------------------------------------------------
    Charge (ESU x 10^10)
                -4.8032
    Dipole Moment (Debye)
         X     -11.0295      Y     -12.9970      Z      -7.5937
       Tot      18.6611
    Quadrupole Moments (Debye-Ang)
        XX     -98.4948     XY     -32.1738     YY    -135.6496
        XZ     -26.7182     YZ     -35.0627     ZZ    -130.4437

 Total job time:  45.50s(wall), 288.90s(cpu)
        *  Thank you very much for using Q-Chem.  Have a nice day.  *
