 Gaussian 16, Revision A.03,
 Gaussian 16:  ES64L-G16RevA.03 25-Dec-2016

 ----------------------------------------------------------------
 #P UB3LYP/6-311++G(d,p) SCRF=(PCM,Solvent=n,n-DiMethylFormamide)
 ----------------------------------------------------------------

 ------------------
 Radical PCM in DMF
 ------------------
 Symbolic Z-matrix:
 Charge = -1 Multiplicity = 2

                         Standard orientation:
 ---------------------------------------------------------------------
 Center     Atomic      Atomic             Coordinates (Angstroms)
 Number     Number       Type             X           Y           Z
 ---------------------------------------------------------------------
      1          6           0        4.751372    0.278958   -1.541976
      2          6           0        3.794535   -0.740202   -1.127885
      3          6           0        3.368085   -0.831098    0.180291
      4          6           0        3.827721    0.090875    1.206611
      5          6           0        4.815869    1.079929    0.800725
      6          6           0        5.252535    1.168131   -0.501667
      7          8           0        5.136513    0.394567   -2.742331
      8          8           0        3.392281    0.036335    2.395217
      9          6           0        7.365782    1.781714   -1.394411
     10          6           0        5.919916    1.490704    2.863165
     11          1           0        7.917862    2.701454   -1.602161
     12          1           0        7.220780    1.212984   -2.314740
     13          1           0        7.933103    1.182592   -0.667889
     14          1           0        6.201706    2.355064    3.469231
     15          1           0        6.830722    0.948443    2.571675
     16          6           0        2.362634   -1.874832    0.636370
     17          6           0        0.943390   -1.369091    0.570133
     18          6           0       -0.135119   -1.937905    0.012150
     19          6           0       -1.478688   -1.238505    0.067225
     20          6           0       -2.540266   -1.962028    0.935666
     21          6           0       -3.819274   -1.180372    1.042461
     22          6           0       -5.039549   -1.483130    0.576258
     23          6           0       -6.192085   -0.518380    0.773444
     24          6           0       -6.667547    0.175331   -0.528284
     25          6           0       -7.847030    1.078538   -0.298077
     26          6           0       -7.923562    2.408956   -0.437603
     27          6           0       -9.208567    3.145346   -0.142878
     28          6           0       -0.127492   -3.269997   -0.700858
     29          6           0       -5.380474   -2.758645   -0.156416
     30          6           0       -6.789274    3.295586   -0.886704
     31          1           0        2.583351   -2.094823    1.687270
     32          1           0        2.483308   -2.798786    0.067329
     33          1           0        0.811051   -0.404309    1.055912
     34          1           0       -1.885811   -1.133319   -0.948468
     35          1           0       -1.339915   -0.224422    0.454621
     36          1           0       -2.117351   -2.093518    1.939635
     37          1           0       -2.720617   -2.964222    0.540874
     38          1           0       -3.714603   -0.224577    1.557116
     39          1           0       -5.903478    0.254884    1.491299
     40          1           0       -7.046105   -1.052072    1.214094
     41          1           0       -6.952461   -0.592152   -1.258488
     42          1           0       -5.824591    0.715801   -0.964033
     43          1           0       -8.746771    0.565542    0.043625
     44          1           0      -10.000980    2.466018    0.178837
     45          1           0       -9.562657    3.688533   -1.027809
     46          1           0        0.881054   -3.652092   -0.856578
     47          1           0       -0.609818   -3.186079   -1.683157
     48          1           0       -0.684619   -4.032275   -0.141609
     49          1           0       -4.532016   -3.437043   -0.239339
     50          1           0       -5.737310   -2.552921   -1.171828
     51          1           0       -6.190010   -3.291728    0.357726
     52          1           0       -5.864857    2.751445   -1.075638
     53          1           0       -6.579351    4.061516   -0.130766
     54          1           0       -7.059298    3.831185   -1.804954
     55          1           0       -9.060450    3.894844    0.644189
     56          8           0        5.259641    2.012281    1.713330
     57          8           0        6.116993    2.186284   -0.840965
     58          6           0        3.291438   -1.669367   -2.206734
     59          1           0        5.259213    0.831682    3.429407
     60          1           0        3.613085   -2.705103   -2.035168
     61          1           0        3.690599   -1.346579   -3.168730
     62          1           0        2.197724   -1.674783   -2.259539
 ---------------------------------------------------------------------

 SCF Done:  E(UB3LYP) =  -1236.33032194     A.U. after   18 cycles

 The electronic state is 2-A.
 Alpha  occ. eigenvalues --  -19.13414 -19.13372 -19.07301 -19.07259 -10.21681
 Alpha  occ. eigenvalues --  -10.21628 -10.21173 -10.21113 -10.20387 -10.20383
 Alpha  occ. eigenvalues --  -10.17604 -10.17416 -10.17010 -10.16692 -10.16643
 Alpha  occ. eigenvalues --  -10.16586 -10.16530 -10.16487 -10.16302 -10.16106
 Alpha  occ. eigenvalues --  -10.16058 -10.16056 -10.16024 -10.15959 -10.15946
 Alpha  occ. eigenvalues --  -10.15901 -10.15775 -10.15094  -1.05869  -1.03996
 Alpha  occ. eigenvalues --   -0.99321  -0.99068  -0.83063  -0.82619  -0.81530
 Alpha  occ. eigenvalues --   -0.80467  -0.77524  -0.76081  -0.74053  -0.72480
 Alpha  occ. eigenvalues --   -0.70305  -0.69690  -0.69121  -0.68580  -0.67839
 Alpha  occ. eigenvalues --   -0.66559  -0.64197  -0.63759  -0.61457  -0.59135
 Alpha  occ. eigenvalues --   -0.56111  -0.55732  -0.52199  -0.51870  -0.51497
 Alpha  occ. eigenvalues --   -0.50657  -0.49394  -0.48486  -0.47777  -0.46863
 Alpha  occ. eigenvalues --   -0.46521  -0.45768  -0.44789  -0.44379  -0.43905
 Alpha  occ. eigenvalues --   -0.43823  -0.43626  -0.43131  -0.42863  -0.41653
 Alpha  occ. eigenvalues --   -0.41435  -0.41167  -0.40938  -0.40537  -0.40266
 Alpha  occ. eigenvalues --   -0.39446  -0.38835  -0.38383  -0.38138  -0.37835
 Alpha  occ. eigenvalues --   -0.37302  -0.37184  -0.36965  -0.36739  -0.36512
 Alpha  occ. eigenvalues --   -0.36426  -0.35881  -0.35578  -0.35352  -0.34975
 Alpha  occ. eigenvalues --   -0.34314  -0.33528  -0.33263  -0.32797  -0.32634
 Alpha  occ. eigenvalues --   -0.31336  -0.29708  -0.28035  -0.26349  -0.24792
 Alpha  occ. eigenvalues --   -0.24094  -0.23823  -0.23142  -0.22543  -0.21817
 Alpha  occ. eigenvalues --   -0.15556
 Alpha virt. eigenvalues --   -0.00915  -0.00484  -0.00017   0.00271   0.00416
 Alpha virt. eigenvalues --    0.00722   0.00928   0.00995   0.01126   0.01781
 Alpha virt. eigenvalues --    0.01903   0.02280   0.02329   0.02672   0.03050

  Beta  occ. eigenvalues --  -19.13397 -19.13355 -19.06631 -19.06608 -10.21504
  Beta  occ. eigenvalues --  -10.21450 -10.21083 -10.21021 -10.20383 -10.20378
  Beta  occ. eigenvalues --  -10.17604 -10.17416 -10.17007 -10.16692 -10.16643
  Beta  occ. eigenvalues --  -10.16586 -10.16486 -10.16418 -10.16205 -10.16113
  Beta  occ. eigenvalues --  -10.16058 -10.16056 -10.16024 -10.15959 -10.15946
  Beta  occ. eigenvalues --  -10.15901 -10.15766 -10.15104  -1.05768  -1.03882
  Beta  occ. eigenvalues --   -0.98187  -0.97935  -0.82910  -0.82416  -0.81417
  Beta  occ. eigenvalues --   -0.80411  -0.77398  -0.76027  -0.73971  -0.72345
  Beta  occ. eigenvalues --   -0.70084  -0.69546  -0.69121  -0.68579  -0.67811
  Beta  occ. eigenvalues --   -0.66397  -0.63700  -0.63543  -0.61399  -0.59112
  Beta  occ. eigenvalues --   -0.55833  -0.55408  -0.52187  -0.51811  -0.51454
  Beta  occ. eigenvalues --   -0.50611  -0.49196  -0.48323  -0.47758  -0.46860
  Beta  occ. eigenvalues --   -0.46196  -0.45723  -0.44763  -0.44240  -0.43892
  Beta  occ. eigenvalues --   -0.43609  -0.43441  -0.43124  -0.42773  -0.41530
  Beta  occ. eigenvalues --   -0.41286  -0.40949  -0.40876  -0.40233  -0.39860
  Beta  occ. eigenvalues --   -0.39270  -0.38669  -0.38382  -0.37959  -0.37329
  Beta  occ. eigenvalues --   -0.37186  -0.37089  -0.36776  -0.36644  -0.36480
  Beta  occ. eigenvalues --   -0.35892  -0.35337  -0.35060  -0.34622  -0.34447
  Beta  occ. eigenvalues --   -0.33958  -0.33327  -0.33092  -0.32763  -0.32586
  Beta  occ. eigenvalues --   -0.31317  -0.29227  -0.27815  -0.24843  -0.24130
  Beta  occ. eigenvalues --   -0.23398  -0.23243  -0.22954  -0.22268  -0.21235
  Beta virt. eigenvalues --   -0.08465  -0.00895  -0.00468   0.00044   0.00386
  Beta virt. eigenvalues --    0.00690   0.00787   0.00967   0.01029   0.01322
  Beta virt. eigenvalues --    0.01930   0.02112   0.02346   0.02476   0.02825

 Mulliken charges and spin densities:
               1          2
     1  C   -0.762095   0.093997
     2  C    0.685714   0.086073
     3  C    0.937613   0.072836
     4  C   -0.505491   0.100893
     5  C    0.018354   0.072080
     6  C   -0.419665   0.064656
     7  O   -0.488214   0.243986
     8  O   -0.457399   0.238592
     9  C   -0.291798   0.003027
    10  C   -0.283025   0.002711
    11  H    0.156846   0.000542
    12  H    0.171487  -0.000636
    13  H    0.125300  -0.000017
    14  H    0.153875   0.000236
    15  H    0.127499   0.000011
    16  C    0.131081   0.012028
    17  C   -0.720752   0.002240
    18  C    0.902533   0.001884
    19  C   -0.814739  -0.001450
    20  C   -0.225943   0.000749
    21  C   -0.199474   0.000125
    22  C    0.602087  -0.000550
    23  C   -0.717583   0.000289
    24  C   -0.170645   0.000002
    25  C    0.016539   0.000014
    26  C    0.261925  -0.000001
    27  C   -0.624521  -0.000000
    28  C   -0.803646  -0.002915
    29  C   -0.739063  -0.000097
    30  C   -0.694966   0.000003
    31  H    0.216479   0.002213
    32  H    0.170378  -0.000292
    33  H    0.229476  -0.002944
    34  H    0.177845   0.000317
    35  H    0.118107   0.000025
    36  H    0.166954   0.000016
    37  H    0.144004   0.000371
    38  H    0.182732   0.000027
    39  H    0.176841  -0.000000
    40  H    0.132530  -0.000003
    41  H    0.126981  -0.000001
    42  H    0.155118  -0.000022
    43  H    0.193937  -0.000000
    44  H    0.150904   0.000000
    45  H    0.147561   0.000000
    46  H    0.106924   0.000088
    47  H    0.164206   0.000102
    48  H    0.169793  -0.000135
    49  H    0.121050  -0.000038
    50  H    0.169825  -0.000005
    51  H    0.163118   0.000004
    52  H    0.135511   0.000001
    53  H    0.148583  -0.000000
    54  H    0.146089  -0.000000
    55  H    0.151481   0.000000
    56  O   -0.217076   0.000390
    57  O   -0.209315   0.000437
    58  C   -0.599000   0.002200
    59  H    0.168914  -0.000587
    60  H    0.171212   0.004735
    61  H    0.179927  -0.002015
    62  H    0.167077   0.003810
 Sum of Mulliken charges =  -1.00000   1.00000

 Dipole moment (field-independent basis, Debye):
    X=            -19.5426    Y=             -4.4636    Z=              0.4634  Tot=             20.0512
 Quadrupole moment (field-independent basis, Debye-Ang):
   XX=           -252.3018   YY=           -180.9483   ZZ=           -208.0227
   XY=            -21.2903   XZ=             17.7864   YZ=              3.9354

 Normal termination of Gaussian 16 at Wed Jan 24 23:11:15 2024.
