 Q-Chem 5.4, Q-Chem, Inc., Pleasanton, CA (2021)
 Q-Chem 5.4.0 for Intel X86 EM64T Linux

User input:
--------------------------------------------------------------
$molecule
-1 2
O                  4.5658040000     -1.3935810000     -0.8858290000
C                  3.4251030000     -0.6663710000     -0.5528020000
C                  3.4955780000      0.6734950000     -0.1761680000
C                  2.3286640000      1.3556530000      0.1452870000
O                  2.4174180000      2.6463670000      0.5087840000
C                  1.0680250000      0.6852820000      0.0787650000
C                 -0.1264180000      1.4424780000      0.4197560000
O                 -0.0204820000      2.6675520000      0.7629540000
C                 -1.4139240000      0.7720550000      0.3587710000
C                 -2.6327900000      1.4336000000      0.6735340000
O                 -2.6300020000      2.7574780000      1.0530740000
C                 -3.8374390000      0.7505810000      0.6011130000
C                 -3.8965110000     -0.5943600000      0.2206220000
C                 -2.7328400000     -1.2798640000     -0.0960590000
O                 -2.8213240000     -2.5746750000     -0.4594920000
C                 -1.4701190000     -0.6087640000     -0.0320200000
C                 -0.2743420000     -1.3652190000     -0.3739220000
O                 -0.3723570000     -2.5905810000     -0.7177660000
C                  1.0136600000     -0.6937670000     -0.3135530000
C                  2.2254850000     -1.3639110000     -0.6262050000
O                  2.2656630000     -2.6836760000     -0.9970820000
H                  5.3411520000     -0.9008090000     -0.6035780000
H                  4.4437450000      1.2004510000     -0.1371460000
H                  1.4426870000      2.9139800000      0.6838560000
H                 -3.5466650000      3.0039230000      1.2155220000
H                 -4.7573270000      1.2778550000      0.8469660000
H                 -4.8423970000     -1.1205750000      0.1663540000
H                 -1.8555420000     -2.8455220000     -0.6379680000
H                  3.1994990000     -2.9052740000     -1.1041690000
$end

$rem
BASIS  =  6-311++G(d,p)
GUI  =  2
JOB_TYPE  =  SP
METHOD  =  B3LYP
SCF_CONVERGENCE  = 8
SOLVENT_METHOD = sm12
$end

$smx
solvent dimethylformamide
charges CM5
$end

--------------------------------------------------------------

             Standard Nuclear Orientation (Angstroms)
    I     Atom           X                Y                Z
 ----------------------------------------------------------------
    1      O       4.5658040000    -1.3935810000    -0.8858290000
    2      C       3.4251030000    -0.6663710000    -0.5528020000
    3      C       3.4955780000     0.6734950000    -0.1761680000
    4      C       2.3286640000     1.3556530000     0.1452870000
    5      O       2.4174180000     2.6463670000     0.5087840000
    6      C       1.0680250000     0.6852820000     0.0787650000
    7      C      -0.1264180000     1.4424780000     0.4197560000
    8      O      -0.0204820000     2.6675520000     0.7629540000
    9      C      -1.4139240000     0.7720550000     0.3587710000
   10      C      -2.6327900000     1.4336000000     0.6735340000
   11      O      -2.6300020000     2.7574780000     1.0530740000
   12      C      -3.8374390000     0.7505810000     0.6011130000
   13      C      -3.8965110000    -0.5943600000     0.2206220000
   14      C      -2.7328400000    -1.2798640000    -0.0960590000
   15      O      -2.8213240000    -2.5746750000    -0.4594920000
   16      C      -1.4701190000    -0.6087640000    -0.0320200000
   17      C      -0.2743420000    -1.3652190000    -0.3739220000
   18      O      -0.3723570000    -2.5905810000    -0.7177660000
   19      C       1.0136600000    -0.6937670000    -0.3135530000
   20      C       2.2254850000    -1.3639110000    -0.6262050000
   21      O       2.2656630000    -2.6836760000    -0.9970820000
   22      H       5.3411520000    -0.9008090000    -0.6035780000
   23      H       4.4437450000     1.2004510000    -0.1371460000
   24      H       1.4426870000     2.9139800000     0.6838560000
   25      H      -3.5466650000     3.0039230000     1.2155220000
   26      H      -4.7573270000     1.2778550000     0.8469660000
   27      H      -4.8423970000    -1.1205750000     0.1663540000
   28      H      -1.8555420000    -2.8455220000    -0.6379680000
   29      H       3.1994990000    -2.9052740000    -1.1041690000
 ----------------------------------------------------------------

   17   -1065.2611277300      9.11e-09  Convergence criterion met
 Total energy in the final basis set =    -1065.3629289295

                    Orbital Energies (a.u.)
 --------------------------------------------------------------

 Alpha MOs
 -- Occupied --
-19.1706 -19.1492 -19.1467 -19.1242 -19.1218 -19.0859 -19.0842 -10.2415
-10.2385 -10.2384 -10.2376 -10.2356 -10.2342 -10.2321 -10.1870 -10.1841
-10.1820 -10.1795 -10.1792 -10.1757 -10.1729  -1.0836  -1.0608  -1.0525
 -1.0515  -1.0481  -1.0038  -1.0017  -0.8629  -0.8476  -0.7934  -0.7552
 -0.7427  -0.7356  -0.6821  -0.6563  -0.6455  -0.6087  -0.5943  -0.5755
 -0.5577  -0.5476  -0.5357  -0.5032  -0.5001  -0.4807  -0.4711  -0.4641
 -0.4554  -0.4509  -0.4318  -0.4284  -0.4262  -0.4202  -0.4139  -0.4089
 -0.4005  -0.3920  -0.3851  -0.3819  -0.3733  -0.3663  -0.3636  -0.3605
 -0.3545  -0.3521  -0.3098  -0.3013  -0.2692  -0.2525  -0.2501  -0.2413
 -0.2226  -0.2078  -0.1406

 Beta MOs
 -- Occupied --
-19.1704 -19.1489 -19.1462 -19.1239 -19.1214 -19.0816 -19.0791 -10.2407
-10.2384 -10.2373 -10.2368 -10.2336 -10.2333 -10.2319 -10.1867 -10.1836
-10.1818 -10.1795 -10.1783 -10.1749 -10.1718  -1.0827  -1.0600  -1.0511
 -1.0499  -1.0467  -0.9972  -0.9938  -0.8605  -0.8460  -0.7896  -0.7530
 -0.7401  -0.7336  -0.6765  -0.6542  -0.6435  -0.6075  -0.5930  -0.5739
 -0.5565  -0.5463  -0.5347  -0.5014  -0.4986  -0.4791  -0.4701  -0.4629
 -0.4538  -0.4452  -0.4273  -0.4267  -0.4241  -0.4186  -0.4099  -0.4030
 -0.3955  -0.3901  -0.3839  -0.3770  -0.3719  -0.3624  -0.3574  -0.3536
 -0.3503  -0.3463  -0.3022  -0.2956  -0.2553  -0.2487  -0.2439  -0.2376
 -0.2103  -0.2010

          Ground-State Mulliken Net Atomic Charges

     Atom                 Charge (a.u.)    Spin (a.u.)
  --------------------------------------------------------
      1 O                    -0.201697       0.006135
      2 C                     1.864130       0.052943
      3 C                     1.814796       0.064333
      4 C                    -0.322221       0.018253
      5 O                    -0.393736       0.009675
      6 C                    -1.108656      -0.011270
      7 C                    -1.656705       0.082648
      8 O                    -0.349382       0.156597
      9 C                    -0.960124       0.018992
     10 C                     0.261263       0.040111
     11 O                    -0.155768       0.009429
     12 C                     1.876365       0.070211
     13 C                     0.829026       0.079012
     14 C                    -0.675216       0.036601
     15 O                    -0.385646       0.014040
     16 C                    -1.006148       0.002383
     17 C                    -1.631555       0.105578
     18 O                    -0.362901       0.186910
     19 C                    -0.834853      -0.008335
     20 C                    -0.122294       0.076626
     21 O                    -0.263198       0.014519
     22 H                     0.381963       0.000595
     23 H                     0.316029      -0.005326
     24 H                     0.376009      -0.003185
     25 H                     0.364212      -0.000384
     26 H                     0.364327      -0.006342
     27 H                     0.246595      -0.006693
     28 H                     0.359000      -0.003892
     29 H                     0.376386      -0.000165
  --------------------------------------------------------
  Sum of atomic charges =    -1.000000

                    Cartesian Multipole Moments
 -----------------------------------------------------------------
    Charge (ESU x 10^10)
                -4.8032
    Dipole Moment (Debye)
         X       2.2929      Y       1.3515      Z       0.5999
       Tot       2.7284
    Quadrupole Moments (Debye-Ang)
        XX    -112.4693     XY     -18.6992     YY    -161.2908
        XZ      -4.4250     YZ      -8.7782     ZZ    -128.7746

 Total job time:  924.23s(wall), 7127.02s(cpu)
        *  Thank you very much for using Q-Chem.  Have a nice day.  *
