 Gaussian 16, Revision A.03,
 Gaussian 16:  ES64L-G16RevA.03 25-Dec-2016

 --------------------------------------
 #P UB3LYP/6-311++G(d,p) nosym opt freq
 --------------------------------------

 -------
 Radical
 -------
 Symbolic Z-matrix:
 Charge = -1 Multiplicity = 2

 SCF Done:  E(UB3LYP) =  -1065.26557854     A.U. after   23 cycles
 SCF Done:  E(UB3LYP) =  -1065.26557901     A.U. after    9 cycles
 SCF Done:  E(UB3LYP) =  -1065.26557939     A.U. after   11 cycles
 SCF Done:  E(UB3LYP) =  -1065.26558039     A.U. after   10 cycles
 SCF Done:  E(UB3LYP) =  -1065.26558257     A.U. after   13 cycles
 SCF Done:  E(UB3LYP) =  -1065.26558473     A.U. after   14 cycles
 SCF Done:  E(UB3LYP) =  -1065.26558938     A.U. after   12 cycles
 SCF Done:  E(UB3LYP) =  -1065.26550655     A.U. after   16 cycles
 SCF Done:  E(UB3LYP) =  -1065.26561945     A.U. after   16 cycles
 SCF Done:  E(UB3LYP) =  -1065.26559445     A.U. after   15 cycles
 SCF Done:  E(UB3LYP) =  -1065.26536503     A.U. after   16 cycles
 SCF Done:  E(UB3LYP) =  -1065.26559949     A.U. after   16 cycles
 SCF Done:  E(UB3LYP) =  -1065.26561965     A.U. after   12 cycles
 SCF Done:  E(UB3LYP) =  -1065.26561296     A.U. after   13 cycles
 SCF Done:  E(UB3LYP) =  -1065.26559323     A.U. after   15 cycles
 SCF Done:  E(UB3LYP) =  -1065.26562341     A.U. after   14 cycles
 SCF Done:  E(UB3LYP) =  -1065.26562234     A.U. after   12 cycles
 SCF Done:  E(UB3LYP) =  -1065.26562595     A.U. after   12 cycles
 SCF Done:  E(UB3LYP) =  -1065.26562611     A.U. after   11 cycles
 Optimization completed.
    -- Stationary point found.
 Normal termination of Gaussian 16 at Sun Jan 14 04:25:54 2024.

 ----------------------------------------------------------------------
 #P Geom=AllCheck Guess=TCheck SCRF=Check GenChk UB3LYP/6-311++G(d,p) F
 req
 ----------------------------------------------------------------------

 Structure from the checkpoint file:  "207-rad.chk"
 -------
 Radical
 -------
 Charge = -1 Multiplicity = 2

                          Input orientation:
 ---------------------------------------------------------------------
 Center     Atomic      Atomic             Coordinates (Angstroms)
 Number     Number       Type             X           Y           Z
 ---------------------------------------------------------------------
      1          8           0        4.565804   -1.393581   -0.885829
      2          6           0        3.425103   -0.666371   -0.552802
      3          6           0        3.495578    0.673495   -0.176168
      4          6           0        2.328664    1.355653    0.145287
      5          8           0        2.417418    2.646367    0.508784
      6          6           0        1.068025    0.685282    0.078765
      7          6           0       -0.126418    1.442478    0.419756
      8          8           0       -0.020482    2.667552    0.762954
      9          6           0       -1.413924    0.772055    0.358771
     10          6           0       -2.632790    1.433600    0.673534
     11          8           0       -2.630002    2.757478    1.053074
     12          6           0       -3.837439    0.750581    0.601113
     13          6           0       -3.896511   -0.594360    0.220622
     14          6           0       -2.732840   -1.279864   -0.096059
     15          8           0       -2.821324   -2.574675   -0.459492
     16          6           0       -1.470119   -0.608764   -0.032020
     17          6           0       -0.274342   -1.365219   -0.373922
     18          8           0       -0.372357   -2.590581   -0.717766
     19          6           0        1.013660   -0.693767   -0.313553
     20          6           0        2.225485   -1.363911   -0.626205
     21          8           0        2.265663   -2.683676   -0.997082
     22          1           0        5.341152   -0.900809   -0.603578
     23          1           0        4.443745    1.200451   -0.137146
     24          1           0        1.442687    2.913980    0.683856
     25          1           0       -3.546665    3.003923    1.215522
     26          1           0       -4.757327    1.277855    0.846966
     27          1           0       -4.842397   -1.120575    0.166354
     28          1           0       -1.855542   -2.845522   -0.637968
     29          1           0        3.199499   -2.905274   -1.104169
 ---------------------------------------------------------------------

 SCF Done:  E(UB3LYP) =  -1065.26562611     A.U. after    2 cycles

 Alpha  occ. eigenvalues --  -19.07186 -19.03923 -19.03389 -19.00609 -19.00086
 Alpha  occ. eigenvalues --  -18.96570 -18.96326 -10.12926 -10.12181 -10.12160
 Alpha  occ. eigenvalues --  -10.11895 -10.11798 -10.11478 -10.11310 -10.06862
 Alpha  occ. eigenvalues --  -10.06555 -10.06537 -10.06264 -10.06206 -10.06104
 Alpha  occ. eigenvalues --  -10.05605  -0.98151  -0.95098  -0.94137  -0.93426
 Alpha  occ. eigenvalues --   -0.92838  -0.88357  -0.88035  -0.74614  -0.73128
 Alpha  occ. eigenvalues --   -0.67689  -0.63912  -0.62677  -0.61951  -0.56680
 Alpha  occ. eigenvalues --   -0.54234  -0.52857  -0.49568  -0.48203  -0.45989
 Alpha  occ. eigenvalues --   -0.44568  -0.43396  -0.41837  -0.38910  -0.38582
 Alpha  occ. eigenvalues --   -0.36513  -0.35563  -0.34957  -0.34157  -0.33668
 Alpha  occ. eigenvalues --   -0.31738  -0.31145  -0.30960  -0.30291  -0.29520
 Alpha  occ. eigenvalues --   -0.29126  -0.28777  -0.28347  -0.27146  -0.26813
 Alpha  occ. eigenvalues --   -0.25952  -0.25176  -0.24844  -0.24310  -0.23754
 Alpha  occ. eigenvalues --   -0.23196  -0.19318  -0.18575  -0.15170  -0.13535
 Alpha  occ. eigenvalues --   -0.13180  -0.12084  -0.10414  -0.09109  -0.02208
 Alpha virt. eigenvalues --    0.06132   0.07278   0.07593   0.08715   0.09654
 Alpha virt. eigenvalues --    0.09777   0.11168   0.12272   0.13339   0.13463
 Alpha virt. eigenvalues --    0.13927   0.14640   0.14884   0.15686   0.16161

  Beta  occ. eigenvalues --  -19.07168 -19.03897 -19.03351 -19.00588 -19.00052
  Beta  occ. eigenvalues --  -18.96116 -18.95792 -10.12838 -10.12184 -10.12139
  Beta  occ. eigenvalues --  -10.11834 -10.11634 -10.11303 -10.11295 -10.06813
  Beta  occ. eigenvalues --  -10.06482 -10.06471 -10.06180 -10.06179 -10.06095
  Beta  occ. eigenvalues --  -10.05483  -0.98082  -0.95037  -0.94052  -0.93295
  Beta  occ. eigenvalues --   -0.92661  -0.87656  -0.87215  -0.74371  -0.72970
  Beta  occ. eigenvalues --   -0.67294  -0.63691  -0.62432  -0.61749  -0.56149
  Beta  occ. eigenvalues --   -0.54001  -0.52646  -0.49432  -0.48091  -0.45839
  Beta  occ. eigenvalues --   -0.44446  -0.43279  -0.41725  -0.38746  -0.38450
  Beta  occ. eigenvalues --   -0.36315  -0.35477  -0.34843  -0.33982  -0.33253
  Beta  occ. eigenvalues --   -0.31224  -0.30995  -0.30808  -0.30102  -0.29223
  Beta  occ. eigenvalues --   -0.28782  -0.28308  -0.27861  -0.27042  -0.26559
  Beta  occ. eigenvalues --   -0.25840  -0.24753  -0.24158  -0.23660  -0.23000
  Beta  occ. eigenvalues --   -0.22612  -0.18638  -0.18008  -0.13566  -0.12914
  Beta  occ. eigenvalues --   -0.12787  -0.11688  -0.09235  -0.08490
  Beta virt. eigenvalues --    0.03054   0.06141   0.07279   0.08825   0.09654
  Beta virt. eigenvalues --    0.09751   0.09803   0.11184   0.12277   0.13462
  Beta virt. eigenvalues --    0.13626   0.13958   0.14752   0.15016   0.15712

 Mulliken charges and spin densities:
               1          2
     1  O   -0.330175   0.004493
     2  C   -0.400821   0.055475
     3  C    0.305624   0.070951
     4  C   -0.447485   0.009635
     5  O   -0.402707   0.007411
     6  C    0.575889  -0.001362
     7  C   -0.352585   0.083885
     8  O   -0.410761   0.165292
     9  C    0.318323   0.023165
    10  C   -0.250653   0.034526
    11  O   -0.212141   0.007360
    12  C   -0.135745   0.059577
    13  C   -0.010375   0.086957
    14  C   -0.444756   0.025732
    15  O   -0.392952   0.011533
    16  C    0.598029   0.011385
    17  C   -0.405387   0.096405
    18  O   -0.393870   0.195085
    19  C    0.593896   0.011304
    20  C   -0.472330   0.056808
    21  O   -0.262965   0.010579
    22  H    0.265625   0.001233
    23  H    0.129477  -0.006126
    24  H    0.400483  -0.003232
    25  H    0.240081  -0.000554
    26  H    0.085935  -0.006084
    27  H    0.150512  -0.007328
    28  H    0.385283  -0.003853
    29  H    0.276553  -0.000253
 Sum of Mulliken charges =  -1.00000   1.00000

 Dipole moment (field-independent basis, Debye):
    X=              1.6004    Y=              1.0633    Z=              0.5724  Tot=              2.0049
 Quadrupole moment (field-independent basis, Debye-Ang):
   XX=           -123.4252   YY=           -161.3764   ZZ=           -128.7229
   XY=            -15.7679   XZ=             -2.5096   YZ=             -9.1762

  Exact polarizability: 368.063  -3.683 234.352 -27.500  39.305 112.471
 Approx polarizability: 569.370  -2.651 445.555 -41.746  83.150 186.383

                      1                      2                      3
                      A                      A                      A
 Frequencies --     26.2724                54.2612                86.9028
 Red. masses --      8.6778                 8.3989                10.9515
 Frc consts  --      0.0035                 0.0146                 0.0487
 IR Inten    --      2.4323                 3.1396                 1.3472

                      4                      5                      6
                      A                      A                      A
 Frequencies --    111.1846               132.4464               141.3505
 Red. masses --     10.3459                 6.7075                 1.1187
 Frc consts  --      0.0754                 0.0693                 0.0132
 IR Inten    --      0.2282                 5.2979                63.5924

                      7                      8                      9
                      A                      A                      A
 Frequencies --    169.0938               181.3018               193.1805
 Red. masses --      3.2113                 7.1784                 1.3894
 Frc consts  --      0.0541                 0.1390                 0.0305
 IR Inten    --     11.1532                 5.9042               119.8164

                     10                     11                     12
                      A                      A                      A
 Frequencies --    225.7849               265.6728               284.0303
 Red. masses --      6.9403                 8.5461                 5.2517
 Frc consts  --      0.2085                 0.3554                 0.2496
 IR Inten    --      1.0911                 0.2226                 2.2329

                     13                     14                     15
                      A                      A                      A
 Frequencies --    316.1045               341.4010               369.4893
 Red. masses --      7.6068                 5.6665                 6.3948
 Frc consts  --      0.4478                 0.3891                 0.5144
 IR Inten    --      1.4202                 4.6655                 0.6695

                     16                     17                     18
                      A                      A                      A
 Frequencies --    374.7311               383.9214               406.2724
 Red. masses --      4.6771                 7.2122                 6.5249
 Frc consts  --      0.3870                 0.6263                 0.6345
 IR Inten    --      5.9075                18.7007                16.0897

                     19                     20                     21
                      A                      A                      A
 Frequencies --    408.6576               428.1041               435.2396
 Red. masses --      1.9250                 7.7547                 2.6124
 Frc consts  --      0.1894                 0.8374                 0.2916
 IR Inten    --     53.9821                 0.2562                21.2957

                     22                     23                     24
                      A                      A                      A
 Frequencies --    454.3504               462.5582               463.5383
 Red. masses --     11.1018                 9.2684                11.1755
 Frc consts  --      1.3503                 1.1684                 1.4148
 IR Inten    --     11.1111                25.2477                28.5449

                     25                     26                     27
                      A                      A                      A
 Frequencies --    483.4727               511.1673               533.4902
 Red. masses --      8.3605                 4.5400                 6.7351
 Frc consts  --      1.1514                 0.6989                 1.1294
 IR Inten    --     18.2089                 0.6535                 1.3721

                     28                     29                     30
                      A                      A                      A
 Frequencies --    548.8048               572.4728               616.1508
 Red. masses --      7.0889                 4.1226                 5.4615
 Frc consts  --      1.2580                 0.7960                 1.2216
 IR Inten    --      0.8044                11.2629                 6.0885

                     31                     32                     33
                      A                      A                      A
 Frequencies --    628.4223               666.8868               701.6968
 Red. masses --      3.4569                 8.7999                 5.9202
 Frc consts  --      0.8043                 2.3058                 1.7175
 IR Inten    --      1.0686                 2.2321                 4.0942

                     34                     35                     36
                      A                      A                      A
 Frequencies --    703.4583               734.0387               751.8017
 Red. masses --      5.2909                 6.7806                 3.7930
 Frc consts  --      1.5426                 2.1526                 1.2631
 IR Inten    --     64.2659                24.6795                16.9754

                     37                     38                     39
                      A                      A                      A
 Frequencies --    761.7187               779.8125               790.4408
 Red. masses --      9.6186                 1.7531                 2.2973
 Frc consts  --      3.2881                 0.6281                 0.8457
 IR Inten    --      1.1736                 5.6913                61.6013

                     40                     41                     42
                      A                      A                      A
 Frequencies --    791.4214               849.0278               853.9539
 Red. masses --      7.6920                 9.7228                 1.3176
 Frc consts  --      2.8386                 4.1294                 0.5661
 IR Inten    --     97.5913                11.1239                 3.2287

                     43                     44                     45
                      A                      A                      A
 Frequencies --    925.2323               971.7323               980.5832
 Red. masses --      5.6337                 9.4235                 1.0526
 Frc consts  --      2.8415                 5.2427                 0.5963
 IR Inten    --     14.8530               213.9756                67.5842

                     46                     47                     48
                      A                      A                      A
 Frequencies --   1010.1520              1011.1927              1068.8395
 Red. masses --      1.0573                 5.7324                 3.3765
 Frc consts  --      0.6357                 3.4534                 2.2727
 IR Inten    --     74.8992                10.2152               213.3076

                     49                     50                     51
                      A                      A                      A
 Frequencies --   1140.8509              1164.4933              1187.2395
 Red. masses --      2.1688                 1.3294                 1.8765
 Frc consts  --      1.6632                 1.0621                 1.5584
 IR Inten    --      0.7625               124.9004                37.4694

                     52                     53                     54
                      A                      A                      A
 Frequencies --   1213.9979              1218.6190              1238.5735
 Red. masses --      2.7054                 1.5828                 5.6604
 Frc consts  --      2.3492                 1.3849                 5.1162
 IR Inten    --     88.0208               123.2624                35.7278

                     55                     56                     57
                      A                      A                      A
 Frequencies --   1261.9207              1277.1275              1293.8752
 Red. masses --      4.1353                 2.4021                 3.6447
 Frc consts  --      3.8799                 2.3084                 3.5949
 IR Inten    --    106.7437                 6.3481                78.1489

                     58                     59                     60
                      A                      A                      A
 Frequencies --   1316.9183              1319.0048              1334.9749
 Red. masses --      2.8788                 3.8865                 5.6882
 Frc consts  --      2.9416                 3.9838                 5.9727
 IR Inten    --    128.7420                55.5922               141.4832

                     61                     62                     63
                      A                      A                      A
 Frequencies --   1365.4653              1392.3432              1427.3648
 Red. masses --      5.8678                 6.1754                 3.1664
 Frc consts  --      6.4459                 7.0536                 3.8009
 IR Inten    --     50.3244               127.3582               414.3205

                     64                     65                     66
                      A                      A                      A
 Frequencies --   1439.8059              1446.6848              1498.8577
 Red. masses --      3.3997                 5.5974                 3.0217
 Frc consts  --      4.1524                 6.9022                 3.9996
 IR Inten    --     58.8964                34.8686                26.1408

                     67                     68                     69
                      A                      A                      A
 Frequencies --   1523.1231              1568.3635              1583.7786
 Red. masses --      3.3569                 3.5417                 3.0192
 Frc consts  --      4.5883                 5.1329                 4.4620
 IR Inten    --    941.8579                53.7726               136.2568

                     70                     71                     72
                      A                      A                      A
 Frequencies --   1598.9505              1634.7474              1651.2176
 Red. masses --      4.2454                 3.9083                 3.3787
 Frc consts  --      6.3950                 6.1537                 5.4276
 IR Inten    --    246.7452                24.4353                10.0038

                     73                     74                     75
                      A                      A                      A
 Frequencies --   1659.7599              2650.2344              2757.4124
 Red. masses --      2.5313                 1.0805                 1.0771
 Frc consts  --      4.1085                 4.4716                 4.8253
 IR Inten    --    299.9306               450.0472               448.6197

                     76                     77                     78
                      A                      A                      A
 Frequencies --   3117.2549              3158.9001              3179.5105
 Red. masses --      1.0879                 1.0902                 1.0915
 Frc consts  --      6.2287                 6.4093                 6.5010
 IR Inten    --     49.4238                18.6676                22.8763

                     79                     80                     81
                      A                      A                      A
 Frequencies --   3779.9817              3813.7831              3858.7905
 Red. masses --      1.0649                 1.0654                 1.0663
 Frc consts  --      8.9649                 9.1305                 9.3547
 IR Inten    --     99.6681                23.2454                71.7335

 - Thermochemistry -
 -------------------
 Temperature   298.150 Kelvin.  Pressure   1.00000 Atm.
 Atom     1 has atomic number  8 and mass  15.99491

 Molecular mass:   288.02700 amu.
 Principal axes and moments of inertia in atomic units:
                           1         2         3
     Eigenvalues --  3513.838756917.19287**********
           X            0.98120   0.16657   0.09745
           Y           -0.13436   0.95212  -0.27462
           Z           -0.13853   0.25636   0.95660
 This molecule is an asymmetric top.
 Rotational symmetry number  1.
 Warning -- assumption of classical behavior for rotation
           may cause significant error
 Rotational temperatures (Kelvin)      0.02465     0.01252     0.00830
 Rotational constants (GHZ):           0.51361     0.26091     0.17302
 Zero-point vibrational energy     514608.0 (Joules/Mol)
                                  122.99427 (Kcal/Mol)
 Warning -- explicit consideration of  30 degrees of freedom as
           vibrations may cause significant error
 Vibrational temperatures:     37.80    78.07   125.03   159.97   190.56
          (Kelvin)            203.37   243.29   260.85   277.94   324.85
                              382.24   408.66   454.80   491.20   531.61
                              539.15   552.38   584.54   587.97   615.95
                              626.21   653.71   665.52   666.93   695.61
                              735.46   767.57   789.61   823.66   886.50
                              904.16   959.50  1009.59  1012.12  1056.12
                             1081.67  1095.94  1121.98  1137.27  1138.68
                             1221.56  1228.65  1331.20  1398.11  1410.84
                             1453.38  1454.88  1537.82  1641.43  1675.45
                             1708.17  1746.67  1753.32  1782.03  1815.62
                             1837.50  1861.60  1894.75  1897.75  1920.73
                             1964.60  2003.27  2053.66  2071.56  2081.46
                             2156.52  2191.43  2256.53  2278.70  2300.53
                             2352.04  2375.73  2388.02  3813.10  3967.30
                             4485.03  4544.95  4574.61  5438.55  5487.18
                             5551.94

 Zero-point correction=                           0.196004 (Hartree/Particle)
 Thermal correction to Energy=                    0.213044
 Thermal correction to Enthalpy=                  0.213988
 Thermal correction to Gibbs Free Energy=         0.150896
 Sum of electronic and zero-point Energies=          -1065.069622
 Sum of electronic and thermal Energies=             -1065.052583
 Sum of electronic and thermal Enthalpies=           -1065.051638
 Sum of electronic and thermal Free Energies=        -1065.114730

                     E (Thermal)             CV                S
                      KCal/Mol        Cal/Mol-Kelvin    Cal/Mol-Kelvin
 Total                  133.687             67.232            132.787
 Electronic               0.000              0.000              1.377
 Translational            0.889              2.981             42.871
 Rotational               0.889              2.981             33.894
 Vibrational            131.909             61.271             54.645
 Vibration     1          0.593              1.985              6.093
 Vibration     2          0.596              1.976              4.656
 Vibration     3          0.601              1.958              3.729
 Vibration     4          0.607              1.940              3.248
 Vibration     5          0.613              1.921              2.910
 Vibration     6          0.615              1.912              2.786
 Vibration     7          0.625              1.881              2.446
 Vibration     8          0.630              1.865              2.315
 Vibration     9          0.635              1.849              2.197
 Vibration    10          0.650              1.802              1.912
 Vibration    11          0.671              1.736              1.624
 Vibration    12          0.682              1.703              1.509
 Vibration    13          0.703              1.643              1.330
 Vibration    14          0.721              1.593              1.206
 Vibration    15          0.742              1.535              1.082
 Vibration    16          0.746              1.524              1.060
 Vibration    17          0.753              1.504              1.024
 Vibration    18          0.771              1.457              0.940
 Vibration    19          0.773              1.451              0.931
 Vibration    20          0.790              1.409              0.865
 Vibration    21          0.796              1.393              0.842
 Vibration    22          0.813              1.351              0.783
 Vibration    23          0.820              1.333              0.759
 Vibration    24          0.821              1.331              0.756
 Vibration    25          0.840              1.287              0.701
 Vibration    26          0.866              1.225              0.631
 Vibration    27          0.888              1.176              0.579
 Vibration    28          0.904              1.142              0.547
 Vibration    29          0.929              1.091              0.500
 Vibration    30          0.976              0.998              0.423

                           ! Non-Optimized Parameters !
 Normal termination of Gaussian 16 at Sun Jan 14 06:24:59 2024.
