 Gaussian 16, Revision A.03,
 Gaussian 16:  ES64L-G16RevA.03 25-Dec-2016

 ----------------------------------------------------------------
 #P UB3LYP/6-311++G(d,p) SCRF=(PCM,Solvent=n,n-DiMethylFormamide)
 ----------------------------------------------------------------

 ------------------
 Radical PCM in DMF
 ------------------
 Symbolic Z-matrix:
 Charge = -1 Multiplicity = 2

                         Standard orientation:
 ---------------------------------------------------------------------
 Center     Atomic      Atomic             Coordinates (Angstroms)
 Number     Number       Type             X           Y           Z
 ---------------------------------------------------------------------
      1          6           0        1.078134   -1.014902   -0.653817
      2          6           0        2.392389   -1.647137   -0.759189
      3          6           0        3.544580   -1.031754   -0.388460
      4          6           0        3.559359    0.326356    0.142921
      5          6           0        2.274788    0.961173    0.240186
      6          6           0        1.077022    0.347852   -0.116256
      7          8           0        0.051321   -1.631857   -1.021773
      8          8           0        4.634698    0.891007    0.489354
      9          6           0       -1.538975    0.519016   -0.046266
     10          6           0       -2.400530    0.995317   -1.037917
     11          6           0       -2.018035   -0.390978    0.913409
     12          6           0       -3.351603   -0.802569    0.830812
     13          6           0       -3.717276    0.552136   -1.124437
     14          6           0       -4.197631   -0.352298   -0.181096
     15          1           0        2.391729   -2.656786   -1.160256
     16          1           0        4.506286   -1.530360   -0.476420
     17          1           0        2.248328    1.976093    0.620488
     18          1           0       -2.022422    1.720431   -1.749675
     19          1           0       -3.731463   -1.496753    1.575258
     20          1           0       -4.363899    0.918390   -1.915360
     21          1           0       -5.224587   -0.701014   -0.225628
     22          6           0       -0.159518    1.144579    0.022872
     23          8           0       -0.125780    2.363956    0.198982
     24          6           0       -1.136657   -0.934904    2.011282
     25          1           0       -0.519540   -0.156388    2.465947
     26          1           0       -0.461481   -1.695854    1.610501
     27          1           0       -1.741138   -1.393927    2.798376
 ---------------------------------------------------------------------

 SCF Done:  E(UB3LYP) =  -765.522320887     A.U. after   20 cycles

 The electronic state is 2-A.
 Alpha  occ. eigenvalues --  -19.10986 -19.08779 -19.08703 -10.26150 -10.23732
 Alpha  occ. eigenvalues --  -10.22837 -10.18721 -10.18306 -10.17823 -10.17625
 Alpha  occ. eigenvalues --  -10.17591 -10.17552 -10.17522 -10.17411 -10.17373
 Alpha  occ. eigenvalues --  -10.17249 -10.16255  -1.04089  -1.01349  -1.00759
 Alpha  occ. eigenvalues --   -0.86366  -0.83244  -0.77840  -0.76582  -0.75404
 Alpha  occ. eigenvalues --   -0.69817  -0.68798  -0.64732  -0.60733  -0.59411
 Alpha  occ. eigenvalues --   -0.58802  -0.54333  -0.50259  -0.48408  -0.47878
 Alpha  occ. eigenvalues --   -0.47284  -0.46228  -0.44403  -0.43426  -0.42644
 Alpha  occ. eigenvalues --   -0.42430  -0.41821  -0.41288  -0.41189  -0.39102
 Alpha  occ. eigenvalues --   -0.38919  -0.38530  -0.37533  -0.36892  -0.35959
 Alpha  occ. eigenvalues --   -0.35332  -0.34314  -0.28998  -0.27673  -0.27009
 Alpha  occ. eigenvalues --   -0.25366  -0.25175  -0.24695  -0.23527  -0.17549
 Alpha virt. eigenvalues --   -0.06691  -0.01886  -0.01186  -0.00232   0.00575
 Alpha virt. eigenvalues --    0.00924   0.01428   0.01572   0.02264   0.03369
 Alpha virt. eigenvalues --    0.03737   0.04043   0.04197   0.05074   0.05188

  Beta  occ. eigenvalues --  -19.10906 -19.08132 -19.08010 -10.26125 -10.23667
  Beta  occ. eigenvalues --  -10.22739 -10.18719 -10.18308 -10.17734 -10.17605
  Beta  occ. eigenvalues --  -10.17589 -10.17551 -10.17373 -10.17312 -10.17249
  Beta  occ. eigenvalues --  -10.17234 -10.16255  -1.03938  -1.00367  -0.99412
  Beta  occ. eigenvalues --   -0.86357  -0.82627  -0.77797  -0.76425  -0.75269
  Beta  occ. eigenvalues --   -0.69177  -0.68426  -0.64473  -0.60551  -0.59380
  Beta  occ. eigenvalues --   -0.58436  -0.54188  -0.50084  -0.48242  -0.47649
  Beta  occ. eigenvalues --   -0.47068  -0.46066  -0.44259  -0.43294  -0.42465
  Beta  occ. eigenvalues --   -0.42187  -0.41294  -0.40683  -0.40540  -0.38858
  Beta  occ. eigenvalues --   -0.38399  -0.37471  -0.36663  -0.36037  -0.35326
  Beta  occ. eigenvalues --   -0.35300  -0.34280  -0.27495  -0.26282  -0.25638
  Beta  occ. eigenvalues --   -0.25211  -0.24888  -0.24228  -0.23175
  Beta virt. eigenvalues --   -0.10547  -0.05496  -0.01705  -0.01022  -0.00216
  Beta virt. eigenvalues --    0.00598   0.01199   0.01585   0.02253   0.02454
  Beta virt. eigenvalues --    0.03489   0.03802   0.04072   0.05100   0.05141

 Mulliken charges and spin densities:
               1          2
     1  C   -1.303461   0.020408
     2  C   -0.219385   0.098417
     3  C    0.094175   0.008337
     4  C   -0.589215   0.122141
     5  C    0.315218   0.143395
     6  C    1.435417   0.089760
     7  O   -0.348838   0.207109
     8  O   -0.476708   0.270810
     9  C    0.555333  -0.002232
    10  C   -0.061824   0.001082
    11  C    0.720170   0.001574
    12  C   -0.326593  -0.000652
    13  C   -0.493420   0.002525
    14  C   -0.239025  -0.000297
    15  H    0.202097  -0.006430
    16  H    0.203196  -0.002370
    17  H    0.219117  -0.015374
    18  H    0.210680  -0.000507
    19  H    0.171998   0.000208
    20  H    0.185657   0.000067
    21  H    0.185944  -0.000060
    22  C   -0.957131   0.033817
    23  O   -0.297110   0.029780
    24  C   -0.708301  -0.000973
    25  H    0.173501  -0.000237
    26  H    0.187414  -0.000655
    27  H    0.161094   0.000355
 Sum of Mulliken charges =  -1.00000   1.00000

 Dipole moment (field-independent basis, Debye):
    X=             -8.9764    Y=             -3.7098    Z=              0.6731  Tot=              9.7361
 Quadrupole moment (field-independent basis, Debye-Ang):
   XX=           -145.9461   YY=           -119.1922   ZZ=           -101.9168
   XY=            -11.1929   XZ=             -6.2596   YZ=             -9.0881

 Normal termination of Gaussian 16 at Wed Jan 24 22:53:56 2024.
