 Gaussian 16, Revision A.03,
 Gaussian 16:  ES64L-G16RevA.03 25-Dec-2016

 --------------------------------------
 #P UB3LYP/6-311++G(d,p) nosym opt freq
 --------------------------------------

 -------
 Radical
 -------
 Symbolic Z-matrix:
 Charge = -1 Multiplicity = 2

 SCF Done:  E(UB3LYP) =  -765.444351675     A.U. after   21 cycles
 Optimization completed.
    -- Stationary point found.
 Normal termination of Gaussian 16 at Wed Jan 10 04:54:50 2024.

 ----------------------------------------------------------------------
 #P Geom=AllCheck Guess=TCheck SCRF=Check GenChk UB3LYP/6-311++G(d,p) F
 req
 ----------------------------------------------------------------------

 Structure from the checkpoint file:  "077-rad.chk"
 -------
 Radical
 -------
 Charge = -1 Multiplicity = 2

                          Input orientation:
 ---------------------------------------------------------------------
 Center     Atomic      Atomic             Coordinates (Angstroms)
 Number     Number       Type             X           Y           Z
 ---------------------------------------------------------------------
      1          6           0        0.334057    1.777586   -1.865494
      2          6           0       -1.087417    2.071345   -2.042152
      3          6           0       -2.032285    1.107518   -2.190286
      4          6           0       -1.695595   -0.311526   -2.191631
      5          6           0       -0.300369   -0.611242   -2.030108
      6          6           0        0.686417    0.355660   -1.859196
      7          8           0        1.159724    2.712316   -1.743331
      8          8           0       -2.580455   -1.202676   -2.326072
      9          6           0        3.200238    0.788747   -1.250283
     10          6           0        4.280486    0.970337   -2.117809
     11          6           0        3.257001    1.317525    0.051921
     12          6           0        4.400300    2.027166    0.431277
     13          6           0        5.398715    1.705553   -1.734750
     14          6           0        5.460396    2.236322   -0.449015
     15          1           0       -1.346735    3.126311   -2.049006
     16          1           0       -3.082128    1.358664   -2.316693
     17          1           0       -0.011297   -1.656122   -2.037656
     18          1           0        4.232213    0.528433   -3.106619
     19          1           0        4.455700    2.428918    1.439201
     20          1           0        6.217854    1.852947   -2.431248
     21          1           0        6.328785    2.803170   -0.128376
     22          6           0        2.080719   -0.115381   -1.728028
     23          8           0        2.400431   -1.272575   -2.006808
     24          6           0        2.124380    1.148137    1.035021
     25          1           0        1.724388    0.131469    1.029297
     26          1           0        1.302999    1.824811    0.784066
     27          1           0        2.458606    1.377345    2.050587
 ---------------------------------------------------------------------

 SCF Done:  E(UB3LYP) =  -765.444351675     A.U. after    1 cycles

 Alpha  occ. eigenvalues --  -18.98405 -18.95643 -18.95485 -10.13718 -10.10900
 Alpha  occ. eigenvalues --  -10.09741 -10.08255 -10.07663 -10.07468 -10.07397
 Alpha  occ. eigenvalues --  -10.07253 -10.07055 -10.06249 -10.05371 -10.05115
 Alpha  occ. eigenvalues --  -10.05077 -10.04724  -0.91501  -0.88303  -0.87409
 Alpha  occ. eigenvalues --   -0.75873  -0.70587  -0.67430  -0.65453  -0.63641
 Alpha  occ. eigenvalues --   -0.58815  -0.56956  -0.53115  -0.49572  -0.48856
 Alpha  occ. eigenvalues --   -0.46241  -0.43283  -0.39200  -0.37039  -0.36202
 Alpha  occ. eigenvalues --   -0.35035  -0.34624  -0.33111  -0.31887  -0.31409
 Alpha  occ. eigenvalues --   -0.31137  -0.30423  -0.29332  -0.28814  -0.28005
 Alpha  occ. eigenvalues --   -0.26486  -0.26050  -0.25307  -0.24953  -0.24807
 Alpha  occ. eigenvalues --   -0.24144  -0.23898  -0.16052  -0.16011  -0.14706
 Alpha  occ. eigenvalues --   -0.14504  -0.12924  -0.11653  -0.10981  -0.04552
 Alpha virt. eigenvalues --    0.05515   0.07111   0.08466   0.08726   0.09356
 Alpha virt. eigenvalues --    0.09433   0.09893   0.11283   0.11717   0.12152
 Alpha virt. eigenvalues --    0.13268   0.13636   0.13651   0.14649   0.15024

  Beta  occ. eigenvalues --  -18.98319 -18.95077 -18.94648 -10.13687 -10.10848
  Beta  occ. eigenvalues --  -10.09688 -10.08252 -10.07662 -10.07472 -10.07397
  Beta  occ. eigenvalues --  -10.07254 -10.07052 -10.06250 -10.05338 -10.05023
  Beta  occ. eigenvalues --  -10.05008 -10.04412  -0.91342  -0.87342  -0.85954
  Beta  occ. eigenvalues --   -0.75865  -0.69984  -0.67415  -0.65407  -0.63374
  Beta  occ. eigenvalues --   -0.58787  -0.56030  -0.52886  -0.49451  -0.48724
  Beta  occ. eigenvalues --   -0.45886  -0.43169  -0.39074  -0.36989  -0.36024
  Beta  occ. eigenvalues --   -0.34789  -0.34365  -0.33027  -0.31818  -0.31309
  Beta  occ. eigenvalues --   -0.31027  -0.30295  -0.28829  -0.28183  -0.27314
  Beta  occ. eigenvalues --   -0.25898  -0.25469  -0.25079  -0.24801  -0.23894
  Beta  occ. eigenvalues --   -0.23705  -0.22302  -0.15916  -0.14639  -0.13791
  Beta  occ. eigenvalues --   -0.12996  -0.12319  -0.10960  -0.10441
  Beta virt. eigenvalues --    0.02514   0.06587   0.07114   0.08469   0.08795
  Beta virt. eigenvalues --    0.09438   0.09703   0.09910   0.11292   0.11740
  Beta virt. eigenvalues --    0.12168   0.13510   0.13649   0.14132   0.14892

 Mulliken charges and spin densities:
               1          2
     1  C   -1.421528   0.011700
     2  C   -0.137291   0.091015
     3  C    0.189554   0.022269
     4  C   -0.769296   0.087080
     5  C    0.384721   0.168004
     6  C    1.477637   0.070524
     7  O   -0.275343   0.206191
     8  O   -0.384289   0.299671
     9  C    0.680971  -0.001005
    10  C   -0.070257   0.000258
    11  C    0.801467   0.002551
    12  C   -0.357780  -0.001622
    13  C   -0.464891   0.002516
    14  C   -0.189337  -0.000277
    15  H    0.163277  -0.006358
    16  H    0.161719  -0.003317
    17  H    0.219961  -0.016697
    18  H    0.183795  -0.000586
    19  H    0.118097   0.000248
    20  H    0.133038   0.000079
    21  H    0.130653  -0.000070
    22  C   -1.098941   0.036241
    23  O   -0.231922   0.032298
    24  C   -0.732260   0.000055
    25  H    0.167950  -0.000201
    26  H    0.196678  -0.000903
    27  H    0.123618   0.000335
 Sum of Mulliken charges =  -1.00000   1.00000

 Dipole moment (field-independent basis, Debye):
    X=             -1.7972    Y=             -0.4228    Z=              9.6311  Tot=              9.8065
 Quadrupole moment (field-independent basis, Debye-Ang):
   XX=           -136.9977   YY=           -125.9703   ZZ=           -120.2140
   XY=            -10.5958   XZ=             -2.4406   YZ=             -1.0015

  Exact polarizability: 279.049  33.951 182.550  18.384  17.435 143.371
 Approx polarizability: 390.887  59.906 331.064  10.456  34.661 227.570

                      1                      2                      3
                      A                      A                      A
 Frequencies --     15.7568                40.3474                73.8015
 Red. masses --      7.5183                 4.5617                 5.1820
 Frc consts  --      0.0011                 0.0044                 0.0166
 IR Inten    --      0.8636                 0.2412                 1.8236

                      4                      5                      6
                      A                      A                      A
 Frequencies --     94.4969               127.0851               142.8250
 Red. masses --      6.4723                 1.3136                 5.1012
 Frc consts  --      0.0341                 0.0125                 0.0613
 IR Inten    --      1.8163                 3.8649                10.5925

                      7                      8                      9
                      A                      A                      A
 Frequencies --    167.6668               185.8956               214.8322
 Red. masses --      2.8579                 5.1642                 5.4283
 Frc consts  --      0.0473                 0.1051                 0.1476
 IR Inten    --      5.2537                 0.1457                 0.2776

                     10                     11                     12
                      A                      A                      A
 Frequencies --    253.7560               309.5544               337.4728
 Red. masses --      4.8001                 5.4265                 6.5641
 Frc consts  --      0.1821                 0.3064                 0.4405
 IR Inten    --      5.0899                 0.3457                 1.4507

                     13                     14                     15
                      A                      A                      A
 Frequencies --    358.7758               397.1170               425.9934
 Red. masses --      4.9325                 3.9194                 3.6415
 Frc consts  --      0.3741                 0.3642                 0.3893
 IR Inten    --      1.6839                 3.2066                 0.9868

                     16                     17                     18
                      A                      A                      A
 Frequencies --    429.6172               468.8640               477.1456
 Red. masses --      7.1866                 3.1224                10.7259
 Frc consts  --      0.7815                 0.4044                 1.4388
 IR Inten    --      6.4742                 6.0600                 1.7538

                     19                     20                     21
                      A                      A                      A
 Frequencies --    538.0450               555.1578               565.2320
 Red. masses --      5.2042                 4.1274                 2.7169
 Frc consts  --      0.8876                 0.7495                 0.5114
 IR Inten    --     10.7293                 1.9760                 6.9210

                     22                     23                     24
                      A                      A                      A
 Frequencies --    611.2571               639.0151               684.3505
 Red. masses --      5.6022                 5.4881                 6.3521
 Frc consts  --      1.2333                 1.3204                 1.7528
 IR Inten    --      7.9761                10.9284                 7.2317

                     25                     26                     27
                      A                      A                      A
 Frequencies --    728.6244               734.8381               751.6368
 Red. masses --      3.2356                 1.8380                 2.6902
 Frc consts  --      1.0121                 0.5848                 0.8955
 IR Inten    --      5.7665                54.0350                18.8315

                     28                     29                     30
                      A                      A                      A
 Frequencies --    784.9530               806.1669               822.9695
 Red. masses --      2.9850                 4.1143                 4.5118
 Frc consts  --      1.0836                 1.5754                 1.8004
 IR Inten    --      6.7863                25.8023                26.2626

                     31                     32                     33
                      A                      A                      A
 Frequencies --    840.7133               853.5250               865.7000
 Red. masses --      2.6085                 4.7031                 1.4588
 Frc consts  --      1.0863                 2.0187                 0.6441
 IR Inten    --     24.9092                 7.9071                 2.7731

                     34                     35                     36
                      A                      A                      A
 Frequencies --    902.0310               940.0605               970.8262
 Red. masses --      1.6342                 1.4170                 1.9175
 Frc consts  --      0.7834                 0.7378                 1.0648
 IR Inten    --     19.2795                 3.8045                38.8059

                     37                     38                     39
                      A                      A                      A
 Frequencies --    973.4983               976.5501              1009.8333
 Red. masses --      1.6511                 1.3067                 1.5864
 Frc consts  --      0.9219                 0.7342                 0.9532
 IR Inten    --     30.2671                 4.5480                 0.8033

                     40                     41                     42
                      A                      A                      A
 Frequencies --   1051.9190              1061.5081              1075.4449
 Red. masses --      1.6002                 2.7416                 2.4366
 Frc consts  --      1.0433                 1.8201                 1.6604
 IR Inten    --      0.5942                34.4880                11.7370

                     43                     44                     45
                      A                      A                      A
 Frequencies --   1121.4621              1141.4364              1177.3280
 Red. masses --      1.8932                 1.4536                 1.1065
 Frc consts  --      1.4029                 1.1159                 0.9036
 IR Inten    --     14.9750                74.6455                 0.2555

                     46                     47                     48
                      A                      A                      A
 Frequencies --   1196.5734              1221.2417              1246.9407
 Red. masses --      1.9894                 2.4474                 1.9144
 Frc consts  --      1.6782                 2.1506                 1.7538
 IR Inten    --     23.6270                 2.6540               125.2021

                     49                     50                     51
                      A                      A                      A
 Frequencies --   1280.4477              1308.7961              1325.1434
 Red. masses --      3.6007                 1.9233                 5.2262
 Frc consts  --      3.4782                 1.9410                 5.4071
 IR Inten    --     25.3948                40.7367                 1.4831

                     52                     53                     54
                      A                      A                      A
 Frequencies --   1345.1552              1405.5078              1417.0633
 Red. masses --      2.4814                 1.2458                 4.1747
 Frc consts  --      2.6454                 1.4500                 4.9391
 IR Inten    --      3.9736                 4.7595                82.2830

                     55                     56                     57
                      A                      A                      A
 Frequencies --   1454.3308              1465.8754              1486.7505
 Red. masses --      4.8753                 1.9473                 1.0805
 Frc consts  --      6.0754                 2.4654                 1.4072
 IR Inten    --    345.2554                22.0084                15.9189

                     58                     59                     60
                      A                      A                      A
 Frequencies --   1496.6842              1513.7693              1515.2543
 Red. masses --      1.3279                 2.0818                 5.9742
 Frc consts  --      1.7526                 2.8107                 8.0817
 IR Inten    --     13.5474                22.7771               128.7067

                     61                     62                     63
                      A                      A                      A
 Frequencies --   1559.2399              1609.0652              1631.1313
 Red. masses --      8.7873                 5.9909                 6.9308
 Frc consts  --     12.5872                 9.1388                10.8645
 IR Inten    --    372.2967                 3.0441                94.1962

                     64                     65                     66
                      A                      A                      A
 Frequencies --   1639.2304              1645.4439              3026.5510
 Red. masses --      6.8519                 8.6918                 1.0355
 Frc consts  --     10.8479                13.8652                 5.5884
 IR Inten    --     24.5764               210.8602                36.4598

                     67                     68                     69
                      A                      A                      A
 Frequencies --   3086.6297              3092.4939              3135.6949
 Red. masses --      1.1008                 1.1009                 1.0849
 Frc consts  --      6.1790                 6.2033                 6.2850
 IR Inten    --     22.2591                13.9256                 8.0943

                     70                     71                     72
                      A                      A                      A
 Frequencies --   3135.8442              3149.1869              3158.6476
 Red. masses --      1.0853                 1.0883                 1.0956
 Frc consts  --      6.2880                 6.3592                 6.4401
 IR Inten    --     16.5145                26.9972                43.1029

                     73                     74                     75
                      A                      A                      A
 Frequencies --   3164.9387              3179.5392              3181.9446
 Red. masses --      1.0936                 1.0945                 1.0887
 Frc consts  --      6.4544                 6.5194                 6.4946
 IR Inten    --     53.4184                26.4370                 5.8669

 - Thermochemistry -
 -------------------
 Temperature   298.150 Kelvin.  Pressure   1.00000 Atm.
 Atom     1 has atomic number  6 and mass  12.00000

 Molecular mass:   226.06299 amu.
 Principal axes and moments of inertia in atomic units:
                           1         2         3
     Eigenvalues --  1629.639416205.822116701.39886
           X            0.94363  -0.30018  -0.13950
           Y            0.23761   0.90769  -0.34589
           Z            0.23045   0.29325   0.92785
 This molecule is an asymmetric top.
 Rotational symmetry number  1.
 Warning -- assumption of classical behavior for rotation
           may cause significant error
 Rotational temperatures (Kelvin)      0.05315     0.01396     0.01292
 Rotational constants (GHZ):           1.10745     0.29081     0.26931
 Zero-point vibrational energy     525042.2 (Joules/Mol)
                                  125.48810 (Kcal/Mol)
 Warning -- explicit consideration of  22 degrees of freedom as
           vibrations may cause significant error
 Vibrational temperatures:     22.67    58.05   106.18   135.96   182.85
          (Kelvin)            205.49   241.24   267.46   309.10   365.10
                              445.38   485.55   516.20   571.36   612.91
                              618.12   674.59   686.51   774.13   798.75
                              813.24   879.46   919.40   984.63  1048.33
                             1057.27  1081.44  1129.37  1159.89  1184.07
                             1209.60  1228.03  1245.55  1297.82  1352.54
                             1396.80  1400.65  1405.04  1452.92  1513.48
                             1527.27  1547.33  1613.53  1642.27  1693.91
                             1721.60  1757.09  1794.07  1842.28  1883.07
                             1906.59  1935.38  2022.21  2038.84  2092.46
                             2109.07  2139.10  2153.39  2177.98  2180.11
                             2243.40  2315.09  2346.83  2358.49  2367.43
                             4354.53  4440.97  4449.41  4511.57  4511.78
                             4530.98  4544.59  4553.64  4574.65  4578.11

 Zero-point correction=                           0.199978 (Hartree/Particle)
 Thermal correction to Energy=                    0.214417
 Thermal correction to Enthalpy=                  0.215361
 Thermal correction to Gibbs Free Energy=         0.156346
 Sum of electronic and zero-point Energies=           -765.244374
 Sum of electronic and thermal Energies=              -765.229935
 Sum of electronic and thermal Enthalpies=            -765.228991
 Sum of electronic and thermal Free Energies=         -765.288005

                     E (Thermal)             CV                S
                      KCal/Mol        Cal/Mol-Kelvin    Cal/Mol-Kelvin
 Total                  134.549             55.117            124.207
 Electronic               0.000              0.000              1.377
 Translational            0.889              2.981             42.149
 Rotational               0.889              2.981             32.583
 Vibrational            132.771             49.155             48.097
 Vibration     1          0.593              1.986              7.108
 Vibration     2          0.594              1.981              5.242
 Vibration     3          0.599              1.966              4.049
 Vibration     4          0.603              1.953              3.565
 Vibration     5          0.611              1.926              2.990
 Vibration     6          0.616              1.910              2.766
 Vibration     7          0.624              1.882              2.461
 Vibration     8          0.632              1.859              2.268
 Vibration     9          0.645              1.818              2.002
 Vibration    10          0.665              1.756              1.704
 Vibration    11          0.699              1.656              1.365
 Vibration    12          0.718              1.601              1.224
 Vibration    13          0.734              1.557              1.127
 Vibration    14          0.764              1.476              0.973
 Vibration    15          0.788              1.414              0.872
 Vibration    16          0.791              1.406              0.860
 Vibration    17          0.826              1.319              0.741
 Vibration    18          0.834              1.301              0.718
 Vibration    19          0.893              1.166              0.570
 Vibration    20          0.911              1.128              0.534
 Vibration    21          0.921              1.106              0.513
 Vibration    22          0.970              1.008              0.431

                           ! Non-Optimized Parameters !
 Normal termination of Gaussian 16 at Wed Jan 10 05:40:11 2024.
