 Q-Chem 5.4, Q-Chem, Inc., Pleasanton, CA (2021)
 Q-Chem 5.4.0 for Intel X86 EM64T Linux

User input:
--------------------------------------------------------------
$molecule
0 1
Br                -2.7033530000     -1.8760850000     -0.0961430000
C                 -1.2025410000     -0.7211350000     -0.0413520000
C                 -1.3383370000      0.6111050000     -0.0309990000
C                 -0.1537460000      1.4998050000      0.0117250000
O                 -0.2780110000      2.7123240000      0.0207280000
C                  1.1865660000      0.8693490000      0.0424170000
C                  1.3239410000     -0.4627350000      0.0322580000
Br                 3.0278680000     -1.2899570000      0.0714050000
C                  0.1429060000     -1.3939990000     -0.0106900000
O                  0.2658620000     -2.5937970000     -0.0195500000
H                 -2.3037350000      1.1007960000     -0.0529700000
H                  2.0325780000      1.5443290000      0.0731710000
$end

$rem
BASIS  =  6-311++G(d,p)
GUI  =  2
JOB_TYPE  =  SP
METHOD  =  B3LYP
SCF_CONVERGENCE  = 8
SOLVENT_METHOD = sm12
$end

$smx
solvent dimethylformamide
charges CM5
$end

--------------------------------------------------------------

             Standard Nuclear Orientation (Angstroms)
    I     Atom           X                Y                Z
 ----------------------------------------------------------------
    1      Br     -2.7033530000    -1.8760850000    -0.0961430000
    2      C      -1.2025410000    -0.7211350000    -0.0413520000
    3      C      -1.3383370000     0.6111050000    -0.0309990000
    4      C      -0.1537460000     1.4998050000     0.0117250000
    5      O      -0.2780110000     2.7123240000     0.0207280000
    6      C       1.1865660000     0.8693490000     0.0424170000
    7      C       1.3239410000    -0.4627350000     0.0322580000
    8      Br      3.0278680000    -1.2899570000     0.0714050000
    9      C       0.1429060000    -1.3939990000    -0.0106900000
   10      O       0.2658620000    -2.5937970000    -0.0195500000
   11      H      -2.3037350000     1.1007960000    -0.0529700000
   12      H       2.0325780000     1.5443290000     0.0731710000
 ----------------------------------------------------------------

   15   -5528.6355254230      3.07e-09  Convergence criterion met
 Total energy in the final basis set =    -5528.6503822531

                    Orbital Energies (a.u.)
 --------------------------------------------------------------

 Alpha MOs
 -- Occupied --
********-482.8566 -62.5095 -62.5094 -56.3301 -56.3301 -56.3262 -56.3261
-56.3257 -56.3257 -19.1650 -19.1545 -10.3185 -10.3035 -10.2801 -10.2800
-10.2311 -10.2311  -8.7183  -8.7182  -6.5503  -6.5502  -6.5370  -6.5369
 -6.5357  -6.5357  -2.6611  -2.6610  -2.6575  -2.6574  -2.6566  -2.6566
 -2.6460  -2.6459  -2.6459  -2.6458  -1.1021  -1.0853  -0.9031  -0.8659
 -0.8096  -0.7708  -0.7244  -0.6409  -0.6223  -0.5542  -0.5269  -0.4877
 -0.4783  -0.4696  -0.4654  -0.4427  -0.4407  -0.4198  -0.3752  -0.3596
 -0.3181  -0.3154  -0.3138  -0.3011  -0.2949  -0.2859

          Ground-State Mulliken Net Atomic Charges

     Atom                 Charge (a.u.)
  ----------------------------------------
      1 Br                   -0.099430
      2 C                     1.446877
      3 C                    -0.002464
      4 C                    -0.337745
      5 O                    -0.304688
      6 C                     0.008844
      7 C                     1.429011
      8 Br                   -0.100453
      9 C                    -2.578841
     10 O                    -0.136824
     11 H                     0.337885
     12 H                     0.337827
  ----------------------------------------
  Sum of atomic charges =     0.000000

                    Cartesian Multipole Moments
 -----------------------------------------------------------------
    Charge (ESU x 10^10)
                -0.0000
    Dipole Moment (Debye)
         X      -0.0657      Y       0.6088      Z       0.0048
       Tot       0.6124
    Quadrupole Moments (Debye-Ang)
        XX     -75.2582     XY       2.2656     YY     -97.0611
        XZ       0.1808     YZ      -0.1052     ZZ     -80.8728

 Total job time:  100.34s(wall), 748.87s(cpu)
        *  Thank you very much for using Q-Chem.  Have a nice day.  *
