 Q-Chem 5.4, Q-Chem, Inc., Pleasanton, CA (2021)
 Q-Chem 5.4.0 for Intel X86 EM64T Linux

User input:
--------------------------------------------------------------
$molecule
-1 2
C                 -7.1480420000      3.8761700000      0.8642420000
C                 -8.1092280000      3.1332580000      0.2042580000
C                 -7.7583980000      2.3745350000     -0.9307770000
C                 -5.8091920000      3.8880410000      0.4164620000
C                 -5.4526160000      3.1216220000     -0.7302030000
C                 -6.4487320000      2.3747450000     -1.3830160000
C                 -4.8035140000      4.6663330000      1.1080870000
C                 -3.4618120000      4.6148990000      0.5748470000
C                 -3.0841370000      3.8906610000     -0.5361330000
C                 -4.0657660000      3.0957860000     -1.2422680000
O                 -5.0123390000      5.3849090000      2.1403980000
O                 -3.7618150000      2.4095740000     -2.2530000000
O                 -2.5681870000      5.3692760000      1.2790000000
C                 -1.6603290000      3.8874110000     -1.0294250000
C                 -0.8311040000      2.7097280000     -0.4820070000
C                  0.6073310000      2.6886780000     -1.0102820000
C                  1.4426520000      1.5210620000     -0.4726970000
C                  2.8828330000      1.4944400000     -0.9978960000
C                  3.7133450000      0.3236760000     -0.4596000000
C                  5.1537780000      0.2942260000     -0.9833980000
C                  5.9779980000     -0.8798410000     -0.4422160000
C                  7.4201100000     -0.9058300000     -0.9665160000
C                  8.2207370000     -2.0850390000     -0.4129360000
S                  9.9399890000     -2.0738840000     -1.0642670000
C                 10.6002680000     -3.5695890000     -0.2272800000
C                 12.0635090000     -3.7998850000     -0.6064360000
C                 12.6608580000     -5.0401940000      0.0709260000
C                 14.1284420000     -5.2844910000     -0.2989240000
C                 14.7325460000     -6.5214840000      0.3752030000
C                 16.2001830000     -6.7666700000      0.0067800000
C                 16.8052140000     -8.0030870000      0.6813220000
C                 18.2728130000     -8.2484710000      0.3136500000
C                 18.8790260000     -9.4845120000      0.9878970000
C                 20.3454280000     -9.7211430000      0.6145620000
H                 -7.3934550000      4.4676290000      1.7391560000
H                 -9.1356030000      3.1335300000      0.5599410000
H                 -8.5140230000      1.7913050000     -1.4486650000
H                 -6.1505710000      1.7998970000     -2.2525540000
H                 -3.1383900000      5.7539140000      1.9812520000
H                 -1.1737970000      4.8279370000     -0.7510950000
H                 -1.6775080000      3.8188090000     -2.1219310000
H                 -1.3355220000      1.7760500000     -0.7527540000
H                 -0.8179780000      2.7605030000      0.6134140000
H                  1.1030810000      3.6350130000     -0.7533970000
H                  0.5869930000      2.6427620000     -2.1073280000
H                  0.9467230000      0.5761440000     -0.7303300000
H                  1.4595390000      1.5648500000      0.6243900000
H                  3.3798220000      2.4389340000     -0.7393560000
H                  2.8665110000      1.4512350000     -2.0949460000
H                  3.2157010000     -0.6201480000     -0.7182680000
H                  3.7288570000      0.3666530000      0.6374170000
H                  5.6532080000      1.2365750000     -0.7234730000
H                  5.1396130000      0.2506340000     -2.0801250000
H                  5.4794580000     -1.8218970000     -0.7041930000
H                  5.9913550000     -0.8362970000      0.6544350000
H                  7.9228090000      0.0309150000     -0.7006970000
H                  7.4105780000     -0.9554810000     -2.0611670000
H                  7.7494380000     -3.0311000000     -0.6951500000
H                  8.2637890000     -2.0366650000      0.6791440000
H                  9.9915820000     -4.4307910000     -0.5189760000
H                 10.5041990000     -3.4357090000      0.8544390000
H                 12.6511800000     -2.9159650000     -0.3338140000
H                 12.1433150000     -3.9035030000     -1.6944970000
H                 12.0679080000     -5.9232570000     -0.1994830000
H                 12.5748960000     -4.9363770000      1.1601270000
H                 14.7206030000     -4.4002660000     -0.0302600000
H                 14.2141410000     -5.3875730000     -1.3882860000
H                 14.1398670000     -7.4055930000      0.1065080000
H                 14.6458100000     -6.4181930000      1.4646670000
H                 16.7926450000     -5.8822610000      0.2749200000
H                 16.2868970000     -6.8703140000     -1.0826340000
H                 16.2127930000     -8.8875520000      0.4130280000
H                 16.7181670000     -7.8994190000      1.7707730000
H                 18.8661820000     -7.3644120000      0.5817830000
H                 18.3608820000     -8.3527910000     -0.7757990000
H                 18.2870700000    -10.3681420000      0.7195860000
H                 18.7918480000     -9.3804500000      2.0763730000
H                 20.4606040000     -9.8640000000     -0.4646790000
H                 20.7471290000    -10.6088770000      1.1114010000
H                 20.9692270000     -8.8687830000      0.9022960000
$end

$rem
MAX_SCF_CYCLES=200
BASIS  =  6-311++G(d,p)
GUI  =  2
JOB_TYPE  =  SP
METHOD  =  B3LYP
THRESH      14
SCF_CONVERGENCE  = 5
SOLVENT_METHOD = sm12
$end

$smx
solvent dimethylformamide
charges CM5
$end

--------------------------------------------------------------

             Standard Nuclear Orientation (Angstroms)
    I     Atom           X                Y                Z
 ----------------------------------------------------------------
    1      C      -7.1480420000     3.8761700000     0.8642420000
    2      C      -8.1092280000     3.1332580000     0.2042580000
    3      C      -7.7583980000     2.3745350000    -0.9307770000
    4      C      -5.8091920000     3.8880410000     0.4164620000
    5      C      -5.4526160000     3.1216220000    -0.7302030000
    6      C      -6.4487320000     2.3747450000    -1.3830160000
    7      C      -4.8035140000     4.6663330000     1.1080870000
    8      C      -3.4618120000     4.6148990000     0.5748470000
    9      C      -3.0841370000     3.8906610000    -0.5361330000
   10      C      -4.0657660000     3.0957860000    -1.2422680000
   11      O      -5.0123390000     5.3849090000     2.1403980000
   12      O      -3.7618150000     2.4095740000    -2.2530000000
   13      O      -2.5681870000     5.3692760000     1.2790000000
   14      C      -1.6603290000     3.8874110000    -1.0294250000
   15      C      -0.8311040000     2.7097280000    -0.4820070000
   16      C       0.6073310000     2.6886780000    -1.0102820000
   17      C       1.4426520000     1.5210620000    -0.4726970000
   18      C       2.8828330000     1.4944400000    -0.9978960000
   19      C       3.7133450000     0.3236760000    -0.4596000000
   20      C       5.1537780000     0.2942260000    -0.9833980000
   21      C       5.9779980000    -0.8798410000    -0.4422160000
   22      C       7.4201100000    -0.9058300000    -0.9665160000
   23      C       8.2207370000    -2.0850390000    -0.4129360000
   24      S       9.9399890000    -2.0738840000    -1.0642670000
   25      C      10.6002680000    -3.5695890000    -0.2272800000
   26      C      12.0635090000    -3.7998850000    -0.6064360000
   27      C      12.6608580000    -5.0401940000     0.0709260000
   28      C      14.1284420000    -5.2844910000    -0.2989240000
   29      C      14.7325460000    -6.5214840000     0.3752030000
   30      C      16.2001830000    -6.7666700000     0.0067800000
   31      C      16.8052140000    -8.0030870000     0.6813220000
   32      C      18.2728130000    -8.2484710000     0.3136500000
   33      C      18.8790260000    -9.4845120000     0.9878970000
   34      C      20.3454280000    -9.7211430000     0.6145620000
   35      H      -7.3934550000     4.4676290000     1.7391560000
   36      H      -9.1356030000     3.1335300000     0.5599410000
   37      H      -8.5140230000     1.7913050000    -1.4486650000
   38      H      -6.1505710000     1.7998970000    -2.2525540000
   39      H      -3.1383900000     5.7539140000     1.9812520000
   40      H      -1.1737970000     4.8279370000    -0.7510950000
   41      H      -1.6775080000     3.8188090000    -2.1219310000
   42      H      -1.3355220000     1.7760500000    -0.7527540000
   43      H      -0.8179780000     2.7605030000     0.6134140000
   44      H       1.1030810000     3.6350130000    -0.7533970000
   45      H       0.5869930000     2.6427620000    -2.1073280000
   46      H       0.9467230000     0.5761440000    -0.7303300000
   47      H       1.4595390000     1.5648500000     0.6243900000
   48      H       3.3798220000     2.4389340000    -0.7393560000
   49      H       2.8665110000     1.4512350000    -2.0949460000
   50      H       3.2157010000    -0.6201480000    -0.7182680000
   51      H       3.7288570000     0.3666530000     0.6374170000
   52      H       5.6532080000     1.2365750000    -0.7234730000
   53      H       5.1396130000     0.2506340000    -2.0801250000
   54      H       5.4794580000    -1.8218970000    -0.7041930000
   55      H       5.9913550000    -0.8362970000     0.6544350000
   56      H       7.9228090000     0.0309150000    -0.7006970000
   57      H       7.4105780000    -0.9554810000    -2.0611670000
   58      H       7.7494380000    -3.0311000000    -0.6951500000
   59      H       8.2637890000    -2.0366650000     0.6791440000
   60      H       9.9915820000    -4.4307910000    -0.5189760000
   61      H      10.5041990000    -3.4357090000     0.8544390000
   62      H      12.6511800000    -2.9159650000    -0.3338140000
   63      H      12.1433150000    -3.9035030000    -1.6944970000
   64      H      12.0679080000    -5.9232570000    -0.1994830000
   65      H      12.5748960000    -4.9363770000     1.1601270000
   66      H      14.7206030000    -4.4002660000    -0.0302600000
   67      H      14.2141410000    -5.3875730000    -1.3882860000
   68      H      14.1398670000    -7.4055930000     0.1065080000
   69      H      14.6458100000    -6.4181930000     1.4646670000
   70      H      16.7926450000    -5.8822610000     0.2749200000
   71      H      16.2868970000    -6.8703140000    -1.0826340000
   72      H      16.2127930000    -8.8875520000     0.4130280000
   73      H      16.7181670000    -7.8994190000     1.7707730000
   74      H      18.8661820000    -7.3644120000     0.5817830000
   75      H      18.3608820000    -8.3527910000    -0.7757990000
   76      H      18.2870700000   -10.3681420000     0.7195860000
   77      H      18.7918480000    -9.3804500000     2.0763730000
   78      H      20.4606040000    -9.8640000000    -0.4646790000
   79      H      20.7471290000   -10.6088770000     1.1114010000
   80      H      20.9692270000    -8.8687830000     0.9022960000
 ----------------------------------------------------------------

    8   -1795.2950001299      4.70e-06  Convergence criterion met
 Total energy in the final basis set =    -1795.3940049348

                    Orbital Energies (a.u.)
 --------------------------------------------------------------

 Alpha MOs
 -- Occupied --
-88.8275 -19.1442 -19.0864 -19.0720 -10.2242 -10.2239 -10.2220 -10.1922
-10.1920 -10.1818 -10.1804 -10.1801 -10.1789 -10.1780 -10.1774 -10.1696
-10.1693 -10.1655 -10.1653 -10.1648 -10.1648 -10.1643 -10.1632 -10.1630
-10.1629 -10.1629 -10.1627 -10.1625 -10.1625 -10.1624 -10.1623 -10.1623
-10.1621 -10.1573  -7.9139  -5.8779  -5.8745  -5.8673  -1.0639  -0.9975
 -0.9954  -0.8640  -0.8232  -0.8193  -0.8150  -0.8081  -0.8004  -0.7879
 -0.7775  -0.7629  -0.7574  -0.7492  -0.7339  -0.7157  -0.6978  -0.6801
 -0.6667  -0.6496  -0.6311  -0.6211  -0.6093  -0.5951  -0.5843  -0.5820
 -0.5817  -0.5768  -0.5763  -0.5756  -0.5727  -0.5709  -0.5414  -0.5078
 -0.4909  -0.4897  -0.4867  -0.4787  -0.4760  -0.4659  -0.4595  -0.4568
 -0.4512  -0.4415  -0.4388  -0.4351  -0.4335  -0.4305  -0.4282  -0.4266
 -0.4234  -0.4201  -0.4145  -0.4071  -0.4048  -0.4016  -0.3971  -0.3965
 -0.3898  -0.3889  -0.3856  -0.3808  -0.3766  -0.3698  -0.3684  -0.3662
 -0.3618  -0.3572  -0.3529  -0.3481  -0.3454  -0.3449  -0.3437  -0.3409
 -0.3395  -0.3340  -0.3330  -0.3302  -0.3290  -0.3286  -0.3260  -0.3258
 -0.3242  -0.3239  -0.3232  -0.3231  -0.3090  -0.3014  -0.2959  -0.2705
 -0.2637  -0.2585  -0.2374  -0.2308  -0.2171  -0.1518

 Beta MOs
 -- Occupied --
-88.8275 -19.1437 -19.0800 -19.0668 -10.2230 -10.2229 -10.2193 -10.1922
-10.1920 -10.1817 -10.1798 -10.1795 -10.1784 -10.1779 -10.1766 -10.1696
-10.1693 -10.1655 -10.1653 -10.1648 -10.1645 -10.1640 -10.1632 -10.1629
-10.1629 -10.1629 -10.1627 -10.1625 -10.1625 -10.1623 -10.1623 -10.1623
-10.1621 -10.1573  -7.9139  -5.8779  -5.8745  -5.8673  -1.0618  -0.9883
 -0.9845  -0.8617  -0.8232  -0.8182  -0.8142  -0.8074  -0.7997  -0.7873
 -0.7768  -0.7621  -0.7553  -0.7487  -0.7334  -0.7152  -0.6968  -0.6771
 -0.6624  -0.6485  -0.6305  -0.6197  -0.6083  -0.5941  -0.5839  -0.5820
 -0.5815  -0.5767  -0.5760  -0.5756  -0.5716  -0.5699  -0.5397  -0.5056
 -0.4907  -0.4895  -0.4850  -0.4784  -0.4753  -0.4648  -0.4586  -0.4567
 -0.4509  -0.4409  -0.4351  -0.4331  -0.4325  -0.4302  -0.4265  -0.4261
 -0.4218  -0.4178  -0.4108  -0.4050  -0.4032  -0.4005  -0.3964  -0.3953
 -0.3884  -0.3850  -0.3806  -0.3792  -0.3746  -0.3683  -0.3678  -0.3638
 -0.3606  -0.3531  -0.3494  -0.3466  -0.3442  -0.3438  -0.3404  -0.3388
 -0.3335  -0.3326  -0.3306  -0.3297  -0.3283  -0.3269  -0.3260  -0.3257
 -0.3242  -0.3234  -0.3232  -0.3228  -0.3087  -0.3013  -0.2957  -0.2567
 -0.2529  -0.2506  -0.2324  -0.2207  -0.2171

          Ground-State Mulliken Net Atomic Charges

     Atom                 Charge (a.u.)    Spin (a.u.)
  --------------------------------------------------------
      1 C                     0.182241       0.071385
      2 C                     0.845389       0.004087
      3 C                     0.864837       0.073339
      4 C                    -0.694558       0.006134
      5 C                    -1.174021       0.070237
      6 C                    -0.175812       0.003109
      7 C                    -1.548056       0.141217
      8 C                    -0.667106       0.060768
      9 C                     1.378232       0.052916
     10 C                    -2.008212       0.053750
     11 O                    -0.373859       0.244939
     12 O                    -0.287595       0.205276
     13 O                    -0.136513       0.016460
     14 C                    -0.463142       0.014700
     15 C                    -1.466858      -0.001933
     16 C                    -0.300768       0.000687
     17 C                     0.210217      -0.004676
     18 C                     0.786977      -0.001199
     19 C                     0.417477       0.000004
     20 C                     0.127557       0.000263
     21 C                     0.084812      -0.000034
     22 C                    -0.252820       0.000003
     23 C                    -0.439969       0.000019
     24 S                    -0.536926      -0.000001
     25 C                    -0.607285       0.000008
     26 C                    -0.228077      -0.000005
     27 C                     0.243168      -0.000002
     28 C                     0.046077       0.000001
     29 C                     0.134148       0.000001
     30 C                     0.068820      -0.000000
     31 C                    -0.143145      -0.000000
     32 C                    -0.399771      -0.000000
     33 C                    -0.276110      -0.000000
     34 C                    -0.618361       0.000000
     35 H                     0.170252      -0.003773
     36 H                     0.357073      -0.001046
     37 H                     0.342287      -0.005106
     38 H                     0.137825      -0.000636
     39 H                     0.295846      -0.003943
     40 H                     0.196246      -0.001024
     41 H                     0.133867       0.002968
     42 H                     0.066976      -0.001848
     43 H                     0.079579       0.002809
     44 H                     0.162923      -0.000465
     45 H                     0.158402       0.000712
     46 H                     0.106874      -0.000021
     47 H                     0.114881      -0.000061
     48 H                     0.104105      -0.000004
     49 H                     0.102363      -0.000002
     50 H                     0.115674       0.000003
     51 H                     0.118335      -0.000004
     52 H                     0.127358      -0.000014
     53 H                     0.126078       0.000003
     54 H                     0.121940      -0.000002
     55 H                     0.122030       0.000001
     56 H                     0.089149       0.000004
     57 H                     0.089333      -0.000002
     58 H                     0.180015      -0.000001
     59 H                     0.180175       0.000001
     60 H                     0.171762       0.000000
     61 H                     0.172097      -0.000000
     62 H                     0.103368      -0.000000
     63 H                     0.103218       0.000000
     64 H                     0.122820      -0.000000
     65 H                     0.122428      -0.000000
     66 H                     0.111168       0.000000
     67 H                     0.110920      -0.000000
     68 H                     0.111833      -0.000000
     69 H                     0.111487       0.000000
     70 H                     0.113660      -0.000000
     71 H                     0.113346       0.000000
     72 H                     0.113533       0.000000
     73 H                     0.113165       0.000000
     74 H                     0.105267       0.000000
     75 H                     0.104934      -0.000000
     76 H                     0.127375      -0.000000
     77 H                     0.127175      -0.000000
     78 H                     0.141417      -0.000000
     79 H                     0.166960       0.000000
     80 H                     0.141495      -0.000000
  --------------------------------------------------------
  Sum of atomic charges =    -1.000000

                    Cartesian Multipole Moments
 -----------------------------------------------------------------
    Charge (ESU x 10^10)
                -4.8032
    Dipole Moment (Debye)
         X      19.5963      Y     -19.5280      Z       1.8452
       Tot      27.7266
    Quadrupole Moments (Debye-Ang)
        XX    -341.0908     XY      71.0543     YY    -302.5748
        XZ      14.5331     YZ      -9.5436     ZZ    -248.3521

 Total job time:  4477.31s(wall), 21794.24s(cpu)
        *  Thank you very much for using Q-Chem.  Have a nice day.  *
