 Q-Chem 5.4, Q-Chem, Inc., Pleasanton, CA (2021)
 Q-Chem 5.4.0 for Intel X86 EM64T Linux

User input:
--------------------------------------------------------------
$molecule
-2 1
I                 -3.3421870000     -1.0833870000     -0.1471560000
C                 -1.3232230000     -0.3817450000     -0.0109160000
C                 -0.9753400000      0.9694990000     -0.0728630000
I                 -2.4146760000      2.5555600000     -0.0628780000
C                  0.3772150000      1.4691210000     -0.0422180000
O                  0.6913480000      2.7004660000     -0.0212710000
C                  1.3232300000      0.3817350000      0.0111800000
C                  0.9753450000     -0.9694910000      0.0731520000
I                  2.4146690000     -2.5555580000      0.0635390000
C                 -0.3772310000     -1.4691210000      0.0424130000
O                 -0.6913320000     -2.7004770000      0.0216410000
I                  3.3421790000      1.0834000000      0.1473770000
$end
$rem
MAX_SCF_CYCLES=200
BASIS  =  6-311++G(d,p)
GUI  =  2
JOB_TYPE  =  SP
METHOD  =  B3LYP
SOLVENT_METHOD = COSMO
$end
$solvent
dielectric 37.219
opticaldielectric 1.43
$end

--------------------------------------------------------------

             Standard Nuclear Orientation (Angstroms)
    I     Atom           X                Y                Z
 ----------------------------------------------------------------
    1      I      -2.9729376139     1.8780671614     0.0122707353
    2      C      -1.1870405507     0.6970915832    -0.0420139787
    3      C      -1.1869653955    -0.6970512092     0.0421657628
    4      I      -2.9728992556    -1.8780892360    -0.0123020567
    5      C      -0.0000162904    -1.5159054526     0.0665755340
    6      O       0.0000020219    -2.7868611092     0.0658366421
    7      C       1.1870509881    -0.6970774875     0.0421607953
    8      C       1.1869703248     0.6970479626    -0.0420438843
    9      I       2.9729072203     1.8780888537     0.0120517168
   10      C      -0.0000004596     1.5159166419    -0.0663605823
   11      O       0.0000211294     2.7868722639    -0.0657954083
   12      I       2.9729263113    -1.8780709578    -0.0120813718
 ----------------------------------------------------------------

    9  -28057.2597132512      8.88e-06  Convergence criterion met
 Total energy in the final basis set =   -28057.2597132512
    5  -28057.5158501931      9.14e-06  Convergence criterion met
 Total energy in the final basis set =   -28057.5158501931

                    Orbital Energies (a.u.)
 --------------------------------------------------------------

 Alpha MOs
 -- Occupied --
***********************************-176.2803-176.2803-176.2803-176.2803
********-165.6839-165.6839-165.6839-165.6821-165.6821-165.6821-165.6821
********-165.6819-165.6819-165.6819 -35.7768 -35.7768 -35.7768 -35.7768
-31.2695 -31.2695 -31.2695 -31.2695 -31.2644 -31.2644 -31.2644 -31.2644
-31.2640 -31.2640 -31.2640 -31.2640 -22.9201 -22.9201 -22.9201 -22.9201
-22.9190 -22.9190 -22.9190 -22.9190 -22.9187 -22.9187 -22.9187 -22.9187
-22.9151 -22.9151 -22.9151 -22.9151 -22.9151 -22.9151 -22.9151 -22.9151
-19.0430 -19.0430 -10.2124 -10.2124 -10.1985 -10.1984 -10.1979 -10.1979
 -6.3262  -6.3262  -6.3262  -6.3262  -4.7374  -4.7374  -4.7374  -4.7374
 -4.7250  -4.7250  -4.7250  -4.7250  -4.7239  -4.7239  -4.7239  -4.7239
 -2.0033  -2.0033  -2.0033  -2.0032  -1.9998  -1.9998  -1.9998  -1.9998
 -1.9988  -1.9988  -1.9988  -1.9988  -1.9881  -1.9881  -1.9881  -1.9881
 -1.9879  -1.9879  -1.9879  -1.9879  -0.9722  -0.9689  -0.8239  -0.7550
 -0.6973  -0.6631  -0.6453  -0.6114  -0.6031  -0.5392  -0.5283  -0.4788
 -0.4222  -0.4009  -0.3966  -0.3600  -0.3576  -0.3535  -0.3523  -0.3178
 -0.3106  -0.2790  -0.2723  -0.2672  -0.2632  -0.2561  -0.2501  -0.2411
 -0.2354  -0.2239  -0.2152  -0.2052  -0.1474

          Ground-State Mulliken Net Atomic Charges

     Atom                 Charge (a.u.)
  ----------------------------------------
      1 I                    -0.072435
      2 C                     0.666325
      3 C                     0.666207
      4 I                    -0.072390
      5 C                    -1.687384
      6 O                    -0.499189
      7 C                     0.664854
      8 C                     0.665529
      9 I                    -0.072355
     10 C                    -1.687688
     11 O                    -0.499178
     12 I                    -0.072296
  ----------------------------------------
  Sum of atomic charges =    -2.000000

                    Cartesian Multipole Moments
 -----------------------------------------------------------------
    Charge (ESU x 10^10)
                -9.6064
    Dipole Moment (Debye)
         X      -0.0005      Y       0.0001      Z      -0.0008
       Tot       0.0009
    Quadrupole Moments (Debye-Ang)
        XX    -194.1587     XY      -0.0039     YY    -229.2229
        XZ       0.0015     YZ       1.4212     ZZ    -168.9204

 Total job time:  45.95s(wall), 253.54s(cpu)
        *  Thank you very much for using Q-Chem.  Have a nice day.  *
