 Gaussian 16, Revision A.03,
 Gaussian 16:  ES64L-G16RevA.03 25-Dec-2016

 ----------------------------------------------------------------
 #P UB3LYP/6-311++G(d,p) SCRF=(PCM,Solvent=n,n-DiMethylFormamide)
 ----------------------------------------------------------------

 -------
 Reduced
 -------
 Symbolic Z-matrix:
 Charge = -2 Multiplicity = 1

                         Standard orientation:
 ---------------------------------------------------------------------
 Center     Atomic      Atomic             Coordinates (Angstroms)
 Number     Number       Type             X           Y           Z
 ---------------------------------------------------------------------
      1          6           0        3.454246    1.274593   -0.000291
      2          6           0        2.643418   -0.036409    0.000076
      3          6           0        3.051116   -0.839704   -1.260617
      4          6           0        3.050773   -0.839087    1.261245
      5          6           0        1.113262    0.179375   -0.000203
      6          6           0        0.568828    1.491036   -0.000125
      7          6           0       -0.808590    1.820694   -0.000128
      8          8           0       -1.262331    3.036135    0.000126
      9          6           0       -1.684871    0.657947    0.000002
     10          6           0       -3.089035    0.828604   -0.000021
     11          6           0       -3.964429   -0.242823    0.000021
     12          6           0       -3.445795   -1.565876    0.000064
     13          6           0       -2.077246   -1.764514    0.000050
     14          6           0       -1.154006   -0.688660   -0.000013
     15          6           0        0.271061   -0.975459   -0.000280
     16          8           0        0.709011   -2.206895   -0.000073
     17          1           0        3.239948    1.883906    0.883417
     18          1           0        4.528021    1.039175   -0.000374
     19          1           0        3.239545    1.883390   -0.884238
     20          1           0        2.473310   -1.766561   -1.287960
     21          1           0        4.129238   -1.071558   -1.251262
     22          1           0        2.835055   -0.255961   -2.163247
     23          1           0        4.128977   -1.070590    1.252499
     24          1           0        2.473190   -1.766114    1.288651
     25          1           0        2.834037   -0.255126    2.163554
     26          1           0        1.234070    2.350191   -0.000101
     27          1           0       -3.446764    1.854719   -0.000126
     28          1           0       -5.041299   -0.075984   -0.000046
     29          1           0       -4.124072   -2.418965    0.000056
     30          1           0       -1.649092   -2.762740    0.000063
 ---------------------------------------------------------------------

 SCF Done:  E(UB3LYP) =  -692.796914259     A.U. after   18 cycles

 The electronic state is 1-A.
 Alpha  occ. eigenvalues --  -19.01164 -19.00469 -10.16345 -10.16072 -10.15899
 Alpha  occ. eigenvalues --  -10.14723 -10.14669 -10.14268 -10.14129 -10.13835
 Alpha  occ. eigenvalues --  -10.13224 -10.13181 -10.12943 -10.12942 -10.12381
 Alpha  occ. eigenvalues --  -10.11180  -0.92374  -0.91685  -0.81976  -0.79529
 Alpha  occ. eigenvalues --   -0.74798  -0.71801  -0.69185  -0.66381  -0.65756
 Alpha  occ. eigenvalues --   -0.63346  -0.58406  -0.57518  -0.52804  -0.50812
 Alpha  occ. eigenvalues --   -0.46729  -0.45886  -0.43412  -0.42366  -0.41386
 Alpha  occ. eigenvalues --   -0.41072  -0.39636  -0.38726  -0.37779  -0.37681
 Alpha  occ. eigenvalues --   -0.35807  -0.35806  -0.34892  -0.34387  -0.34236
 Alpha  occ. eigenvalues --   -0.32047  -0.31244  -0.30872  -0.30122  -0.29873
 Alpha  occ. eigenvalues --   -0.29641  -0.28967  -0.22498  -0.21581  -0.20493
 Alpha  occ. eigenvalues --   -0.19165  -0.18182  -0.10702
 Alpha virt. eigenvalues --   -0.00351  -0.00051   0.00755   0.01408   0.01594
 Alpha virt. eigenvalues --    0.02476   0.02540   0.02727   0.04074   0.04547
 Alpha virt. eigenvalues --    0.04655   0.04817   0.05389   0.06122   0.07103

  Beta  occ. eigenvalues --  -19.01164 -19.00469 -10.16345 -10.16072 -10.15899
  Beta  occ. eigenvalues --  -10.14723 -10.14669 -10.14268 -10.14129 -10.13835
  Beta  occ. eigenvalues --  -10.13224 -10.13181 -10.12943 -10.12942 -10.12381
  Beta  occ. eigenvalues --  -10.11180  -0.92374  -0.91685  -0.81976  -0.79529
  Beta  occ. eigenvalues --   -0.74798  -0.71801  -0.69185  -0.66381  -0.65756
  Beta  occ. eigenvalues --   -0.63346  -0.58406  -0.57518  -0.52804  -0.50812
  Beta  occ. eigenvalues --   -0.46729  -0.45886  -0.43412  -0.42366  -0.41386
  Beta  occ. eigenvalues --   -0.41072  -0.39636  -0.38726  -0.37779  -0.37681
  Beta  occ. eigenvalues --   -0.35807  -0.35806  -0.34892  -0.34387  -0.34236
  Beta  occ. eigenvalues --   -0.32047  -0.31244  -0.30872  -0.30122  -0.29873
  Beta  occ. eigenvalues --   -0.29641  -0.28967  -0.22498  -0.21581  -0.20493
  Beta  occ. eigenvalues --   -0.19165  -0.18182  -0.10702
  Beta virt. eigenvalues --   -0.00351  -0.00051   0.00755   0.01408   0.01594
  Beta virt. eigenvalues --    0.02476   0.02540   0.02727   0.04074   0.04547
  Beta virt. eigenvalues --    0.04655   0.04817   0.05389   0.06122   0.07103

 Mulliken charges and spin densities:
               1          2
     1  C   -0.513239   0.000000
     2  C    0.790799  -0.000000
     3  C   -0.681544  -0.000000
     4  C   -0.681864  -0.000000
     5  C    0.728994   0.000000
     6  C   -0.372044   0.000000
     7  C   -0.635006  -0.000000
     8  O   -0.720318  -0.000000
     9  C    0.544280  -0.000000
    10  C   -0.157377   0.000000
    11  C   -0.475258  -0.000000
    12  C   -0.458791   0.000000
    13  C    0.054255  -0.000000
    14  C    0.335396   0.000000
    15  C   -1.092804  -0.000000
    16  O   -0.645619  -0.000000
    17  H    0.125244  -0.000000
    18  H    0.157636  -0.000000
    19  H    0.125225  -0.000000
    20  H    0.184291   0.000000
    21  H    0.126438   0.000000
    22  H    0.114258   0.000000
    23  H    0.126410   0.000000
    24  H    0.184239   0.000000
    25  H    0.114283   0.000000
    26  H    0.127594  -0.000000
    27  H    0.139504   0.000000
    28  H    0.155106  -0.000000
    29  H    0.155264   0.000000
    30  H    0.144647   0.000000
 Sum of Mulliken charges =  -2.00000   0.00000

 Dipole moment (field-independent basis, Debye):
    X=              4.3975    Y=             -3.6729    Z=              0.0002  Tot=              5.7296
 Quadrupole moment (field-independent basis, Debye-Ang):
   XX=           -128.8873   YY=           -160.9558   ZZ=           -110.2495
   XY=             17.8500   XZ=              0.0029   YZ=             -0.0021

 Normal termination of Gaussian 16 at Sun Jan 21 08:49:36 2024.
