 Q-Chem 5.4, Q-Chem, Inc., Pleasanton, CA (2021)
 Q-Chem 5.4.0 for Intel X86 EM64T Linux

User input:
--------------------------------------------------------------
$molecule
0 1
O                  2.5429200000     -0.9802570000     -0.2511560000
C                  1.3521900000     -0.4204030000     -0.1256240000
C                  1.1545980000      0.9136500000     -0.0067770000
Cl                 2.4612190000      2.0465710000     -0.0069760000
C                 -0.2034900000      1.4158100000      0.1260840000
O                 -0.5146140000      2.5901530000      0.2388780000
C                 -1.3521540000      0.4203690000      0.1256920000
C                 -1.1545710000     -0.9136980000      0.0069470000
Cl                -2.4612220000     -2.0465600000      0.0066430000
C                  0.2035560000     -1.4159180000     -0.1253400000
O                  0.5145070000     -2.5902260000     -0.2390530000
O                 -2.5428870000      0.9803720000      0.2507880000
H                  2.3853430000     -1.9452640000     -0.3162290000
H                 -2.3853960000      1.9454000000      0.3161240000
$end
$rem
MAX_SCF_CYCLES=200
BASIS  =  6-311++G(d,p)
GUI  =  2
JOB_TYPE  =  SP
METHOD  =  B3LYP
SOLVENT_METHOD = COSMO
$end
$solvent
dielectric 37.219
opticaldielectric 1.43
$end

--------------------------------------------------------------

             Standard Nuclear Orientation (Angstroms)
    I     Atom           X                Y                Z
 ----------------------------------------------------------------
    1      O      -1.4201317683    -2.3395763959     0.0002107569
    2      C      -0.8165642244    -1.1636771965     0.0001108438
    3      C      -1.4722339261     0.0207896858    -0.0001379703
    4      Cl     -3.1985849614     0.1231641283     0.0000764710
    5      C      -0.7007788017     1.2532978700    -0.0006796739
    6      O      -1.1691415652     2.3799022789     0.0002893251
    7      C       0.8165528712     1.1636522108    -0.0002634381
    8      C       1.4722388658    -0.0208097060    -0.0001165598
    9      Cl      3.1985746432    -0.1231715025     0.0001759479
   10      C       0.7007929088    -1.2533294264    -0.0001531121
   11      O       1.1692658608    -2.3798965754    -0.0001935718
   12      O       1.4200293114     2.3396256430     0.0000821772
   13      H      -0.7074738829    -3.0121997811     0.0000200245
   14      H       0.7074284201     3.0123449118     0.0000188151
 ----------------------------------------------------------------

    9   -1451.3147216816      6.28e-06  Convergence criterion met
 Total energy in the final basis set =    -1451.3147216816
    5   -1451.3310566283      5.17e-06  Convergence criterion met
 Total energy in the final basis set =    -1451.3310566283

                    Orbital Energies (a.u.)
 --------------------------------------------------------------

 Alpha MOs
 -- Occupied --
********-101.5806 -19.2035 -19.2034 -19.1663 -19.1663 -10.3167 -10.3167
-10.3012 -10.3012 -10.2658 -10.2658  -9.4950  -9.4950  -7.2598  -7.2597
 -7.2498  -7.2498  -7.2493  -7.2493  -1.1370  -1.1342  -1.0904  -1.0889
 -0.9203  -0.9043  -0.8423  -0.7732  -0.7252  -0.6698  -0.6360  -0.6198
 -0.5706  -0.5617  -0.5034  -0.4978  -0.4974  -0.4814  -0.4805  -0.4653
 -0.4422  -0.4295  -0.4135  -0.4127  -0.3746  -0.3698  -0.3485  -0.3427
 -0.3258  -0.3203  -0.2941  -0.2613

          Ground-State Mulliken Net Atomic Charges

     Atom                 Charge (a.u.)
  ----------------------------------------
      1 O                    -0.169666
      2 C                    -1.264673
      3 C                     2.013488
      4 Cl                    0.254827
      5 C                    -0.881183
      6 O                    -0.288626
      7 C                    -1.263392
      8 C                     2.013016
      9 Cl                    0.254819
     10 C                    -0.880989
     11 O                    -0.288667
     12 O                    -0.169723
     13 H                     0.335404
     14 H                     0.335364
  ----------------------------------------
  Sum of atomic charges =     0.000000

                    Cartesian Multipole Moments
 -----------------------------------------------------------------
    Charge (ESU x 10^10)
                 0.0000
    Dipole Moment (Debye)
         X       0.0003      Y       0.0029      Z      -0.0035
       Tot       0.0045
    Quadrupole Moments (Debye-Ang)
        XX     -94.3697     XY       5.5394     YY     -81.7079
        XZ       0.0017     YZ      -0.0039     ZZ     -79.6703

 Total job time:  18.42s(wall), 120.68s(cpu)
        *  Thank you very much for using Q-Chem.  Have a nice day.  *
