 Q-Chem 5.4, Q-Chem, Inc., Pleasanton, CA (2021)
 Q-Chem 5.4.0 for Intel X86 EM64T Linux

User input:
--------------------------------------------------------------
$molecule
-1 2
C                 -1.6416920000      2.8808700000     -0.7110000000
C                 -2.8407790000      2.2689980000     -0.3966480000
C                 -2.8546890000      0.9220280000      0.0199850000
C                 -0.4130060000      2.1920130000     -0.6275190000
C                 -0.4331650000      0.8261300000     -0.2043720000
C                 -1.6666310000      0.2181410000      0.1123920000
C                  0.8291810000      2.8981280000     -0.9754030000
C                  2.1020550000      2.1215140000     -0.8695350000
C                  2.0009480000      0.7384830000     -0.4327270000
C                  0.8184650000      0.1253980000     -0.1195900000
O                  0.8159210000      4.0936820000     -1.3424000000
O                  3.2144780000      2.6240730000     -1.1411590000
O                  0.7129180000     -1.1941530000      0.2984840000
C                  1.8955180000     -1.9492050000      0.4067020000
C                  1.5942520000     -3.3426360000      0.8688850000
C                  0.3909170000     -3.8354040000      1.1487480000
H                 -1.6025250000      3.9150830000     -1.0338870000
H                 -3.7715680000      2.8239240000     -0.4701140000
H                 -3.7934820000      0.4361620000      0.2681710000
H                 -1.6699260000     -0.8168560000      0.4318190000
H                  2.9486050000      0.2173250000     -0.3715210000
H                  2.5943590000     -1.4742010000      1.1129550000
H                  2.4173920000     -1.9914290000     -0.5621500000
H                  2.4758640000     -3.9739940000      0.9703510000
H                 -0.4983280000     -3.2247240000      1.0545150000
H                  0.2688070000     -4.8613780000      1.4785280000
$end
$rem
MAX_SCF_CYCLES=200
BASIS  =  6-311++G(d,p)
GUI  =  2
JOB_TYPE  =  SP
METHOD  =  B3LYP
SOLVENT_METHOD = PCM
$end
$pcm
theory = CPCM
$end
$solvent
dielectric 37.219
opticaldielectric 1.43
$end

--------------------------------------------------------------

             Standard Nuclear Orientation (Angstroms)
    I     Atom           X                Y                Z
 ----------------------------------------------------------------
    1      C      -1.6416920000     2.8808700000    -0.7110000000
    2      C      -2.8407790000     2.2689980000    -0.3966480000
    3      C      -2.8546890000     0.9220280000     0.0199850000
    4      C      -0.4130060000     2.1920130000    -0.6275190000
    5      C      -0.4331650000     0.8261300000    -0.2043720000
    6      C      -1.6666310000     0.2181410000     0.1123920000
    7      C       0.8291810000     2.8981280000    -0.9754030000
    8      C       2.1020550000     2.1215140000    -0.8695350000
    9      C       2.0009480000     0.7384830000    -0.4327270000
   10      C       0.8184650000     0.1253980000    -0.1195900000
   11      O       0.8159210000     4.0936820000    -1.3424000000
   12      O       3.2144780000     2.6240730000    -1.1411590000
   13      O       0.7129180000    -1.1941530000     0.2984840000
   14      C       1.8955180000    -1.9492050000     0.4067020000
   15      C       1.5942520000    -3.3426360000     0.8688850000
   16      C       0.3909170000    -3.8354040000     1.1487480000
   17      H      -1.6025250000     3.9150830000    -1.0338870000
   18      H      -3.7715680000     2.8239240000    -0.4701140000
   19      H      -3.7934820000     0.4361620000     0.2681710000
   20      H      -1.6699260000    -0.8168560000     0.4318190000
   21      H       2.9486050000     0.2173250000    -0.3715210000
   22      H       2.5943590000    -1.4742010000     1.1129550000
   23      H       2.4173920000    -1.9914290000    -0.5621500000
   24      H       2.4758640000    -3.9739940000     0.9703510000
   25      H      -0.4983280000    -3.2247240000     1.0545150000
   26      H       0.2688070000    -4.8613780000     1.4785280000
 ----------------------------------------------------------------

    9    -727.3868462344      4.59e-06  Convergence criterion met
 Total energy in the final basis set =     -727.3868462344

                    Orbital Energies (a.u.)
 --------------------------------------------------------------

 Alpha MOs
 -- Occupied --
-19.1585 -19.0794 -19.0758 -10.2375 -10.2284 -10.2200 -10.2177 -10.1827
-10.1792 -10.1743 -10.1732 -10.1719 -10.1712 -10.1691 -10.1628 -10.1573
 -1.0728  -1.0160  -0.9893  -0.8644  -0.8124  -0.7854  -0.7547  -0.7306
 -0.7050  -0.6684  -0.6202  -0.5972  -0.5855  -0.5465  -0.5291  -0.5101
 -0.4972  -0.4799  -0.4693  -0.4484  -0.4433  -0.4277  -0.4235  -0.4213
 -0.4175  -0.4091  -0.3891  -0.3776  -0.3666  -0.3609  -0.3556  -0.3425
 -0.3380  -0.3362  -0.2797  -0.2657  -0.2624  -0.2591  -0.2277  -0.2261
 -0.1530

 Beta MOs
 -- Occupied --
-19.1574 -19.0729 -19.0707 -10.2353 -10.2284 -10.2183 -10.2154 -10.1818
-10.1792 -10.1740 -10.1733 -10.1713 -10.1708 -10.1686 -10.1628 -10.1580
 -1.0705  -1.0057  -0.9785  -0.8620  -0.8103  -0.7836  -0.7523  -0.7292
 -0.7031  -0.6612  -0.6186  -0.5935  -0.5838  -0.5452  -0.5277  -0.5088
 -0.4943  -0.4770  -0.4683  -0.4464  -0.4421  -0.4272  -0.4204  -0.4160
 -0.4051  -0.4051  -0.3863  -0.3659  -0.3629  -0.3549  -0.3508  -0.3412
 -0.3355  -0.3166  -0.2720  -0.2629  -0.2566  -0.2502  -0.2223  -0.2184

          Ground-State Mulliken Net Atomic Charges

     Atom                 Charge (a.u.)    Spin (a.u.)
  --------------------------------------------------------
      1 C                     0.056140       0.062310
      2 C                    -0.483283       0.004876
      3 C                    -0.361423       0.069912
      4 C                     0.429569       0.008269
      5 C                     0.303818       0.051021
      6 C                    -0.201135      -0.000876
      7 C                    -0.498111       0.148323
      8 C                    -0.007389       0.154561
      9 C                     0.107149      -0.069093
     10 C                    -0.120302       0.116893
     11 O                    -0.508808       0.244075
     12 O                    -0.539523       0.184933
     13 O                    -0.146761       0.026682
     14 C                     0.074705       0.001296
     15 C                    -0.331318      -0.000616
     16 C                    -0.648921      -0.000040
     17 H                     0.176358      -0.004484
     18 H                     0.193082      -0.001275
     19 H                     0.211510      -0.004705
     20 H                     0.134663       0.000987
     21 H                     0.238937       0.002066
     22 H                     0.184448       0.002614
     23 H                     0.185041       0.002655
     24 H                     0.232873      -0.000185
     25 H                     0.144792      -0.000235
     26 H                     0.173889       0.000038
  --------------------------------------------------------
  Sum of atomic charges =    -1.000000

                    Cartesian Multipole Moments
 -----------------------------------------------------------------
    Charge (ESU x 10^10)
                -4.8032
    Dipole Moment (Debye)
         X      -8.0827      Y     -17.0116      Z       6.0690
       Tot      19.7878
    Quadrupole Moments (Debye-Ang)
        XX    -115.2264     XY     -35.8286     YY    -152.3506
        XZ      12.5458     YZ      19.6588     ZZ    -107.8795

 Total job time:  53.70s(wall), 354.48s(cpu)
        *  Thank you very much for using Q-Chem.  Have a nice day.  *
