 Q-Chem 5.4, Q-Chem, Inc., Pleasanton, CA (2021)
 Q-Chem 5.4.0 for Intel X86 EM64T Linux

User input:
--------------------------------------------------------------
$molecule
-2 1
C                  1.0566050000      1.7409920000     -0.0393200000
C                 -0.1712870000      1.0894630000      0.4161080000
C                 -0.4349570000     -0.2284550000      0.2338360000
C                  0.5087460000     -1.1739140000     -0.3621250000
C                  1.7404580000     -0.5870870000     -0.8332980000
C                  1.9220660000      0.8626160000     -0.7634340000
O                  1.2393850000      2.9753150000      0.2010630000
O                  0.2273570000     -2.4160750000     -0.3321920000
S                  3.0929370000      1.6532640000     -1.8249400000
C                  4.4654070000      2.2300130000     -0.7706630000
C                  4.2989030000      3.3878900000     -0.0077970000
C                  5.6576020000      1.5083090000     -0.7364580000
C                  6.7106240000      1.9698980000      0.0533390000
C                  5.3573080000      3.8361370000      0.7815650000
C                  6.5670110000      3.1361370000      0.8089140000
O                  2.5443190000      2.8879310000     -2.4307430000
O                  3.6855860000      0.6822370000     -2.7719220000
H                 -0.8880010000      1.7462710000      0.9069810000
H                 -1.3667970000     -0.6680800000      0.5862040000
H                  3.3313820000      3.8784920000     -0.0228050000
H                  5.7264610000      0.5911680000     -1.3073960000
H                  7.6422840000      1.4117560000      0.0863490000
H                  5.2356760000      4.7332270000      1.3827180000
H                  7.3890090000      3.4909190000      1.4254270000
C                  2.8780090000     -1.4762470000     -1.0244090000
C                  2.6932090000     -2.8068630000     -1.7281740000
C                  1.7503940000     -2.9898540000     -2.7461460000
C                  3.5834770000     -3.8494210000     -1.4511860000
C                  1.7017240000     -4.1789470000     -3.4674570000
C                  2.5833030000     -5.2232830000     -3.1699990000
C                  3.5225930000     -5.0540000000     -2.1525610000
O                  4.0322400000     -1.2184640000     -0.6408720000
H                  1.0607830000     -2.1831140000     -2.9603100000
H                  4.3288690000     -3.6873160000     -0.6809490000
H                  0.9670530000     -4.2991320000     -4.2591580000
H                  2.5389500000     -6.1552160000     -3.7280460000
H                  4.2146040000     -5.8577960000     -1.9123210000
$end
$rem
MAX_SCF_CYCLES=200
BASIS  =  6-311++G(d,p)
GUI  =  2
JOB_TYPE  =  SP
METHOD  =  B3LYP
SOLVENT_METHOD = COSMO
$end
$solvent
dielectric 37.219
opticaldielectric 1.43
$end

--------------------------------------------------------------

             Standard Nuclear Orientation (Angstroms)
    I     Atom           X                Y                Z
 ----------------------------------------------------------------
    1      C       1.3004609084    -2.3780799413    -0.2072140232
    2      C       0.4409171875    -3.4472538274    -0.7148312588
    3      C      -0.8909008598    -3.3037633003    -0.9277255123
    4      C      -1.6125728574    -2.0428611017    -0.7575704073
    5      C      -0.8149308102    -0.9495233742    -0.2557097166
    6      C       0.5809070309    -1.1844999116     0.1129689793
    7      O       2.5461328769    -2.5863899979    -0.0670211188
    8      O      -2.8243466308    -1.9774294036    -1.1453367271
    9      S       1.3872110613    -0.0902209487     1.2422543765
   10      C       2.6275786753     0.8451772273     0.2860474235
   11      C       3.8328198972     0.2276438561    -0.0551466498
   12      C       2.3564431842     2.1586032555    -0.0944170000
   13      C       3.3203816295     2.8747859977    -0.8040676128
   14      C       4.7861969488     0.9526026481    -0.7691115170
   15      C       4.5385222048     2.2779794111    -1.1381141911
   16      O       2.1760602109    -0.8256898375     2.2567414974
   17      O       0.4375715042     0.9140258727     1.7719469416
   18      H       0.9434718573    -4.3956362507    -0.8993348951
   19      H      -1.4914976002    -4.1313043762    -1.3021830623
   20      H       3.9696922951    -0.8149468391     0.2118421828
   21      H       1.3907667485     2.5818898868     0.1508518828
   22      H       3.1154970829     3.8983920742    -1.1054899585
   23      H       5.7250118073     0.4791631421    -1.0437593579
   24      H       5.2859363233     2.8385403087    -1.6937965412
   25      C      -1.3159617248     0.4010803043    -0.4701599989
   26      C      -2.7736960389     0.7227119433    -0.2026924063
   27      C      -3.5101167900     0.0788726665     0.7982113283
   28      C      -3.3675041882     1.7916096033    -0.8817184158
   29      C      -4.8006772359     0.4939250417     1.1125133353
   30      C      -5.3933828026     1.5511717311     0.4144946931
   31      C      -4.6706981894     2.1955034940    -0.5898289854
   32      O      -0.6140852035     1.3460923941    -0.8703142263
   33      H      -3.0508030229    -0.7489558609     1.3235586138
   34      H      -2.7786524799     2.3025576960    -1.6349368522
   35      H      -5.3537102072    -0.0141416143     1.8980062962
   36      H      -6.4048599184     1.8692084228     0.6545977259
   37      H      -5.1196089439     3.0197820258    -1.1391253788
 ----------------------------------------------------------------

   12   -1505.8171651622      4.61e-06  Convergence criterion met
 Total energy in the final basis set =    -1505.8171651622
    5   -1506.0841573952      8.15e-06  Convergence criterion met
 Total energy in the final basis set =    -1506.0841573952

                    Orbital Energies (a.u.)
 --------------------------------------------------------------

 Alpha MOs
 -- Occupied --
-89.0315 -19.0984 -19.0981 -19.0800 -19.0482 -19.0419 -10.2349 -10.2116
-10.2071 -10.1949 -10.1773 -10.1769 -10.1755 -10.1754 -10.1749 -10.1707
-10.1703 -10.1685 -10.1674 -10.1666 -10.1666 -10.1661 -10.1569 -10.1550
-10.1504  -8.0949  -6.0582  -6.0566  -6.0554  -1.0894  -1.0090  -0.9838
 -0.9718  -0.9656  -0.8615  -0.8507  -0.8090  -0.7672  -0.7555  -0.7491
 -0.7414  -0.7389  -0.6997  -0.6512  -0.6285  -0.6087  -0.6023  -0.5979
 -0.5821  -0.5521  -0.5340  -0.5218  -0.4987  -0.4794  -0.4693  -0.4655
 -0.4597  -0.4571  -0.4454  -0.4407  -0.4361  -0.4333  -0.4243  -0.4230
 -0.4142  -0.4088  -0.3913  -0.3859  -0.3812  -0.3753  -0.3666  -0.3634
 -0.3583  -0.3525  -0.3480  -0.3438  -0.3395  -0.3332  -0.3232  -0.3105
 -0.2898  -0.2846  -0.2662  -0.2599  -0.2555  -0.2554  -0.2491  -0.2397
 -0.2326  -0.2205  -0.2086  -0.1510

          Ground-State Mulliken Net Atomic Charges

     Atom                 Charge (a.u.)
  ----------------------------------------
      1 C                     0.048496
      2 C                    -0.434736
      3 C                    -0.313190
      4 C                    -0.507962
      5 C                     0.648021
      6 C                    -0.102998
      7 O                    -0.527360
      8 O                    -0.522168
      9 S                     0.479615
     10 C                    -0.118352
     11 C                    -0.060711
     12 C                     0.323491
     13 C                    -0.542401
     14 C                    -0.564355
     15 C                    -0.268376
     16 O                    -0.222820
     17 O                    -0.287191
     18 H                     0.199883
     19 H                     0.200532
     20 H                     0.280665
     21 H                     0.263983
     22 H                     0.222645
     23 H                     0.219787
     24 H                     0.205788
     25 C                    -0.661297
     26 C                     1.021402
     27 C                    -0.947904
     28 C                     0.579564
     29 C                    -0.610898
     30 C                    -0.405517
     31 C                    -0.290267
     32 O                    -0.329603
     33 H                     0.197074
     34 H                     0.210124
     35 H                     0.215525
     36 H                     0.191347
     37 H                     0.210163
  ----------------------------------------
  Sum of atomic charges =    -2.000001

                    Cartesian Multipole Moments
 -----------------------------------------------------------------
    Charge (ESU x 10^10)
                -9.6064
    Dipole Moment (Debye)
         X      -0.5436      Y       9.9991      Z      -2.3823
       Tot      10.2933
    Quadrupole Moments (Debye-Ang)
        XX    -198.0292     XY       7.1268     YY    -186.2137
        XZ     -26.6876     YZ      -8.7745     ZZ    -181.7349

 Total job time:  168.09s(wall), 1286.83s(cpu)
        *  Thank you very much for using Q-Chem.  Have a nice day.  *
