 Q-Chem 5.4, Q-Chem, Inc., Pleasanton, CA (2021)
 Q-Chem 5.4.0 for Intel X86 EM64T Linux

User input:
--------------------------------------------------------------
$molecule
-2 1
C                  5.7132790000     -5.2406850000      1.1199080000
C                  6.6565850000     -5.0969330000      0.1290940000
C                  6.5215270000     -4.0737160000     -0.8359650000
C                  4.6299600000     -4.3409130000      1.2492710000
C                  4.4749470000     -3.3095320000      0.2404450000
C                  5.4708810000     -3.1867310000     -0.7509660000
C                  3.6965220000     -4.5055340000      2.3461490000
C                  2.6025930000     -3.5790790000      2.3289740000
C                  2.4672030000     -2.5839940000      1.3515380000
C                  3.3525330000     -2.3823440000      0.2507560000
O                  3.8318310000     -5.4042870000      3.2611360000
O                  3.1830050000     -1.4755440000     -0.6454130000
H                  5.7497570000     -6.0670340000      1.8219630000
H                  5.3836130000     -2.3452140000     -1.4304470000
Br                 7.9428060000     -6.5866850000     -0.1371070000
Br                 8.0255380000     -3.6033010000     -2.0448270000
C                  1.5942380000     -3.6963170000      3.4438800000
H                  1.6095810000     -1.9114480000      1.4006550000
H                  2.0579170000     -3.5151940000      4.4240620000
H                  1.1860970000     -4.7142750000      3.4993610000
H                  0.7697570000     -2.9857700000      3.3093740000
$end

$rem
BASIS  =  6-311++G(d,p)
GUI  =  2
JOB_TYPE  =  SP
METHOD  =  B3LYP
SCF_CONVERGENCE  = 8
SOLVENT_METHOD = sm12
$end

$smx
solvent dimethylformamide
charges CM5
$end

--------------------------------------------------------------

             Standard Nuclear Orientation (Angstroms)
    I     Atom           X                Y                Z
 ----------------------------------------------------------------
    1      C       5.7132790000    -5.2406850000     1.1199080000
    2      C       6.6565850000    -5.0969330000     0.1290940000
    3      C       6.5215270000    -4.0737160000    -0.8359650000
    4      C       4.6299600000    -4.3409130000     1.2492710000
    5      C       4.4749470000    -3.3095320000     0.2404450000
    6      C       5.4708810000    -3.1867310000    -0.7509660000
    7      C       3.6965220000    -4.5055340000     2.3461490000
    8      C       2.6025930000    -3.5790790000     2.3289740000
    9      C       2.4672030000    -2.5839940000     1.3515380000
   10      C       3.3525330000    -2.3823440000     0.2507560000
   11      O       3.8318310000    -5.4042870000     3.2611360000
   12      O       3.1830050000    -1.4755440000    -0.6454130000
   13      H       5.7497570000    -6.0670340000     1.8219630000
   14      H       5.3836130000    -2.3452140000    -1.4304470000
   15      Br      7.9428060000    -6.5866850000    -0.1371070000
   16      Br      8.0255380000    -3.6033010000    -2.0448270000
   17      C       1.5942380000    -3.6963170000     3.4438800000
   18      H       1.6095810000    -1.9114480000     1.4006550000
   19      H       2.0579170000    -3.5151940000     4.4240620000
   20      H       1.1860970000    -4.7142750000     3.4993610000
   21      H       0.7697570000    -2.9857700000     3.3093740000
 ----------------------------------------------------------------

   18   -5721.6540434940      9.47e-09  Convergence criterion met
 Total energy in the final basis set =    -5721.9250198401

                    Orbital Energies (a.u.)
 --------------------------------------------------------------

 Alpha MOs
 -- Occupied --
********-482.8260 -62.4783 -62.4782 -56.2988 -56.2987 -56.2950 -56.2949
-56.2949 -56.2948 -19.0278 -19.0267 -10.2273 -10.2261 -10.1893 -10.1844
-10.1794 -10.1785 -10.1688 -10.1605 -10.1602 -10.1512 -10.1424  -8.6864
 -8.6863  -6.5174  -6.5173  -6.5049  -6.5048  -6.5046  -6.5046  -2.6282
 -2.6281  -2.6248  -2.6247  -2.6245  -2.6244  -2.6146  -2.6146  -2.6145
 -2.6144  -0.9449  -0.9414  -0.8724  -0.8052  -0.7942  -0.7792  -0.7364
 -0.7285  -0.6858  -0.6454  -0.6087  -0.5814  -0.5441  -0.4914  -0.4741
 -0.4580  -0.4322  -0.4281  -0.4183  -0.4084  -0.3972  -0.3824  -0.3768
 -0.3646  -0.3632  -0.3516  -0.3361  -0.3291  -0.3254  -0.3063  -0.2971
 -0.2888  -0.2734  -0.2457  -0.2324  -0.2286  -0.2061  -0.2020  -0.1241

          Ground-State Mulliken Net Atomic Charges

     Atom                 Charge (a.u.)
  ----------------------------------------
      1 C                    -0.374630
      2 C                     2.836350
      3 C                     3.164827
      4 C                    -1.372342
      5 C                    -1.788907
      6 C                    -0.567415
      7 C                    -2.061555
      8 C                    -0.272651
      9 C                    -1.580175
     10 C                    -1.878478
     11 O                    -0.358706
     12 O                    -0.396407
     13 H                     0.066980
     14 H                     0.072464
     15 Br                    0.413678
     16 Br                    0.406032
     17 C                     1.135293
     18 H                    -0.071103
     19 H                     0.173713
     20 H                     0.185049
     21 H                     0.267983
  ----------------------------------------
  Sum of atomic charges =    -2.000000

                    Cartesian Multipole Moments
 -----------------------------------------------------------------
    Charge (ESU x 10^10)
                -9.6064
    Dipole Moment (Debye)
         X     -40.6987      Y      35.5825      Z      -8.7811
       Tot      54.7687
    Quadrupole Moments (Debye-Ang)
        XX    -330.8545     XY     167.1802     YY    -288.0984
        XZ     -23.1131     YZ      52.9818     ZZ    -169.1251

 Total job time:  494.77s(wall), 3201.48s(cpu)
        *  Thank you very much for using Q-Chem.  Have a nice day.  *
