 Gaussian 16, Revision A.03,
 Gaussian 16:  ES64L-G16RevA.03 25-Dec-2016

 --------------------------------------
 #P UB3LYP/6-311++G(d,p) nosym opt freq
 --------------------------------------

 -------
 Reduced
 -------
 Symbolic Z-matrix:
 Charge = -2 Multiplicity = 1

 SCF Done:  E(UB3LYP) =  -765.339623893     A.U. after   68 cycles
 SCF Done:  E(UB3LYP) =  -765.357935550     A.U. after   31 cycles
 SCF Done:  E(UB3LYP) =  -765.361187441     A.U. after   32 cycles
 SCF Done:  E(UB3LYP) =  -765.360171155     A.U. after   34 cycles
 SCF Done:  E(UB3LYP) =  -765.361992282     A.U. after   29 cycles
 SCF Done:  E(UB3LYP) =  -765.362367795     A.U. after   27 cycles
 SCF Done:  E(UB3LYP) =  -765.362579277     A.U. after   27 cycles
 SCF Done:  E(UB3LYP) =  -765.362621165     A.U. after   30 cycles
 SCF Done:  E(UB3LYP) =  -765.362713847     A.U. after   29 cycles
 SCF Done:  E(UB3LYP) =  -765.362745515     A.U. after   24 cycles
 SCF Done:  E(UB3LYP) =  -765.362798953     A.U. after   27 cycles
 SCF Done:  E(UB3LYP) =  -765.362820273     A.U. after   26 cycles
 SCF Done:  E(UB3LYP) =  -765.362878588     A.U. after   25 cycles
 SCF Done:  E(UB3LYP) =  -765.362975213     A.U. after   26 cycles
 SCF Done:  E(UB3LYP) =  -765.362983641     A.U. after   25 cycles
 SCF Done:  E(UB3LYP) =  -765.362985488     A.U. after   26 cycles
 SCF Done:  E(UB3LYP) =  -765.362985332     A.U. after   23 cycles
 SCF Done:  E(UB3LYP) =  -765.362985762     A.U. after   23 cycles
 Optimization completed.
    -- Stationary point found.
 Normal termination of Gaussian 16 at Wed Dec 20 04:34:51 2023.

 ----------------------------------------------------------------------
 #P Geom=AllCheck Guess=TCheck SCRF=Check GenChk UB3LYP/6-311++G(d,p) F
 req
 ----------------------------------------------------------------------

 Structure from the checkpoint file:  "079-an.chk"
 -------
 Reduced
 -------
 Charge = -2 Multiplicity = 1

                          Input orientation:
 ---------------------------------------------------------------------
 Center     Atomic      Atomic             Coordinates (Angstroms)
 Number     Number       Type             X           Y           Z
 ---------------------------------------------------------------------
      1          6           0        1.329244    1.045664   -2.983166
      2          6           0        0.021225    1.407855   -3.470872
      3          6           0       -1.111225    0.709881   -3.127428
      4          6           0       -1.112677   -0.457515   -2.276033
      5          6           0        0.177690   -0.880463   -1.825475
      6          8           0        2.343396    1.794544   -3.187807
      7          8           0       -2.220052   -1.066999   -1.994594
      8          1           0       -0.032096    2.299269   -4.094598
      9          6           0        1.372727   -0.181570   -2.192438
     10          6           0        2.678818   -0.618906   -1.702827
     11          6           0        3.893996   -0.553922   -2.612124
     12          6           0        5.171348   -0.568145   -2.032487
     13          6           0        3.806594   -0.647600   -4.008752
     14          6           0        6.321654   -0.659383   -2.816337
     15          6           0        6.220510   -0.758279   -4.204169
     16          6           0        4.950408   -0.754048   -4.793851
     17          8           0        2.873456   -1.127530   -0.579954
     18          6           0        0.212248   -2.164182   -1.029672
     19          1           0        5.235489   -0.518989   -0.951417
     20          1           0        2.824464   -0.633037   -4.466269
     21          1           0        7.302600   -0.665947   -2.344221
     22          1           0        7.115262   -0.850931   -4.816734
     23          1           0        4.856050   -0.829284   -5.874327
     24          1           0       -2.086545    1.026218   -3.498713
     25          1           0        0.312243   -1.984985    0.049374
     26          1           0        1.058641   -2.800807   -1.308588
     27          1           0       -0.731056   -2.691709   -1.197401
 ---------------------------------------------------------------------

 SCF Done:  E(UB3LYP) =  -765.362985762     A.U. after    2 cycles

 Alpha  occ. eigenvalues --  -18.84250 -18.79376 -18.77501  -9.99531  -9.97036
 Alpha  occ. eigenvalues --   -9.96919  -9.96594  -9.95730  -9.95666  -9.95592
 Alpha  occ. eigenvalues --   -9.95333  -9.93419  -9.90529  -9.90120  -9.90016
 Alpha  occ. eigenvalues --   -9.89995  -9.89810  -0.76790  -0.71217  -0.68716
 Alpha  occ. eigenvalues --   -0.64223  -0.55306  -0.53953  -0.53439  -0.49925
 Alpha  occ. eigenvalues --   -0.45491  -0.40276  -0.39666  -0.39228  -0.35356
 Alpha  occ. eigenvalues --   -0.31696  -0.29261  -0.27457  -0.24121  -0.23433
 Alpha  occ. eigenvalues --   -0.21508  -0.21181  -0.20414  -0.19241  -0.17809
 Alpha  occ. eigenvalues --   -0.16269  -0.15618  -0.14604  -0.14170  -0.13209
 Alpha  occ. eigenvalues --   -0.12706  -0.12082  -0.11823  -0.10687  -0.08876
 Alpha  occ. eigenvalues --   -0.08225  -0.07236  -0.04448  -0.03636  -0.00077
 Alpha  occ. eigenvalues --    0.00876   0.02208   0.03874   0.04911   0.11994
 Alpha virt. eigenvalues --    0.13326   0.15445   0.17207   0.17431   0.18416
 Alpha virt. eigenvalues --    0.19143   0.19824   0.19984   0.20444   0.21845
 Alpha virt. eigenvalues --    0.22442   0.22735   0.22950   0.23947   0.25349

  Beta  occ. eigenvalues --  -18.84250 -18.79376 -18.77501  -9.99531  -9.97036
  Beta  occ. eigenvalues --   -9.96919  -9.96594  -9.95730  -9.95666  -9.95592
  Beta  occ. eigenvalues --   -9.95333  -9.93419  -9.90529  -9.90120  -9.90016
  Beta  occ. eigenvalues --   -9.89995  -9.89810  -0.76790  -0.71217  -0.68716
  Beta  occ. eigenvalues --   -0.64223  -0.55306  -0.53953  -0.53439  -0.49925
  Beta  occ. eigenvalues --   -0.45491  -0.40276  -0.39666  -0.39228  -0.35356
  Beta  occ. eigenvalues --   -0.31696  -0.29261  -0.27457  -0.24121  -0.23433
  Beta  occ. eigenvalues --   -0.21508  -0.21181  -0.20414  -0.19241  -0.17809
  Beta  occ. eigenvalues --   -0.16269  -0.15618  -0.14604  -0.14170  -0.13209
  Beta  occ. eigenvalues --   -0.12706  -0.12082  -0.11823  -0.10687  -0.08876
  Beta  occ. eigenvalues --   -0.08225  -0.07236  -0.04448  -0.03636  -0.00077
  Beta  occ. eigenvalues --    0.00876   0.02208   0.03874   0.04911   0.11994
  Beta virt. eigenvalues --    0.13326   0.15445   0.17207   0.17431   0.18416
  Beta virt. eigenvalues --    0.19143   0.19824   0.19984   0.20444   0.21845
  Beta virt. eigenvalues --    0.22442   0.22735   0.22950   0.23947   0.25349

 Mulliken charges and spin densities:
               1          2
     1  C   -0.952697   0.000000
     2  C    0.039930   0.000000
     3  C    0.227565  -0.000000
     4  C   -1.005862   0.000000
     5  C    1.043289  -0.000000
     6  O   -0.415318  -0.000000
     7  O   -0.542699  -0.000000
     8  H    0.094949  -0.000000
     9  C    1.139209  -0.000000
    10  C   -1.419713   0.000000
    11  C    1.373850  -0.000000
    12  C    0.345836  -0.000000
    13  C   -1.038719   0.000000
    14  C   -0.085328  -0.000000
    15  C    0.288918  -0.000000
    16  C   -0.523848   0.000000
    17  O   -0.288739  -0.000000
    18  C   -0.617926  -0.000000
    19  H    0.192607  -0.000000
    20  H    0.177749  -0.000000
    21  H   -0.137138   0.000000
    22  H   -0.473935   0.000000
    23  H    0.097215  -0.000000
    24  H    0.087063  -0.000000
    25  H    0.123061   0.000000
    26  H    0.121504   0.000000
    27  H    0.149176  -0.000000
 Sum of Mulliken charges =  -2.00000  -0.00000

 Dipole moment (field-independent basis, Debye):
    X=            -14.7480    Y=              2.5212    Z=             23.1814  Tot=             27.5906
 Quadrupole moment (field-independent basis, Debye-Ang):
   XX=           -240.8088   YY=           -133.9029   ZZ=           -182.6950
   XY=             -0.9170   XZ=             54.0416   YZ=              3.2847

  Exact polarizability:2315.681-208.609 218.385-554.637  58.824 748.223
 Approx polarizability:6107.400-707.562 407.156******** 104.983 908.711

                      1                      2                      3
                      A                      A                      A
 Frequencies --     34.4112                51.0953                62.8408
 Red. masses --      7.0361                 5.1305                 3.9326
 Frc consts  --      0.0049                 0.0079                 0.0091
 IR Inten    --      3.6074                 0.8219                 2.4772

                      4                      5                      6
                      A                      A                      A
 Frequencies --    101.4112               117.9639               124.4037
 Red. masses --      1.2005                 5.6180                 3.6469
 Frc consts  --      0.0073                 0.0461                 0.0333
 IR Inten    --      2.1171                 0.7266                 8.4213

                      7                      8                      9
                      A                      A                      A
 Frequencies --    165.7225               197.2721               247.6238
 Red. masses --      6.0347                 6.4989                 4.8221
 Frc consts  --      0.0976                 0.1490                 0.1742
 IR Inten    --     33.0142                28.0205                29.0473

                     10                     11                     12
                      A                      A                      A
 Frequencies --    253.1253               329.7281               347.4871
 Red. masses --      5.2601                 6.3313                 9.1800
 Frc consts  --      0.1986                 0.4056                 0.6531
 IR Inten    --      5.7347                 7.1325                 2.5459

                     13                     14                     15
                      A                      A                      A
 Frequencies --    350.0310               396.9093               415.6608
 Red. masses --      3.3502                 6.8550                 3.3777
 Frc consts  --      0.2418                 0.6363                 0.3438
 IR Inten    --      9.2123                 2.8288                54.7619

                     16                     17                     18
                      A                      A                      A
 Frequencies --    423.1364               454.2040               465.9890
 Red. masses --      3.8441                 9.4255                 6.2942
 Frc consts  --      0.4055                 1.1457                 0.8053
 IR Inten    --     13.7362               912.0639               279.9711

                     19                     20                     21
                      A                      A                      A
 Frequencies --    519.5700               584.5198               598.4833
 Red. masses --      4.3656                 4.0055                 3.0659
 Frc consts  --      0.6943                 0.8063                 0.6470
 IR Inten    --     43.0361               103.3961                16.9571

                     22                     23                     24
                      A                      A                      A
 Frequencies --    628.0757               631.4514               672.0521
 Red. masses --      3.9360                 6.3491                 5.5683
 Frc consts  --      0.9148                 1.4916                 1.4818
 IR Inten    --     61.2262                 3.6252                54.4165

                     25                     26                     27
                      A                      A                      A
 Frequencies --    697.8810               710.3012               750.1519
 Red. masses --      2.7860                 2.2220                 5.6225
 Frc consts  --      0.7995                 0.6605                 1.8641
 IR Inten    --      6.8464                90.6661                78.9486

                     28                     29                     30
                      A                      A                      A
 Frequencies --    767.6403               795.6621               818.8552
 Red. masses --      3.5407                 3.1927                 2.5334
 Frc consts  --      1.2293                 1.1909                 1.0008
 IR Inten    --    202.4236                14.0397                29.3789

                     31                     32                     33
                      A                      A                      A
 Frequencies --    831.8198               834.8232               913.7411
 Red. masses --      3.0858                 1.4531                 1.4621
 Frc consts  --      1.2580                 0.5967                 0.7193
 IR Inten    --     22.3627                12.1959                73.4053

                     34                     35                     36
                      A                      A                      A
 Frequencies --    919.1947               943.1321               961.8128
 Red. masses --      1.3148                 2.2278                 1.2807
 Frc consts  --      0.6545                 1.1676                 0.6981
 IR Inten    --      4.4874                15.0107                14.7950

                     37                     38                     39
                      A                      A                      A
 Frequencies --    973.0698              1007.7419              1017.2795
 Red. masses --      1.3428                 6.1469                 3.9130
 Frc consts  --      0.7491                 3.6779                 2.3858
 IR Inten    --     12.0468                27.1765                58.2778

                     40                     41                     42
                      A                      A                      A
 Frequencies --   1039.2299              1041.5043              1075.9222
 Red. masses --      2.2898                 1.4563                 2.1075
 Frc consts  --      1.4571                 0.9307                 1.4374
 IR Inten    --    155.5352                14.0063               429.4121

                     43                     44                     45
                      A                      A                      A
 Frequencies --   1088.9309              1127.8863              1159.7145
 Red. masses --      1.7060                 1.7331                 2.2725
 Frc consts  --      1.1919                 1.2990                 1.8008
 IR Inten    --    235.1523               239.1149               290.0119

                     46                     47                     48
                      A                      A                      A
 Frequencies --   1160.6228              1176.4715              1197.2796
 Red. masses --      1.0940                 1.3192                 2.9055
 Frc consts  --      0.8683                 1.0758                 2.4539
 IR Inten    --     61.6234                21.1063               167.7946

                     49                     50                     51
                      A                      A                      A
 Frequencies --   1245.7950              1322.1057              1330.5305
 Red. masses --      5.7682                 2.0054                 2.1433
 Frc consts  --      5.2745                 2.0653                 2.2356
 IR Inten    --     38.4833                79.0350               111.5445

                     52                     53                     54
                      A                      A                      A
 Frequencies --   1342.5273              1372.6693              1378.3978
 Red. masses --      3.2105                 2.8298                 2.0816
 Frc consts  --      3.4093                 3.1415                 2.3302
 IR Inten    --    160.2803               275.9474               515.3910

                     55                     56                     57
                      A                      A                      A
 Frequencies --   1407.0581              1429.1365              1457.9103
 Red. masses --      4.8336                 5.7045                 1.6642
 Frc consts  --      5.6382                 6.8647                 2.0841
 IR Inten    --   4721.7032               358.2974               363.7118

                     58                     59                     60
                      A                      A                      A
 Frequencies --   1462.8753              1491.0773              1494.7463
 Red. masses --      1.4521                 1.2021                 3.6954
 Frc consts  --      1.8308                 1.5747                 4.8647
 IR Inten    --    104.8518               226.8022               241.1089

                     61                     62                     63
                      A                      A                      A
 Frequencies --   1500.1373              1548.5166              1577.3099
 Red. masses --      2.0323                 6.0322                 6.0047
 Frc consts  --      2.6947                 8.5223                 8.8019
 IR Inten    --    317.7742              1637.4364              5731.7096

                     64                     65                     66
                      A                      A                      A
 Frequencies --   1605.3647              1614.3038              2977.5839
 Red. masses --      6.1903                 5.6891                 1.0480
 Frc consts  --      9.3996                 8.7350                 5.4746
 IR Inten    --    148.8549                67.9762               662.9933

                     67                     68                     69
                      A                      A                      A
 Frequencies --   3020.1935              3069.9415              3083.4077
 Red. masses --      1.0832                 1.1010                 1.0836
 Frc consts  --      5.8215                 6.1135                 6.0696
 IR Inten    --     74.5731                14.8255               135.5712

                     70                     71                     72
                      A                      A                      A
 Frequencies --   3100.3657              3113.5632              3118.9920
 Red. masses --      1.0836                 1.0932                 1.0894
 Frc consts  --      6.1370                 6.2439                 6.2439
 IR Inten    --    326.4860               676.5648               255.0032

                     73                     74                     75
                      A                      A                      A
 Frequencies --   3135.5176              3176.0818              3182.2717
 Red. masses --      1.0937                 1.0903                 1.0918
 Frc consts  --      6.3356                 6.4802                 6.5142
 IR Inten    --    215.9535                17.3663                17.3555

 - Thermochemistry -
 -------------------
 Temperature   298.150 Kelvin.  Pressure   1.00000 Atm.
 Atom     1 has atomic number  6 and mass  12.00000

 Molecular mass:   226.06299 amu.
 Principal axes and moments of inertia in atomic units:
                           1         2         3
     Eigenvalues --  1753.866736008.106166909.11340
           X            0.98412   0.10159   0.14558
           Y           -0.03620  -0.68798   0.72482
           Z           -0.17379   0.71858   0.67338
 This molecule is an asymmetric top.
 Rotational symmetry number  1.
 Warning -- assumption of classical behavior for rotation
           may cause significant error
 Rotational temperatures (Kelvin)      0.04938     0.01442     0.01254
 Rotational constants (GHZ):           1.02901     0.30038     0.26121
 Zero-point vibrational energy     518833.7 (Joules/Mol)
                                  124.00423 (Kcal/Mol)
 Warning -- explicit consideration of  21 degrees of freedom as
           vibrations may cause significant error
 Vibrational temperatures:     49.51    73.51    90.41   145.91   169.72
          (Kelvin)            178.99   238.44   283.83   356.28   364.19
                              474.41   499.96   503.62   571.06   598.04
                              608.80   653.50   670.45   747.55   840.99
                              861.08   903.66   908.52   966.93  1004.10
                             1021.97  1079.30  1104.46  1144.78  1178.15
                             1196.80  1201.12  1314.67  1322.52  1356.96
                             1383.83  1400.03  1449.92  1463.64  1495.22
                             1498.49  1548.01  1566.73  1622.78  1668.57
                             1669.88  1692.68  1722.62  1792.42  1902.22
                             1914.34  1931.60  1974.96  1983.21  2024.44
                             2056.21  2097.61  2104.75  2145.33  2150.61
                             2158.36  2227.97  2269.40  2309.76  2322.62
                             4284.08  4345.38  4416.96  4436.34  4460.73
                             4479.72  4487.53  4511.31  4569.67  4578.58

 Zero-point correction=                           0.197613 (Hartree/Particle)
 Thermal correction to Energy=                    0.212021
 Thermal correction to Enthalpy=                  0.212966
 Thermal correction to Gibbs Free Energy=         0.155375
 Sum of electronic and zero-point Energies=           -765.165372
 Sum of electronic and thermal Energies=              -765.150964
 Sum of electronic and thermal Enthalpies=            -765.150020
 Sum of electronic and thermal Free Energies=         -765.207611

                     E (Thermal)             CV                S
                      KCal/Mol        Cal/Mol-Kelvin    Cal/Mol-Kelvin
 Total                  133.045             55.420            121.210
 Electronic               0.000              0.000              0.000
 Translational            0.889              2.981             42.149
 Rotational               0.889              2.981             32.654
 Vibrational            131.268             49.459             46.407
 Vibration     1          0.594              1.983              5.557
 Vibration     2          0.595              1.977              4.775
 Vibration     3          0.597              1.972              4.366
 Vibration     4          0.604              1.948              3.427
 Vibration     5          0.608              1.934              3.133
 Vibration     6          0.610              1.929              3.031
 Vibration     7          0.624              1.885              2.483
 Vibration     8          0.637              1.844              2.158
 Vibration     9          0.661              1.767              1.747
 Vibration    10          0.664              1.758              1.709
 Vibration    11          0.713              1.616              1.261
 Vibration    12          0.725              1.580              1.178
 Vibration    13          0.727              1.575              1.166
 Vibration    14          0.763              1.477              0.974
 Vibration    15          0.779              1.436              0.907
 Vibration    16          0.785              1.420              0.881
 Vibration    17          0.813              1.352              0.783
 Vibration    18          0.823              1.326              0.749
 Vibration    19          0.875              1.207              0.611
 Vibration    20          0.941              1.065              0.477
 Vibration    21          0.956              1.035              0.452

                           ! Non-Optimized Parameters !
 Normal termination of Gaussian 16 at Wed Dec 20 05:26:59 2023.
