 Q-Chem 5.4, Q-Chem, Inc., Pleasanton, CA (2021)
 Q-Chem 5.4.0 for Intel X86 EM64T Linux

User input:
--------------------------------------------------------------
$molecule
-2 1
C                 -0.9438970000      3.9878550000     -0.1320550000
C                 -2.1938430000      3.4058100000     -0.2194740000
C                 -2.3142080000      1.9883260000     -0.2226230000
C                  0.2464100000      3.2187530000     -0.0430600000
C                  0.1227980000      1.7698780000     -0.0559140000
C                 -1.1715530000      1.2100200000     -0.1449490000
C                  1.5249630000      3.8705770000      0.0250310000
C                  2.6407120000      2.9925410000      0.1057540000
C                  2.5116850000      1.5869230000      0.1347030000
C                  1.2793500000      0.8902060000      0.0190860000
O                  1.6982930000      5.1691360000     -0.0041330000
O                  1.1991660000     -0.3974860000     -0.0122820000
N                  3.9151310000      3.6411500000      0.1875110000
S                  3.9662990000      0.5178770000      0.2880870000
H                 -0.8235440000      5.0674310000     -0.1283210000
H                 -3.0851600000      4.0295760000     -0.2837840000
H                 -3.2958620000      1.5210620000     -0.2897280000
H                 -1.2266220000      0.1249820000     -0.1507750000
H                  3.6812960000      4.6350870000      0.0857170000
H                  4.5192590000      3.3611730000     -0.5842590000
H                  4.7744780000      1.4962850000      0.7590480000
$end

$rem
BASIS  =  6-311++G(d,p)
GUI  =  2
JOB_TYPE  =  SP
METHOD  =  B3LYP
SCF_CONVERGENCE  = 8
SOLVENT_METHOD = sm12
$end

$smx
solvent dimethylformamide
charges CM5
$end

--------------------------------------------------------------

             Standard Nuclear Orientation (Angstroms)
    I     Atom           X                Y                Z
 ----------------------------------------------------------------
    1      C      -0.9438970000     3.9878550000    -0.1320550000
    2      C      -2.1938430000     3.4058100000    -0.2194740000
    3      C      -2.3142080000     1.9883260000    -0.2226230000
    4      C       0.2464100000     3.2187530000    -0.0430600000
    5      C       0.1227980000     1.7698780000    -0.0559140000
    6      C      -1.1715530000     1.2100200000    -0.1449490000
    7      C       1.5249630000     3.8705770000     0.0250310000
    8      C       2.6407120000     2.9925410000     0.1057540000
    9      C       2.5116850000     1.5869230000     0.1347030000
   10      C       1.2793500000     0.8902060000     0.0190860000
   11      O       1.6982930000     5.1691360000    -0.0041330000
   12      O       1.1991660000    -0.3974860000    -0.0122820000
   13      N       3.9151310000     3.6411500000     0.1875110000
   14      S       3.9662990000     0.5178770000     0.2880870000
   15      H      -0.8235440000     5.0674310000    -0.1283210000
   16      H      -3.0851600000     4.0295760000    -0.2837840000
   17      H      -3.2958620000     1.5210620000    -0.2897280000
   18      H      -1.2266220000     0.1249820000    -0.1507750000
   19      H       3.6812960000     4.6350870000     0.0857170000
   20      H       4.5192590000     3.3611730000    -0.5842590000
   21      H       4.7744780000     1.4962850000     0.7590480000
 ----------------------------------------------------------------

   18    -988.8347885733      4.00e-09  Convergence criterion met
 Total energy in the final basis set =     -989.1176838980

                    Orbital Energies (a.u.)
 --------------------------------------------------------------

 Alpha MOs
 -- Occupied --
-88.8432 -19.0288 -19.0283 -14.3051 -10.1899 -10.1813 -10.1792 -10.1754
-10.1733 -10.1709 -10.1707 -10.1701 -10.1567 -10.1560  -7.9279  -5.8914
 -5.8880  -5.8826  -0.9464  -0.9415  -0.8860  -0.8443  -0.7872  -0.7494
 -0.7443  -0.6903  -0.6524  -0.6002  -0.5886  -0.5465  -0.5199  -0.4963
 -0.4681  -0.4521  -0.4316  -0.4260  -0.4165  -0.3928  -0.3905  -0.3733
 -0.3666  -0.3552  -0.3383  -0.3377  -0.3325  -0.3167  -0.2894  -0.2655
 -0.2471  -0.2358  -0.2117  -0.2050  -0.1953  -0.1234

          Ground-State Mulliken Net Atomic Charges

     Atom                 Charge (a.u.)
  ----------------------------------------
      1 C                    -0.241432
      2 C                     1.506698
      3 C                     1.224982
      4 C                    -1.875257
      5 C                    -1.540535
      6 C                    -0.197223
      7 C                    -2.116282
      8 C                    -0.150402
      9 C                     2.732618
     10 C                    -2.547359
     11 O                    -0.406075
     12 O                    -0.309866
     13 N                    -0.099130
     14 S                     0.331720
     15 H                     0.098681
     16 H                     0.401020
     17 H                     0.387441
     18 H                     0.087321
     19 H                     0.291476
     20 H                     0.301722
     21 H                     0.119883
  ----------------------------------------
  Sum of atomic charges =    -2.000000

                    Cartesian Multipole Moments
 -----------------------------------------------------------------
    Charge (ESU x 10^10)
                -9.6064
    Dipole Moment (Debye)
         X     -11.4331      Y     -21.3941      Z      -0.8689
       Tot      24.2730
    Quadrupole Moments (Debye-Ang)
        XX    -138.9219     XY     -21.6063     YY    -202.6099
        XZ      -5.4703     YZ      -2.6076     ZZ    -103.6391

 Total job time:  454.30s(wall), 2733.29s(cpu)
        *  Thank you very much for using Q-Chem.  Have a nice day.  *
