 Gaussian 16, Revision A.03,
 Gaussian 16:  ES64L-G16RevA.03 25-Dec-2016

 ----------------------------------------------------------------------
 #P UB3LYP/6-311++G(d,p) nosym opt freq SCRF=(PCM,Solvent=n,n-DiMethylF
 ormamide)
 ----------------------------------------------------------------------

 -------
 Radical
 -------
 Symbolic Z-matrix:
 Charge = -2 Multiplicity = 2

 SCF Done:  E(UB3LYP) =  -1463.06083283     A.U. after   20 cycles
 SCF Done:  E(UB3LYP) =  -1463.06083089     A.U. after   16 cycles
 SCF Done:  E(UB3LYP) =  -1463.06092760     A.U. after   17 cycles
 SCF Done:  E(UB3LYP) =  -1463.06175142     A.U. after   17 cycles
 SCF Done:  E(UB3LYP) =  -1463.06183921     A.U. after   14 cycles
 SCF Done:  E(UB3LYP) =  -1463.06184591     A.U. after   13 cycles
 SCF Done:  E(UB3LYP) =  -1463.06184677     A.U. after   12 cycles
 SCF Done:  E(UB3LYP) =  -1463.06184675     A.U. after   12 cycles
 SCF Done:  E(UB3LYP) =  -1463.06184706     A.U. after   11 cycles
 Optimization completed.
    -- Stationary point found.
 Normal termination of Gaussian 16 at Sun Feb 11 00:51:00 2024.

 ----------------------------------------------------------------------
 #P Geom=AllCheck Guess=TCheck SCRF=Check GenChk UB3LYP/6-311++G(d,p) F
 req
 ----------------------------------------------------------------------

 Structure from the checkpoint file:  "190-rad.chk"
 -------
 Radical
 -------
 Charge = -2 Multiplicity = 2

                          Input orientation:
 ---------------------------------------------------------------------
 Center     Atomic      Atomic             Coordinates (Angstroms)
 Number     Number       Type             X           Y           Z
 ---------------------------------------------------------------------
      1          8           0        1.506982   -2.890400   -0.555421
      2          6           0        1.480972   -1.553455   -0.278455
      3          6           0        2.720469   -0.925804   -0.125759
      4          8           0        3.812934   -1.733776   -0.267068
      5          6           0        2.788516    0.456180    0.139041
      6          6           0        1.621835    1.184477    0.255238
      7          6           0        0.363044    0.577113    0.116928
      8          6           0       -0.815414    1.432647    0.257930
      9          8           0       -0.710241    2.667956    0.500019
     10          6           0       -2.114238    0.791805    0.105676
     11          6           0       -3.294948    1.561648    0.221979
     12          6           0       -4.541306    0.985195    0.085777
     13          6           0       -4.648689   -0.398362   -0.175225
     14          6           0       -3.509003   -1.168224   -0.294693
     15          6           0       -2.219793   -0.601816   -0.160220
     16          6           0       -1.045833   -1.470269   -0.298131
     17          8           0       -1.194951   -2.701902   -0.529041
     18          6           0        0.263610   -0.832343   -0.154623
     19         16           0        4.380500    1.264081    0.415457
     20          8           0        5.370317    0.353717   -0.272912
     21          8           0        4.309403    2.606152   -0.210787
     22          8           0        4.598543    1.308428    1.885665
     23          1           0        2.442750   -3.137940   -0.620051
     24          1           0        4.611892   -1.150015   -0.316922
     25          1           0        1.655275    2.247420    0.453495
     26          1           0       -3.192307    2.621408    0.421588
     27          1           0       -5.436388    1.590832    0.178447
     28          1           0       -5.627089   -0.854494   -0.282197
     29          1           0       -3.576840   -2.230257   -0.495740
 ---------------------------------------------------------------------

 SCF Done:  E(UB3LYP) =  -1463.06184706     A.U. after    2 cycles

 Alpha  occ. eigenvalues --  -89.05227 -19.14886 -19.14850 -19.09953 -19.09514
 Alpha  occ. eigenvalues --  -19.09348 -19.07183 -19.06914 -10.23917 -10.23668
 Alpha  occ. eigenvalues --  -10.22363 -10.22261 -10.19827 -10.18080 -10.17426
 Alpha  occ. eigenvalues --  -10.17351 -10.17092 -10.17082 -10.17025 -10.16997
 Alpha  occ. eigenvalues --  -10.16837 -10.16736  -8.11113  -6.07404  -6.07364
 Alpha  occ. eigenvalues --   -6.07279  -1.11473  -1.07858  -1.04573  -0.99688
 Alpha  occ. eigenvalues --   -0.99358  -0.97798  -0.97512  -0.86166  -0.85085
 Alpha  occ. eigenvalues --   -0.78852  -0.75368  -0.74763  -0.73951  -0.68020
 Alpha  occ. eigenvalues --   -0.65145  -0.63595  -0.59952  -0.59575  -0.57468
 Alpha  occ. eigenvalues --   -0.55883  -0.53630  -0.51078  -0.49832  -0.48935
 Alpha  occ. eigenvalues --   -0.47607  -0.46248  -0.45956  -0.45633  -0.44181
 Alpha  occ. eigenvalues --   -0.43053  -0.42533  -0.41967  -0.41714  -0.41058
 Alpha  occ. eigenvalues --   -0.40422  -0.39113  -0.38135  -0.37901  -0.36796
 Alpha  occ. eigenvalues --   -0.36444  -0.35230  -0.35199  -0.34080  -0.33816
 Alpha  occ. eigenvalues --   -0.33435  -0.32813  -0.30422  -0.29951  -0.29709
 Alpha  occ. eigenvalues --   -0.26216  -0.26091  -0.25438  -0.24391  -0.24142
 Alpha  occ. eigenvalues --   -0.23119  -0.22337  -0.13702
 Alpha virt. eigenvalues --   -0.05253  -0.02226  -0.00176   0.00111   0.00423
 Alpha virt. eigenvalues --    0.01353   0.02310   0.02472   0.04244   0.04369
 Alpha virt. eigenvalues --    0.04441   0.04781   0.04959   0.05690   0.06029

  Beta  occ. eigenvalues --  -89.05227 -19.14867 -19.14810 -19.09953 -19.09511
  Beta  occ. eigenvalues --  -19.09341 -19.06680 -19.06325 -10.23813 -10.23642
  Beta  occ. eigenvalues --  -10.22196 -10.22086 -10.19807 -10.18014 -10.17411
  Beta  occ. eigenvalues --  -10.17306 -10.17035 -10.17009 -10.16980 -10.16922
  Beta  occ. eigenvalues --  -10.16832 -10.16737  -8.11114  -6.07405  -6.07364
  Beta  occ. eigenvalues --   -6.07280  -1.11466  -1.07778  -1.04505  -0.98787
  Beta  occ. eigenvalues --   -0.98341  -0.97791  -0.97501  -0.85928  -0.84958
  Beta  occ. eigenvalues --   -0.78498  -0.75143  -0.74577  -0.73760  -0.67550
  Beta  occ. eigenvalues --   -0.64848  -0.63310  -0.59884  -0.59504  -0.57277
  Beta  occ. eigenvalues --   -0.55685  -0.53508  -0.50988  -0.49680  -0.48743
  Beta  occ. eigenvalues --   -0.47532  -0.46113  -0.45853  -0.45581  -0.43803
  Beta  occ. eigenvalues --   -0.42855  -0.42388  -0.41893  -0.41564  -0.40042
  Beta  occ. eigenvalues --   -0.39797  -0.38904  -0.37914  -0.37173  -0.36486
  Beta  occ. eigenvalues --   -0.35505  -0.35078  -0.34324  -0.33927  -0.33805
  Beta  occ. eigenvalues --   -0.33297  -0.32191  -0.30400  -0.29678  -0.29475
  Beta  occ. eigenvalues --   -0.26094  -0.24854  -0.24323  -0.23903  -0.23665
  Beta  occ. eigenvalues --   -0.22596  -0.21475
  Beta virt. eigenvalues --   -0.07984  -0.04280  -0.01273  -0.00155   0.00432
  Beta virt. eigenvalues --    0.00481   0.01364   0.02318   0.02482   0.04257
  Beta virt. eigenvalues --    0.04436   0.04461   0.04827   0.05473   0.05947

 Mulliken charges and spin densities:
               1          2
     1  O   -0.265249   0.004281
     2  C   -0.357647   0.038451
     3  C   -0.598168   0.075464
     4  O   -0.406797   0.011031
     5  C   -0.275485   0.015886
     6  C   -0.218828   0.023266
     7  C    0.665462   0.022279
     8  C   -0.600571   0.096480
     9  O   -0.455897   0.187579
    10  C    0.339175   0.034497
    11  C    0.004472   0.024716
    12  C   -0.498233   0.037150
    13  C   -0.551627   0.037622
    14  C    0.064550   0.028401
    15  C    0.070868   0.036688
    16  C   -0.394129   0.082287
    17  O   -0.463882   0.221196
    18  C    0.632474   0.030387
    19  S    0.882715   0.002255
    20  O   -0.466172  -0.000244
    21  O   -0.353979   0.001261
    22  O   -0.303793   0.000827
    23  H    0.310617  -0.000409
    24  H    0.378110  -0.000282
    25  H    0.178568  -0.002356
    26  H    0.160212  -0.001202
    27  H    0.180885  -0.002983
    28  H    0.179453  -0.003102
    29  H    0.162893  -0.001425
 Sum of Mulliken charges =  -2.00000   1.00000

 Dipole moment (field-independent basis, Debye):
    X=            -17.9140    Y=             -5.5327    Z=             -2.3584  Tot=             18.8966
 Quadrupole moment (field-independent basis, Debye-Ang):
   XX=           -249.5632   YY=           -193.9495   ZZ=           -151.2957
   XY=            -37.0104   XZ=            -13.1128   YZ=             -9.4311

  Exact polarizability: 562.113 -10.275 398.318   8.002  43.713 178.250
 Approx polarizability: 556.338 -18.000 480.609   5.144  53.003 208.701

                      1                      2                      3
                      A                      A                      A
 Frequencies --     30.9928                35.5153                66.7740
 Red. masses --     13.5466                 8.2397                 9.3740
 Frc consts  --      0.0077                 0.0061                 0.0246
 IR Inten    --      1.6892                 1.8194                 7.6141

                      4                      5                      6
                      A                      A                      A
 Frequencies --    105.2014               120.9585               128.7360
 Red. masses --      7.3256                10.2891                 5.6264
 Frc consts  --      0.0478                 0.0887                 0.0549
 IR Inten    --      3.6356                 1.9344                 0.0495

                      7                      8                      9
                      A                      A                      A
 Frequencies --    133.0846               182.8572               209.4193
 Red. masses --     10.4245                 7.3202                 8.4948
 Frc consts  --      0.1088                 0.1442                 0.2195
 IR Inten    --      9.6319                 0.4733                13.1975

                     10                     11                     12
                      A                      A                      A
 Frequencies --    240.9752               264.1469               292.8761
 Red. masses --      8.9051                 9.0665                11.3061
 Frc consts  --      0.3047                 0.3727                 0.5714
 IR Inten    --     11.1893                25.4196                 3.7343

                     13                     14                     15
                      A                      A                      A
 Frequencies --    298.5592               305.6407               354.3283
 Red. masses --      6.9670                 5.9375                10.3472
 Frc consts  --      0.3659                 0.3268                 0.7654
 IR Inten    --      5.3442                 8.3060                 4.4097

                     16                     17                     18
                      A                      A                      A
 Frequencies --    376.3539               381.8061               396.8946
 Red. masses --      8.2984                 9.8483                 6.7617
 Frc consts  --      0.6925                 0.8459                 0.6276
 IR Inten    --      5.0701                 3.1857                17.9291

                     19                     20                     21
                      A                      A                      A
 Frequencies --    432.6297               438.4225               446.4858
 Red. masses --      9.8359                 5.1501                 4.0636
 Frc consts  --      1.0847                 0.5832                 0.4773
 IR Inten    --     16.8292                 3.1536                 1.3970

                     22                     23                     24
                      A                      A                      A
 Frequencies --    480.8589               487.1440               499.9163
 Red. masses --     10.0058                 8.9608                 5.8395
 Frc consts  --      1.3631                 1.2529                 0.8598
 IR Inten    --      1.7386                 9.8439                67.2499

                     25                     26                     27
                      A                      A                      A
 Frequencies --    503.9934               516.4325               564.1196
 Red. masses --      1.2850                10.2701                 5.3349
 Frc consts  --      0.1923                 1.6138                 1.0003
 IR Inten    --    132.9601                13.6847                 0.5943

                     28                     29                     30
                      A                      A                      A
 Frequencies --    579.7658               588.3234               616.2581
 Red. masses --     10.1200                 6.0241                10.7203
 Frc consts  --      2.0042                 1.2285                 2.3987
 IR Inten    --    259.2577                28.5171               215.8024

                     31                     32                     33
                      A                      A                      A
 Frequencies --    655.7109               675.4432               684.5638
 Red. masses --      6.9392                 6.3617                 6.5951
 Frc consts  --      1.7579                 1.7100                 1.8209
 IR Inten    --      4.1441                42.7536                 4.4695

                     34                     35                     36
                      A                      A                      A
 Frequencies --    709.5377               727.4115               741.3030
 Red. masses --      2.4857                 5.4578                 1.1609
 Frc consts  --      0.7373                 1.7015                 0.3759
 IR Inten    --    104.7777                51.9149               167.7642

                     37                     38                     39
                      A                      A                      A
 Frequencies --    743.0861               774.8122               789.2857
 Red. masses --      5.9296                 6.3931                 1.9429
 Frc consts  --      1.9291                 2.2613                 0.7131
 IR Inten    --      0.3600               106.8440                28.2591

                     40                     41                     42
                      A                      A                      A
 Frequencies --    799.0048               868.4733               882.6045
 Red. masses --      4.8960                 7.3195                 1.4843
 Frc consts  --      1.8416                 3.2527                 0.6813
 IR Inten    --      4.6375                53.4021                 0.3307

                     43                     44                     45
                      A                      A                      A
 Frequencies --    898.2514               911.4603               958.1137
 Red. masses --      1.4640                 7.4772                13.6713
 Frc consts  --      0.6960                 3.6599                 7.3943
 IR Inten    --     16.2501                34.1133               418.1902

                     46                     47                     48
                      A                      A                      A
 Frequencies --    987.5108               999.6050              1023.7547
 Red. masses --      1.3680                 1.2889                 4.4307
 Frc consts  --      0.7860                 0.7588                 2.7360
 IR Inten    --      2.4660                 0.0602               148.4209

                     49                     50                     51
                      A                      A                      A
 Frequencies --   1042.9139              1061.5543              1079.4910
 Red. masses --      2.2034                 6.8929                15.1222
 Frc consts  --      1.4120                 4.5765                10.3826
 IR Inten    --    289.1412               142.1477               504.8056

                     52                     53                     54
                      A                      A                      A
 Frequencies --   1114.2016              1142.3787              1145.7538
 Red. masses --      1.9784                13.1193                 1.4880
 Frc consts  --      1.4471                10.0875                 1.1509
 IR Inten    --     62.9475               576.5674                57.3664

                     55                     56                     57
                      A                      A                      A
 Frequencies --   1175.3346              1206.2658              1217.1593
 Red. masses --      1.9143                 1.9555                 2.5047
 Frc consts  --      1.5580                 1.6765                 2.1862
 IR Inten    --      5.1568                81.9501                65.4024

                     58                     59                     60
                      A                      A                      A
 Frequencies --   1240.3389              1257.9262              1288.4181
 Red. masses --      2.3693                 3.6661                 3.2402
 Frc consts  --      2.1476                 3.4180                 3.1691
 IR Inten    --     17.1179               346.3724               304.1948

                     61                     62                     63
                      A                      A                      A
 Frequencies --   1320.4336              1363.1783              1369.1822
 Red. masses --      4.1612                10.5188                 2.8458
 Frc consts  --      4.2746                11.5165                 3.1433
 IR Inten    --    143.1559                10.7073               122.4848

                     64                     65                     66
                      A                      A                      A
 Frequencies --   1400.6124              1417.9292              1453.0734
 Red. masses --      3.1553                 2.9110                 2.5700
 Frc consts  --      3.6470                 3.4483                 3.1971
 IR Inten    --    164.8713              1593.2603               750.6815

                     67                     68                     69
                      A                      A                      A
 Frequencies --   1477.4701              1490.1251              1504.5311
 Red. masses --      2.9762                 3.5781                 5.2189
 Frc consts  --      3.8278                 4.6811                 6.9604
 IR Inten    --    105.6892               175.4487               877.2714

                     70                     71                     72
                      A                      A                      A
 Frequencies --   1527.4545              1559.0340              1597.7526
 Red. masses --      4.5004                 4.3195                 7.8554
 Frc consts  --      6.1863                 6.1858                11.8151
 IR Inten    --      0.6570                62.5241                98.7147

                     73                     74                     75
                      A                      A                      A
 Frequencies --   1621.9731              1630.4215              3157.9658
 Red. masses --      5.6859                 6.2656                 1.0860
 Frc consts  --      8.8133                 9.8132                 6.3809
 IR Inten    --     60.7550                51.5162                14.7808

                     76                     77                     78
                      A                      A                      A
 Frequencies --   3171.9842              3187.3957              3193.1552
 Red. masses --      1.0903                 1.0931                 1.0934
 Frc consts  --      6.4631                 6.5430                 6.5685
 IR Inten    --     22.2334                26.0143                44.9191

                     79                     80                     81
                      A                      A                      A
 Frequencies --   3205.1146              3271.4218              3711.5697
 Red. masses --      1.0893                 1.0691                 1.0650
 Frc consts  --      6.5930                 6.7415                 8.6438
 IR Inten    --      4.9876              1526.9876               210.1047

 - Thermochemistry -
 -------------------
 Temperature   298.150 Kelvin.  Pressure   1.00000 Atm.
 Atom     1 has atomic number  8 and mass  15.99491

 Molecular mass:   318.99125 amu.
 Principal axes and moments of inertia in atomic units:
                           1         2         3
     Eigenvalues --  3138.09322********************
           X            0.99368  -0.10888  -0.02739
           Y            0.10135   0.97486  -0.19846
           Z            0.04831   0.19443   0.97973
 This molecule is an asymmetric top.
 Rotational symmetry number  1.
 Warning -- assumption of classical behavior for rotation
           may cause significant error
 Rotational temperatures (Kelvin)      0.02760     0.00769     0.00616
 Rotational constants (GHZ):           0.57511     0.16016     0.12842
 Zero-point vibrational energy     493536.8 (Joules/Mol)
                                  117.95814 (Kcal/Mol)
 Warning -- explicit consideration of  30 degrees of freedom as
           vibrations may cause significant error
 Vibrational temperatures:     44.59    51.10    96.07   151.36   174.03
          (Kelvin)            185.22   191.48   263.09   301.31   346.71
                              380.05   421.38   429.56   439.75   509.80
                              541.49   549.33   571.04   622.46   630.79
                              642.39   691.85   700.89   719.27   725.13
                              743.03   811.64   834.15   846.47   886.66
                              943.42   971.81   984.93  1020.87  1046.58
                             1066.57  1069.14  1114.78  1135.61  1149.59
                             1249.54  1269.87  1292.38  1311.39  1378.51
                             1420.81  1438.21  1472.95  1500.52  1527.34
                             1553.15  1603.09  1643.63  1648.48  1691.04
                             1735.55  1751.22  1784.57  1809.88  1853.75
                             1899.81  1961.31  1969.95  2015.17  2040.08
                             2090.65  2125.75  2143.96  2164.68  2197.67
                             2243.10  2298.81  2333.66  2345.81  4543.61
                             4563.78  4585.95  4594.24  4611.45  4706.85
                             5340.12

 Zero-point correction=                           0.187978 (Hartree/Particle)
 Thermal correction to Energy=                    0.205164
 Thermal correction to Enthalpy=                  0.206108
 Thermal correction to Gibbs Free Energy=         0.141766
 Sum of electronic and zero-point Energies=          -1462.873869
 Sum of electronic and thermal Energies=             -1462.856683
 Sum of electronic and thermal Enthalpies=           -1462.855739
 Sum of electronic and thermal Free Energies=        -1462.920081

                     E (Thermal)             CV                S
                      KCal/Mol        Cal/Mol-Kelvin    Cal/Mol-Kelvin
 Total                  128.742             67.952            135.420
 Electronic               0.000              0.000              1.377
 Translational            0.889              2.981             43.176
 Rotational               0.889              2.981             34.562
 Vibrational            126.965             61.990             56.304
 Vibration     1          0.594              1.984              5.765
 Vibration     2          0.594              1.982              5.495
 Vibration     3          0.598              1.970              4.246
 Vibration     4          0.605              1.945              3.356
 Vibration     5          0.609              1.932              3.085
 Vibration     6          0.611              1.925              2.965
 Vibration     7          0.613              1.920              2.901
 Vibration     8          0.630              1.863              2.299
 Vibration     9          0.642              1.826              2.049
 Vibration    10          0.658              1.778              1.796
 Vibration    11          0.671              1.739              1.634
 Vibration    12          0.688              1.687              1.457
 Vibration    13          0.692              1.676              1.425
 Vibration    14          0.696              1.663              1.386
 Vibration    15          0.730              1.566              1.147
 Vibration    16          0.747              1.521              1.054
 Vibration    17          0.751              1.509              1.032
 Vibration    18          0.763              1.477              0.974
 Vibration    19          0.794              1.399              0.850
 Vibration    20          0.799              1.386              0.832
 Vibration    21          0.806              1.369              0.806
 Vibration    22          0.837              1.293              0.708
 Vibration    23          0.843              1.279              0.691
 Vibration    24          0.855              1.250              0.658
 Vibration    25          0.859              1.241              0.648
 Vibration    26          0.871              1.214              0.618
 Vibration    27          0.920              1.109              0.516
 Vibration    28          0.936              1.075              0.486
 Vibration    29          0.946              1.057              0.470
 Vibration    30          0.976              0.998              0.423

                           ! Non-Optimized Parameters !
 Normal termination of Gaussian 16 at Sun Feb 11 02:43:45 2024.
