 Gaussian 16, Revision A.03,
 Gaussian 16:  ES64L-G16RevA.03 25-Dec-2016

 --------------------------------------
 #P UB3LYP/6-311++G(d,p) nosym opt freq
 --------------------------------------

 -------
 Reduced
 -------
 Symbolic Z-matrix:
 Charge = -2 Multiplicity = 1

 SCF Done:  E(UB3LYP) =  -3393.14106272     A.U. after   22 cycles
 Optimization completed.
    -- Stationary point found.
 Normal termination of Gaussian 16 at Sun Jan  7 05:10:37 2024.

 ----------------------------------------------------------------------
 #P Geom=AllCheck Guess=TCheck SCRF=Check GenChk UB3LYP/6-311++G(d,p) F
 req
 ----------------------------------------------------------------------

 Structure from the checkpoint file:  "183-an.chk"
 -------
 Reduced
 -------
 Charge = -2 Multiplicity = 1

                          Input orientation:
 ---------------------------------------------------------------------
 Center     Atomic      Atomic             Coordinates (Angstroms)
 Number     Number       Type             X           Y           Z
 ---------------------------------------------------------------------
      1          6           0        4.844237   -2.865535   -0.352058
      2          6           0        5.580324   -1.975080   -1.100899
      3          6           0        4.991737   -0.746932   -1.520078
      4          6           0        3.496977   -2.599190    0.021299
      5          6           0        2.898541   -1.354014   -0.401516
      6          6           0        3.688867   -0.460658   -1.168812
      7          6           0        2.766105   -3.533943    0.805793
      8          6           0        1.420018   -3.197352    1.137056
      9          6           0        0.793176   -1.966343    0.692322
     10          6           0        1.541521   -0.989019   -0.066504
     11          6           0        0.679894   -4.119302    1.973020
     12          6           0       -0.611697   -3.824833    2.355557
     13          6           0       -0.593552   -1.712291    1.055547
     14          6           0       -1.208112   -2.629835    1.877265
     15          8           0        3.314484   -4.669580    1.222930
     16          8           0        1.065401    0.163302   -0.434697
     17          8           0        1.278059   -5.258602    2.382808
     18         35           0       -3.068555   -2.306312    2.437002
     19          7           0       -1.251911   -0.596484    0.519645
     20          1           0        5.267690   -3.806685   -0.016830
     21          1           0        6.608827   -2.206618   -1.372628
     22          1           0        5.568704   -0.040491   -2.113958
     23          1           0        3.212808    0.466866   -1.469805
     24          1           0       -1.153258   -4.506033    2.998885
     25          1           0        2.259807   -5.181764    1.939627
     26          1           0       -0.545010    0.046154    0.121023
     27          1           0       -1.926410   -0.183397    1.149425
 ---------------------------------------------------------------------

 SCF Done:  E(UB3LYP) =  -3393.14106272     A.U. after    1 cycles

 Alpha  occ. eigenvalues -- -482.61052 -62.26337 -56.08320 -56.08011 -56.08001
 Alpha  occ. eigenvalues --  -18.85643 -18.81097 -18.79794 -14.05928  -9.97595
 Alpha  occ. eigenvalues --   -9.97508  -9.96909  -9.95846  -9.95359  -9.94144
 Alpha  occ. eigenvalues --   -9.93918  -9.93349  -9.93210  -9.92385  -9.92026
 Alpha  occ. eigenvalues --   -9.91884  -9.91819  -9.91676  -8.47291  -6.30265
 Alpha  occ. eigenvalues --   -6.29231  -6.29203  -2.41388  -2.41094  -2.41072
 Alpha  occ. eigenvalues --   -2.40251  -2.40250  -0.77836  -0.71833  -0.71275
 Alpha  occ. eigenvalues --   -0.66568  -0.61063  -0.59460  -0.56623  -0.52665
 Alpha  occ. eigenvalues --   -0.50881  -0.48529  -0.46991  -0.41860  -0.38746
 Alpha  occ. eigenvalues --   -0.37733  -0.33545  -0.31791  -0.30150  -0.27360
 Alpha  occ. eigenvalues --   -0.26576  -0.24481  -0.22189  -0.21722  -0.20931
 Alpha  occ. eigenvalues --   -0.20007  -0.18411  -0.17318  -0.16951  -0.16179
 Alpha  occ. eigenvalues --   -0.14899  -0.14114  -0.13890  -0.13651  -0.12662
 Alpha  occ. eigenvalues --   -0.10691  -0.10245  -0.10020  -0.08855  -0.08289
 Alpha  occ. eigenvalues --   -0.07898  -0.07199  -0.03332  -0.01267  -0.00282
 Alpha  occ. eigenvalues --    0.00602   0.01085   0.02465   0.04945   0.11471
 Alpha virt. eigenvalues --    0.15549   0.16521   0.17320   0.18672   0.19316
 Alpha virt. eigenvalues --    0.19895   0.20032   0.20909   0.21055   0.22143
 Alpha virt. eigenvalues --    0.22313   0.23382   0.23681   0.24574   0.24640

  Beta  occ. eigenvalues -- -482.61052 -62.26337 -56.08320 -56.08011 -56.08001
  Beta  occ. eigenvalues --  -18.85643 -18.81097 -18.79794 -14.05928  -9.97595
  Beta  occ. eigenvalues --   -9.97508  -9.96909  -9.95846  -9.95359  -9.94144
  Beta  occ. eigenvalues --   -9.93918  -9.93349  -9.93210  -9.92385  -9.92026
  Beta  occ. eigenvalues --   -9.91884  -9.91819  -9.91676  -8.47291  -6.30265
  Beta  occ. eigenvalues --   -6.29231  -6.29203  -2.41388  -2.41094  -2.41072
  Beta  occ. eigenvalues --   -2.40251  -2.40250  -0.77836  -0.71833  -0.71275
  Beta  occ. eigenvalues --   -0.66568  -0.61063  -0.59460  -0.56623  -0.52665
  Beta  occ. eigenvalues --   -0.50881  -0.48529  -0.46991  -0.41860  -0.38746
  Beta  occ. eigenvalues --   -0.37733  -0.33545  -0.31791  -0.30150  -0.27360
  Beta  occ. eigenvalues --   -0.26576  -0.24481  -0.22189  -0.21722  -0.20931
  Beta  occ. eigenvalues --   -0.20007  -0.18411  -0.17318  -0.16951  -0.16179
  Beta  occ. eigenvalues --   -0.14899  -0.14114  -0.13890  -0.13651  -0.12662
  Beta  occ. eigenvalues --   -0.10691  -0.10245  -0.10020  -0.08855  -0.08289
  Beta  occ. eigenvalues --   -0.07898  -0.07199  -0.03332  -0.01267  -0.00282
  Beta  occ. eigenvalues --    0.00602   0.01085   0.02465   0.04945   0.11471
  Beta virt. eigenvalues --    0.15549   0.16521   0.17320   0.18672   0.19316
  Beta virt. eigenvalues --    0.19895   0.20032   0.20909   0.21055   0.22143
  Beta virt. eigenvalues --    0.22313   0.23382   0.23681   0.24574   0.24640

 Mulliken charges and spin densities:
               1          2
     1  C   -0.079718  -0.000000
     2  C   -0.478315  -0.000000
     3  C   -0.525317   0.000000
     4  C    0.264719   0.000000
     5  C    0.153417   0.000000
     6  C    0.025360  -0.000000
     7  C   -0.320337  -0.000000
     8  C    0.500066  -0.000000
     9  C    0.475992  -0.000000
    10  C   -0.490286  -0.000000
    11  C   -0.456199  -0.000000
    12  C    0.037077   0.000000
    13  C   -0.988353  -0.000000
    14  C    0.649509   0.000000
    15  O   -0.574283  -0.000000
    16  O   -0.496407  -0.000000
    17  O   -0.474334  -0.000000
    18  Br  -0.402351  -0.000000
    19  N   -0.301392  -0.000000
    20  H    0.132966   0.000000
    21  H    0.078554  -0.000000
    22  H    0.078381   0.000000
    23  H    0.135351   0.000000
    24  H    0.156201  -0.000000
    25  H    0.402820  -0.000000
    26  H    0.299718  -0.000000
    27  H    0.197161   0.000000
 Sum of Mulliken charges =  -2.00000   0.00000

 Dipole moment (field-independent basis, Debye):
    X=            -13.6876    Y=             24.1863    Z=             -6.7918  Tot=             28.6087
 Quadrupole moment (field-independent basis, Debye-Ang):
   XX=           -216.7872   YY=           -234.1945   ZZ=           -159.7336
   XY=             37.8737   XZ=              8.2931   YZ=             38.1344

  Exact polarizability: 417.521  10.545 241.372-112.843 -62.666 213.309
 Approx polarizability: 658.202   0.414 446.529-174.093-131.728 347.140

                      1                      2                      3
                      A                      A                      A
 Frequencies --     39.7586                78.4262                96.1952
 Red. masses --      8.8877                 6.5452                 6.9404
 Frc consts  --      0.0083                 0.0237                 0.0378
 IR Inten    --      2.4411                 0.0146                 2.8832

                      4                      5                      6
                      A                      A                      A
 Frequencies --    132.4144               137.3017               143.5337
 Red. masses --      5.2950                10.0639                 7.3917
 Frc consts  --      0.0547                 0.1118                 0.0897
 IR Inten    --      0.1176                 1.2485                 0.6536

                      7                      8                      9
                      A                      A                      A
 Frequencies --    182.4168               208.0029               231.3648
 Red. masses --      7.7202                14.8520                 5.7755
 Frc consts  --      0.1514                 0.3786                 0.1822
 IR Inten    --      0.8839                 2.5907                16.2079

                     10                     11                     12
                      A                      A                      A
 Frequencies --    268.2547               308.4734               320.3550
 Red. masses --      5.0082                 4.4905                 6.5893
 Frc consts  --      0.2123                 0.2518                 0.3984
 IR Inten    --      3.4657                74.7389                41.7777

                     13                     14                     15
                      A                      A                      A
 Frequencies --    343.6846               382.2730               391.7964
 Red. masses --      5.9614                 9.2024                 8.1689
 Frc consts  --      0.4149                 0.7923                 0.7388
 IR Inten    --      5.4972                13.3939                 3.7741

                     16                     17                     18
                      A                      A                      A
 Frequencies --    416.2859               434.4340               444.9887
 Red. masses --      6.2012                 1.5509                 2.3854
 Frc consts  --      0.6332                 0.1725                 0.2783
 IR Inten    --     29.6484                79.6751                27.3364

                     19                     20                     21
                      A                      A                      A
 Frequencies --    466.2670               480.0494               487.4313
 Red. masses --      9.1627                 6.2391                 4.8146
 Frc consts  --      1.1737                 0.8471                 0.6740
 IR Inten    --     18.8868                16.2562                 4.4460

                     22                     23                     24
                      A                      A                      A
 Frequencies --    526.4174               546.0563               588.4316
 Red. masses --      6.6280                 8.1020                 2.8243
 Frc consts  --      1.0822                 1.4234                 0.5762
 IR Inten    --      4.4506                 6.6617                36.5515

                     25                     26                     27
                      A                      A                      A
 Frequencies --    613.1268               632.6482               660.6699
 Red. masses --      5.6689                 5.8010                 6.2587
 Frc consts  --      1.2556                 1.3680                 1.6095
 IR Inten    --      4.9007                27.1340                 5.1530

                     28                     29                     30
                      A                      A                      A
 Frequencies --    692.9077               707.6002               713.4833
 Red. masses --      1.7066                 4.8181                 5.7856
 Frc consts  --      0.4828                 1.4214                 1.7353
 IR Inten    --     10.2058                 8.6491                26.5805

                     31                     32                     33
                      A                      A                      A
 Frequencies --    737.9000               757.8690               763.1190
 Red. masses --      1.7510                 6.9098                 3.3550
 Frc consts  --      0.5617                 2.3383                 1.1511
 IR Inten    --     70.3584               114.5170                 0.8308

                     34                     35                     36
                      A                      A                      A
 Frequencies --    774.7650               813.0664               869.8773
 Red. masses --      2.1593                 2.8681                 4.8438
 Frc consts  --      0.7637                 1.1171                 2.1595
 IR Inten    --      2.9842                 0.3612                16.2130

                     37                     38                     39
                      A                      A                      A
 Frequencies --    880.2689               911.5617               949.1896
 Red. masses --      2.1036                 3.0939                 1.2482
 Frc consts  --      0.9604                 1.5147                 0.6626
 IR Inten    --    127.6051                31.0145                 1.1176

                     40                     41                     42
                      A                      A                      A
 Frequencies --    960.4689               970.5481              1012.0675
 Red. masses --      1.3224                 5.2051                 2.2794
 Frc consts  --      0.7187                 2.8888                 1.3756
 IR Inten    --      2.3816               108.7783                89.9978

                     43                     44                     45
                      A                      A                      A
 Frequencies --   1052.1793              1080.3660              1124.1031
 Red. masses --      3.9755                 2.8747                 1.5720
 Frc consts  --      2.5931                 1.9769                 1.1704
 IR Inten    --      7.1497               207.3860               122.4623

                     46                     47                     48
                      A                      A                      A
 Frequencies --   1129.5888              1152.7304              1169.9346
 Red. masses --      1.4284                 1.0481                 2.3753
 Frc consts  --      1.0738                 0.8206                 1.9156
 IR Inten    --     64.0211                59.6761                21.4918

                     49                     50                     51
                      A                      A                      A
 Frequencies --   1213.6674              1220.2998              1241.7764
 Red. masses --      2.9832                 2.3331                 1.9714
 Frc consts  --      2.5890                 2.0470                 1.7911
 IR Inten    --    346.3168                53.6545                20.2226

                     52                     53                     54
                      A                      A                      A
 Frequencies --   1262.1551              1274.1495              1303.3463
 Red. masses --      3.4572                 4.6735                 3.7890
 Frc consts  --      3.2449                 4.4703                 3.7922
 IR Inten    --     27.5138               109.1344                88.6976

                     55                     56                     57
                      A                      A                      A
 Frequencies --   1357.4472              1383.4576              1385.5202
 Red. masses --      7.1466                 2.4005                 2.6065
 Frc consts  --      7.7588                 2.7070                 2.9480
 IR Inten    --    237.5999                44.5369               302.6632

                     58                     59                     60
                      A                      A                      A
 Frequencies --   1423.7944              1455.0675              1466.4165
 Red. masses --      7.1746                 5.1832                 2.4717
 Frc consts  --      8.5692                 6.4656                 3.1315
 IR Inten    --     20.3571               464.7889                26.3022

                     61                     62                     63
                      A                      A                      A
 Frequencies --   1497.5588              1530.5405              1563.8335
 Red. masses --      5.8766                 5.5618                 3.9081
 Frc consts  --      7.7650                 7.6764                 5.6312
 IR Inten    --     53.6911               106.2365               302.9756

                     64                     65                     66
                      A                      A                      A
 Frequencies --   1589.8362              1603.7275              1605.3958
 Red. masses --      5.2488                 1.8785                 2.5255
 Frc consts  --      7.8166                 2.8466                 3.8350
 IR Inten    --      1.7969                10.8252               438.2037

                     67                     68                     69
                      A                      A                      A
 Frequencies --   1623.4594              2009.7361              3094.7908
 Red. masses --      2.2524                 1.0950                 1.0829
 Frc consts  --      3.4976                 2.6058                 6.1107
 IR Inten    --    245.7424               328.9707                40.8609

                     70                     71                     72
                      A                      A                      A
 Frequencies --   3118.3896              3144.0454              3164.6519
 Red. masses --      1.0905                 1.0716                 1.0904
 Frc consts  --      6.2482                 6.2414                 6.4340
 IR Inten    --    131.6694               279.8176                23.6184

                     73                     74                     75
                      A                      A                      A
 Frequencies --   3167.0949              3188.3488              3575.6367
 Red. masses --      1.0915                 1.0896                 1.0792
 Frc consts  --      6.4503                 6.5263                 8.1292
 IR Inten    --     48.3015                18.4057                 9.5081

 - Thermochemistry -
 -------------------
 Temperature   298.150 Kelvin.  Pressure   1.00000 Atm.
 Atom     1 has atomic number  6 and mass  12.00000

 Molecular mass:   316.96875 amu.
 Principal axes and moments of inertia in atomic units:
                           1         2         3
     Eigenvalues --  2748.18569********************
           X            0.92111  -0.22139   0.32023
           Y            0.05446   0.88774   0.45712
           Z           -0.38548  -0.40361   0.82976
 This molecule is an asymmetric top.
 Rotational symmetry number  1.
 Warning -- assumption of classical behavior for rotation
           may cause significant error
 Rotational temperatures (Kelvin)      0.03152     0.00831     0.00658
 Rotational constants (GHZ):           0.65670     0.17309     0.13706
 Zero-point vibrational energy     479994.4 (Joules/Mol)
                                  114.72141 (Kcal/Mol)
 Warning -- explicit consideration of  25 degrees of freedom as
           vibrations may cause significant error
 Vibrational temperatures:     57.20   112.84   138.40   190.51   197.55
          (Kelvin)            206.51   262.46   299.27   332.88   385.96
                              443.82   460.92   494.49   550.01   563.71
                              598.94   625.05   640.24   670.85   690.68
                              701.30   757.40   785.65   846.62   882.15
                              910.24   950.56   996.94  1018.08  1026.54
                             1061.67  1090.40  1097.96  1114.71  1169.82
                             1251.56  1266.51  1311.53  1365.67  1381.90
                             1396.40  1456.14  1513.85  1554.41  1617.33
                             1625.23  1658.52  1683.27  1746.20  1755.74
                             1786.64  1815.96  1833.22  1875.22  1953.06
                             1990.49  1993.45  2048.52  2093.52  2109.85
                             2154.65  2202.11  2250.01  2287.42  2307.41
                             2309.81  2335.80  2891.56  4452.71  4486.67
                             4523.58  4553.23  4556.74  4587.32  5144.54

 Zero-point correction=                           0.182820 (Hartree/Particle)
 Thermal correction to Energy=                    0.197903
 Thermal correction to Enthalpy=                  0.198847
 Thermal correction to Gibbs Free Energy=         0.140128
 Sum of electronic and zero-point Energies=          -3392.958243
 Sum of electronic and thermal Energies=             -3392.943159
 Sum of electronic and thermal Enthalpies=           -3392.942215
 Sum of electronic and thermal Free Energies=        -3393.000935

                     E (Thermal)             CV                S
                      KCal/Mol        Cal/Mol-Kelvin    Cal/Mol-Kelvin
 Total                  124.186             59.911            123.585
 Electronic               0.000              0.000              0.000
 Translational            0.889              2.981             43.157
 Rotational               0.889              2.981             34.289
 Vibrational            122.409             53.949             46.140
 Vibration     1          0.594              1.981              5.271
 Vibration     2          0.600              1.964              3.930
 Vibration     3          0.603              1.952              3.530
 Vibration     4          0.613              1.921              2.911
 Vibration     5          0.614              1.916              2.841
 Vibration     6          0.616              1.910              2.756
 Vibration     7          0.630              1.864              2.304
 Vibration     8          0.641              1.828              2.061
 Vibration     9          0.653              1.793              1.868
 Vibration    10          0.673              1.731              1.607
 Vibration    11          0.698              1.658              1.371
 Vibration    12          0.706              1.635              1.308
 Vibration    13          0.722              1.588              1.195
 Vibration    14          0.752              1.508              1.030
 Vibration    15          0.759              1.488              0.993
 Vibration    16          0.780              1.435              0.905
 Vibration    17          0.795              1.395              0.844
 Vibration    18          0.804              1.372              0.811
 Vibration    19          0.824              1.325              0.748
 Vibration    20          0.836              1.294              0.710
 Vibration    21          0.843              1.278              0.690
 Vibration    22          0.881              1.192              0.595
 Vibration    23          0.901              1.148              0.552
 Vibration    24          0.946              1.056              0.470
 Vibration    25          0.972              1.004              0.428

 Optimization completed.
    -- Stationary point found.
 Normal termination of Gaussian 16 at Sun Jan  7 06:39:34 2024.
