 Gaussian 16, Revision A.03,
 Gaussian 16:  ES64L-G16RevA.03 25-Dec-2016

 ----------------------------------------------------------------
 #P UB3LYP/6-311++G(d,p) SCRF=(PCM,Solvent=n,n-DiMethylFormamide)
 ----------------------------------------------------------------

 -------
 Reduced
 -------
 Symbolic Z-matrix:
 Charge = -2 Multiplicity = 1

                         Standard orientation:
 ---------------------------------------------------------------------
 Center     Atomic      Atomic             Coordinates (Angstroms)
 Number     Number       Type             X           Y           Z
 ---------------------------------------------------------------------
      1          6           0        4.162696    0.872333    0.016605
      2          6           0        5.186154   -0.048322   -0.003953
      3          6           0        4.884931   -1.440869   -0.027850
      4          6           0        2.795802    0.476044    0.016790
      5          6           0        2.488004   -0.935329   -0.008703
      6          6           0        3.568674   -1.853490   -0.032644
      7          6           0        1.760500    1.451455    0.026296
      8          6           0        0.415446    0.976271    0.028992
      9          6           0        0.089183   -0.437797    0.037261
     10          6           0        1.133215   -1.436735   -0.018578
     11          6           0       -0.647585    1.958754   -0.007106
     12          6           0       -1.965130    1.553936   -0.045212
     13          6           0       -1.310811   -0.836274    0.064111
     14          6           0       -2.252619    0.165408   -0.002402
     15          8           0        2.031337    2.751851    0.022555
     16          8           0        0.910791   -2.715817   -0.086231
     17          8           0       -0.328359    3.270884   -0.019027
     18         35           0       -4.160121   -0.324892   -0.018605
     19          7           0       -1.637763   -2.191729    0.210729
     20          1           0        4.362721    1.938730    0.032133
     21          1           0        6.222714    0.284555   -0.002256
     22          1           0        5.690369   -2.172792   -0.042091
     23          1           0        3.306129   -2.906184   -0.053518
     24          1           0       -2.755688    2.291326   -0.094881
     25          1           0        0.751181    3.250837   -0.000747
     26          1           0       -0.792852   -2.759229    0.021885
     27          1           0       -2.476926   -2.461547   -0.284464
 ---------------------------------------------------------------------

 SCF Done:  E(UB3LYP) =  -3393.38378139     A.U. after   17 cycles

 The electronic state is 1-A.
 Alpha  occ. eigenvalues -- -482.81668 -62.46948 -56.28953 -56.28612 -56.28603
 Alpha  occ. eigenvalues --  -19.09023 -19.04847 -19.03308 -14.28152 -10.20406
 Alpha  occ. eigenvalues --  -10.19578 -10.19344 -10.18981 -10.18572 -10.15586
 Alpha  occ. eigenvalues --  -10.15414 -10.15342 -10.15264 -10.15155 -10.14978
 Alpha  occ. eigenvalues --  -10.14661 -10.14506 -10.14473  -8.67902  -6.50933
 Alpha  occ. eigenvalues --   -6.49806  -6.49787  -2.62042  -2.61722  -2.61708
 Alpha  occ. eigenvalues --   -2.60814  -2.60812  -1.01326  -0.95358  -0.94988
 Alpha  occ. eigenvalues --   -0.88973  -0.83419  -0.81579  -0.78568  -0.74801
 Alpha  occ. eigenvalues --   -0.73111  -0.70966  -0.69620  -0.64545  -0.61088
 Alpha  occ. eigenvalues --   -0.60067  -0.56019  -0.54420  -0.52334  -0.49849
 Alpha  occ. eigenvalues --   -0.48682  -0.47170  -0.44865  -0.44042  -0.43109
 Alpha  occ. eigenvalues --   -0.42249  -0.40442  -0.40297  -0.39614  -0.38950
 Alpha  occ. eigenvalues --   -0.37571  -0.37212  -0.36715  -0.36031  -0.35203
 Alpha  occ. eigenvalues --   -0.33118  -0.32923  -0.32417  -0.32060  -0.31055
 Alpha  occ. eigenvalues --   -0.29185  -0.28392  -0.26277  -0.23686  -0.23337
 Alpha  occ. eigenvalues --   -0.22563  -0.22011  -0.20965  -0.18104  -0.11699
 Alpha virt. eigenvalues --   -0.02484  -0.00992  -0.00490   0.00157   0.00891
 Alpha virt. eigenvalues --    0.01455   0.02400   0.02719   0.03097   0.04325
 Alpha virt. eigenvalues --    0.04514   0.04531   0.04975   0.05548   0.06266

  Beta  occ. eigenvalues -- -482.81668 -62.46948 -56.28953 -56.28612 -56.28603
  Beta  occ. eigenvalues --  -19.09023 -19.04847 -19.03308 -14.28152 -10.20406
  Beta  occ. eigenvalues --  -10.19578 -10.19344 -10.18981 -10.18572 -10.15586
  Beta  occ. eigenvalues --  -10.15414 -10.15342 -10.15264 -10.15155 -10.14978
  Beta  occ. eigenvalues --  -10.14661 -10.14506 -10.14473  -8.67902  -6.50933
  Beta  occ. eigenvalues --   -6.49806  -6.49787  -2.62042  -2.61722  -2.61708
  Beta  occ. eigenvalues --   -2.60814  -2.60812  -1.01326  -0.95358  -0.94988
  Beta  occ. eigenvalues --   -0.88973  -0.83419  -0.81579  -0.78568  -0.74801
  Beta  occ. eigenvalues --   -0.73111  -0.70966  -0.69620  -0.64545  -0.61088
  Beta  occ. eigenvalues --   -0.60067  -0.56019  -0.54420  -0.52334  -0.49849
  Beta  occ. eigenvalues --   -0.48682  -0.47170  -0.44865  -0.44042  -0.43109
  Beta  occ. eigenvalues --   -0.42249  -0.40442  -0.40297  -0.39614  -0.38950
  Beta  occ. eigenvalues --   -0.37571  -0.37212  -0.36715  -0.36031  -0.35203
  Beta  occ. eigenvalues --   -0.33118  -0.32923  -0.32417  -0.32060  -0.31055
  Beta  occ. eigenvalues --   -0.29185  -0.28392  -0.26277  -0.23686  -0.23337
  Beta  occ. eigenvalues --   -0.22563  -0.22011  -0.20965  -0.18104  -0.11699
  Beta virt. eigenvalues --   -0.02484  -0.00992  -0.00490   0.00157   0.00891
  Beta virt. eigenvalues --    0.01455   0.02400   0.02719   0.03097   0.04325
  Beta virt. eigenvalues --    0.04514   0.04531   0.04975   0.05548   0.06266

 Mulliken charges and spin densities:
               1          2
     1  C   -0.078491  -0.000000
     2  C   -0.495314   0.000000
     3  C   -0.550032  -0.000000
     4  C    0.102431  -0.000000
     5  C   -0.001418   0.000000
     6  C    0.015493   0.000000
     7  C   -0.188190  -0.000000
     8  C    0.493612  -0.000000
     9  C    0.443195   0.000000
    10  C   -0.305533  -0.000000
    11  C   -0.384650   0.000000
    12  C   -0.047243  -0.000000
    13  C   -0.875386  -0.000000
    14  C    0.478030   0.000000
    15  O   -0.659099  -0.000000
    16  O   -0.602035  -0.000000
    17  O   -0.517386   0.000000
    18  Br  -0.253458  -0.000000
    19  N   -0.376315   0.000000
    20  H    0.154504   0.000000
    21  H    0.163267   0.000000
    22  H    0.162708  -0.000000
    23  H    0.152676   0.000000
    24  H    0.202644  -0.000000
    25  H    0.411763   0.000000
    26  H    0.312227  -0.000000
    27  H    0.241998   0.000000
 Sum of Mulliken charges =  -2.00000   0.00000

 Dipole moment (field-independent basis, Debye):
    X=             -5.7056    Y=             -2.9016    Z=             -1.0350  Tot=              6.4842
 Quadrupole moment (field-independent basis, Debye-Ang):
   XX=           -176.6578   YY=           -185.5952   ZZ=           -135.9222
   XY=             -1.8636   XZ=              2.8206   YZ=              2.4994

 Normal termination of Gaussian 16 at Tue Jan 16 06:13:34 2024.
