 Q-Chem 5.4, Q-Chem, Inc., Pleasanton, CA (2021)
 Q-Chem 5.4.0 for Intel X86 EM64T Linux

User input:
--------------------------------------------------------------
$molecule
0 1
C                 -3.5666410000      2.9972520000      1.4997700000
C                 -4.5460440000      2.1145940000      1.9386660000
C                 -4.4378980000      0.7484460000      1.6605880000
C                 -2.4597230000      2.5225890000      0.7885490000
C                 -2.3522630000      1.1518620000      0.5115990000
C                 -3.3474320000      0.2695090000      0.9462970000
C                 -1.4317090000      3.5077330000      0.3197850000
C                 -0.1888960000      2.9621870000     -0.2976820000
C                 -0.1032150000      1.5864110000     -0.6169580000
C                 -1.1919020000      0.6250510000     -0.2519500000
C                  0.9142250000      3.7875470000     -0.6236480000
C                  2.0265640000      3.2532840000     -1.2805860000
C                  2.0669810000      1.9041960000     -1.6075230000
C                  1.0116890000      1.0656410000     -1.2706950000
O                 -1.6487460000      4.7029030000      0.4370130000
O                 -1.1166030000     -0.5544770000     -0.5566200000
H                 -3.2432330000     -0.7826430000      0.7120390000
H                  1.0296920000      0.0086840000     -1.5009000000
H                 -3.6369090000      4.0596240000      1.6964530000
O                  0.8679740000      5.0943160000     -0.2415460000
H                  2.9353840000      1.5075830000     -2.1211440000
H                 -5.2058100000      0.0631330000      2.0010370000
C                  1.8607890000      5.9798730000     -0.6358680000
C                  1.7592110000      6.6223180000     -1.8786890000
C                  2.8931100000      6.2867040000      0.2431840000
C                  3.8605780000      7.2209550000     -0.1222080000
C                  2.7387120000      7.5491860000     -2.2364580000
C                  3.7863120000      7.8445800000     -1.3665130000
O                  0.7655640000      6.3103380000     -2.7660720000
C                 -0.5573260000      6.7594100000     -2.4084580000
H                 -5.3978080000      2.4876610000      2.4961800000
H                  2.8559890000      3.9013430000     -1.5301830000
H                  2.9261410000      5.7858830000      1.2036320000
H                  4.6663510000      7.4575410000      0.5624520000
H                  2.6590560000      8.0281610000     -3.2053020000
H                  4.5383770000      8.5684200000     -1.6583790000
H                 -1.2125230000      6.4117290000     -3.2059690000
H                 -0.5820440000      7.8532930000     -2.3665570000
H                 -0.8759870000      6.3377500000     -1.4536880000
$end
$rem
MAX_SCF_CYCLES=200
BASIS  =  6-311++G(d,p)
GUI  =  2
JOB_TYPE  =  SP
METHOD  =  B3LYP
SOLVENT_METHOD = COSMO
$end
$solvent
dielectric 37.219
opticaldielectric 1.43
$end

--------------------------------------------------------------

             Standard Nuclear Orientation (Angstroms)
    I     Atom           X                Y                Z
 ----------------------------------------------------------------
    1      C       3.3686301308    -2.2054000487     0.4276858064
    2      C       4.7532722594    -2.3168845886     0.4634971631
    3      C       5.5553804895    -1.1875691666     0.2720491184
    4      C       2.7686126123    -0.9602662797     0.2131430179
    5      C       3.5746650306     0.1715868051     0.0225398808
    6      C       4.9684646284     0.0510532068     0.0483243593
    7      C       1.2722839669    -0.8831490341     0.1671572829
    8      C       0.6563341372     0.4727999136     0.0931414344
    9      C       1.4689596723     1.6063963017    -0.1448437938
   10      C       2.9611261997     1.5029289586    -0.2184429585
   11      C      -0.7403814458     0.6721852769     0.2105295104
   12      C      -1.2879131210     1.9482856915     0.0490385310
   13      C      -0.4657465946     3.0361062461    -0.2141123982
   14      C       0.9112080394     2.8735223523    -0.3026065121
   15      O       0.6180449629    -1.9133125039     0.1708101436
   16      O       3.6482418439     2.4847250190    -0.4502373463
   17      H       5.5668501839     0.9397603629    -0.1094488669
   18      H       1.5714603575     3.7097865972    -0.4902379033
   19      H       2.7303727368    -3.0692939892     0.5639605995
   20      O      -1.5143334787    -0.4044902599     0.5228664309
   21      H      -0.9076435242     4.0178419248    -0.3412121014
   22      H       6.6353443993    -1.2787921927     0.2966373766
   23      C      -2.8978718359    -0.2991528221     0.5332732767
   24      C      -3.6127514748    -0.4747010383    -0.6607902191
   25      C      -3.5611896391    -0.1121284751     1.7405825635
   26      C      -4.9538542893    -0.0660644152     1.7669235987
   27      C      -5.0062414022    -0.4178376406    -0.6226125827
   28      C      -5.6742545194    -0.2103150116     0.5824685399
   29      O      -2.9738766644    -0.6311057016    -1.8605781286
   30      C      -2.3078051663    -1.8952134227    -2.0554417097
   31      H       5.2123159274    -3.2835140096     0.6378795928
   32      H      -2.3584037464     2.0797185607     0.1327056237
   33      H      -2.9754209255    -0.0022263287     2.6456624572
   34      H      -5.4699820307     0.0824257533     2.7079683388
   35      H      -5.5480336525    -0.5392816334    -1.5532754322
   36      H      -6.7572942125    -0.1705694941     0.5957797631
   37      H      -1.8453217506    -1.8363331001    -3.0397339322
   38      H      -3.0401692316    -2.7091339530    -2.0443539999
   39      H      -1.5442539092    -2.0640177842    -1.2942437678
 ----------------------------------------------------------------

    9   -1109.8380104160      3.83e-06  Convergence criterion met
 Total energy in the final basis set =    -1109.8380104160
    5   -1109.8568951997      3.24e-06  Convergence criterion met
 Total energy in the final basis set =    -1109.8568951997

                    Orbital Energies (a.u.)
 --------------------------------------------------------------

 Alpha MOs
 -- Occupied --
-19.1834 -19.1527 -19.1320 -19.1271 -10.2841 -10.2841 -10.2719 -10.2474
-10.2438 -10.2147 -10.2126 -10.2115 -10.2068 -10.2057 -10.2000 -10.1969
-10.1957 -10.1955 -10.1947 -10.1942 -10.1915 -10.1884 -10.1851 -10.1845
-10.1841  -1.1096  -1.0677  -1.0654  -1.0620  -0.8946  -0.8827  -0.8678
 -0.8125  -0.7910  -0.7762  -0.7715  -0.7662  -0.7499  -0.6976  -0.6902
 -0.6718  -0.6491  -0.6416  -0.6236  -0.6034  -0.5845  -0.5694  -0.5620
 -0.5341  -0.5192  -0.5112  -0.5079  -0.4969  -0.4876  -0.4838  -0.4749
 -0.4683  -0.4605  -0.4576  -0.4513  -0.4487  -0.4458  -0.4435  -0.4370
 -0.4255  -0.4187  -0.4139  -0.3993  -0.3902  -0.3875  -0.3790  -0.3786
 -0.3757  -0.3674  -0.3663  -0.3586  -0.3449  -0.2980  -0.2908  -0.2883
 -0.2775  -0.2763  -0.2741  -0.2645  -0.2541  -0.2500

          Ground-State Mulliken Net Atomic Charges

     Atom                 Charge (a.u.)
  ----------------------------------------
      1 C                     0.102869
      2 C                    -0.419661
      3 C                    -0.433582
      4 C                     0.135577
      5 C                    -0.142436
      6 C                     0.007278
      7 C                    -0.209019
      8 C                     0.573069
      9 C                     0.343151
     10 C                    -0.639110
     11 C                    -0.138252
     12 C                    -0.265538
     13 C                    -0.264502
     14 C                     0.001267
     15 O                    -0.245078
     16 O                    -0.291708
     17 H                     0.199641
     18 H                     0.191779
     19 H                     0.188151
     20 O                     0.059157
     21 H                     0.255199
     22 H                     0.225730
     23 C                    -0.050779
     24 C                    -0.291979
     25 C                     0.138190
     26 C                    -0.277270
     27 C                     0.191237
     28 C                    -0.387898
     29 O                    -0.165997
     30 C                    -0.269783
     31 H                     0.228534
     32 H                     0.229265
     33 H                     0.216793
     34 H                     0.228556
     35 H                     0.240624
     36 H                     0.212095
     37 H                     0.181541
     38 H                     0.153633
     39 H                     0.189244
  ----------------------------------------
  Sum of atomic charges =    -0.000015

                    Cartesian Multipole Moments
 -----------------------------------------------------------------
    Charge (ESU x 10^10)
                -0.0001
    Dipole Moment (Debye)
         X      -1.5882      Y      -0.6722      Z       1.4529
       Tot       2.2550
    Quadrupole Moments (Debye-Ang)
        XX    -113.7820     XY     -19.0421     YY    -140.9394
        XZ      -0.6933     YZ       4.4466     ZZ    -141.7473

 Total job time:  142.30s(wall), 1079.57s(cpu)
        *  Thank you very much for using Q-Chem.  Have a nice day.  *
