 Q-Chem 5.4, Q-Chem, Inc., Pleasanton, CA (2021)
 Q-Chem 5.4.0 for Intel X86 EM64T Linux

User input:
--------------------------------------------------------------
$molecule
0 1
C                 -0.3000430000      1.1453250000     -0.2707540000
C                 -1.4039390000      0.2855180000     -0.7598580000
C                 -1.3552510000     -1.0503600000     -0.6760220000
C                 -0.1856410000     -1.7426170000     -0.0852770000
C                  0.9325230000     -0.9001620000      0.4111170000
C                  0.8904020000      0.4443030000      0.3300060000
O                 -0.3480580000      2.3551260000     -0.3481690000
O                 -0.1311690000     -2.9570220000     -0.0040300000
C                  1.9632970000      1.2588310000      0.8059460000
N                  2.8389110000      1.9025040000      1.1952550000
H                 -2.2480400000      0.8147650000     -1.1874750000
H                 -2.1571900000     -1.6880830000     -1.0306150000
H                  1.7773160000     -1.4274580000      0.8389170000
$end

$rem
BASIS  =  6-311++G(d,p)
GUI  =  2
JOB_TYPE  =  SP
METHOD  =  B3LYP
SCF_CONVERGENCE  = 8
SOLVENT_METHOD = sm12
$end

$smx
solvent dimethylformamide
charges CM5
$end

--------------------------------------------------------------

             Standard Nuclear Orientation (Angstroms)
    I     Atom           X                Y                Z
 ----------------------------------------------------------------
    1      C      -0.3000430000     1.1453250000    -0.2707540000
    2      C      -1.4039390000     0.2855180000    -0.7598580000
    3      C      -1.3552510000    -1.0503600000    -0.6760220000
    4      C      -0.1856410000    -1.7426170000    -0.0852770000
    5      C       0.9325230000    -0.9001620000     0.4111170000
    6      C       0.8904020000     0.4443030000     0.3300060000
    7      O      -0.3480580000     2.3551260000    -0.3481690000
    8      O      -0.1311690000    -2.9570220000    -0.0040300000
    9      C       1.9632970000     1.2588310000     0.8059460000
   10      N       2.8389110000     1.9025040000     1.1952550000
   11      H      -2.2480400000     0.8147650000    -1.1874750000
   12      H      -2.1571900000    -1.6880830000    -1.0306150000
   13      H       1.7773160000    -1.4274580000     0.8389170000
 ----------------------------------------------------------------

   16    -473.8156390327      1.33e-09  Convergence criterion met
 Total energy in the final basis set =     -473.8332507637

                    Orbital Energies (a.u.)
 --------------------------------------------------------------

 Alpha MOs
 -- Occupied --
-19.1556 -19.1539 -14.3481 -10.3060 -10.2994 -10.2629 -10.2475 -10.2435
-10.2214 -10.2201  -1.0895  -1.0834  -0.9475  -0.8882  -0.8233  -0.7377
 -0.6816  -0.6380  -0.5650  -0.5421  -0.5151  -0.4866  -0.4715  -0.4644
 -0.4467  -0.4361  -0.4253  -0.4033  -0.4029  -0.3763  -0.3248  -0.3138
 -0.3049  -0.2948

          Ground-State Mulliken Net Atomic Charges

     Atom                 Charge (a.u.)
  ----------------------------------------
      1 C                    -1.786153
      2 C                     0.915659
      3 C                     0.734594
      4 C                    -0.483301
      5 C                     0.333305
      6 C                     2.544275
      7 O                    -0.352036
      8 O                    -0.323231
      9 C                    -2.040470
     10 N                    -0.635909
     11 H                     0.358094
     12 H                     0.355859
     13 H                     0.379315
  ----------------------------------------
  Sum of atomic charges =     0.000000

                    Cartesian Multipole Moments
 -----------------------------------------------------------------
    Charge (ESU x 10^10)
                -0.0000
    Dipole Moment (Debye)
         X      -3.8879      Y      -3.1523      Z      -1.7166
       Tot       5.2914
    Quadrupole Moments (Debye-Ang)
        XX     -60.0111     XY      -8.1683     YY     -77.8089
        XZ      -1.6097     YZ      -2.6452     ZZ     -55.7725

 Total job time:  104.38s(wall), 739.82s(cpu)
        *  Thank you very much for using Q-Chem.  Have a nice day.  *
