 Gaussian 16, Revision A.03,
 Gaussian 16:  ES64L-G16RevA.03 25-Dec-2016

 --------------------------------------
 #P UB3LYP/6-311++G(d,p) nosym opt freq
 --------------------------------------

 -------
 Radical
 -------
 Symbolic Z-matrix:
 Charge = -1 Multiplicity = 2

 SCF Done:  E(UB3LYP) =  -649.922195471     A.U. after   23 cycles
 Optimization completed.
    -- Stationary point found.
 Normal termination of Gaussian 16 at Mon Jan 15 16:59:09 2024.

 ----------------------------------------------------------------------
 #P Geom=AllCheck Guess=TCheck SCRF=Check GenChk UB3LYP/6-311++G(d,p) F
 req
 ----------------------------------------------------------------------

 Structure from the checkpoint file:  "281-rad.chk"
 -------
 Radical
 -------
 Charge = -1 Multiplicity = 2

                          Input orientation:
 ---------------------------------------------------------------------
 Center     Atomic      Atomic             Coordinates (Angstroms)
 Number     Number       Type             X           Y           Z
 ---------------------------------------------------------------------
      1          6           0        3.291722   -0.272764   -0.103839
      2          6           0        1.793205   -0.401826   -0.145466
      3          6           0        0.970310    0.752048    0.149885
      4          8           0        1.463291    1.872272    0.443706
      5          6           0       -0.496298    0.564264    0.093216
      6          6           0       -1.345056    1.650054    0.370724
      7          6           0       -2.723421    1.514510    0.327873
      8          6           0       -3.296463    0.268884    0.000970
      9          6           0       -2.483790   -0.814696   -0.276369
     10          6           0       -1.077767   -0.693828   -0.237174
     11          6           0       -0.227877   -1.829010   -0.527770
     12          8           0       -0.639415   -2.996563   -0.833562
     13          6           0        1.195984   -1.603013   -0.461298
     14          8           0        1.940784   -2.711097   -0.745415
     15          1           0        3.733562   -0.968197    0.619782
     16          1           0        3.556561    0.747983    0.174392
     17          1           0        3.741287   -0.506529   -1.076279
     18          1           0       -0.877355    2.595994    0.619315
     19          1           0       -3.362038    2.365521    0.545648
     20          1           0       -4.376904    0.161206   -0.033009
     21          1           0       -2.900411   -1.782914   -0.530299
     22          1           0        1.245648   -3.382171   -0.923454
 ---------------------------------------------------------------------

 SCF Done:  E(UB3LYP) =  -649.922195471     A.U. after    1 cycles

 Alpha  occ. eigenvalues --  -19.01458 -18.95191 -18.93900 -10.09098 -10.09042
 Alpha  occ. eigenvalues --  -10.08820 -10.05500 -10.05319 -10.04887 -10.04748
 Alpha  occ. eigenvalues --  -10.04689 -10.04540 -10.03566 -10.03414  -0.93344
 Alpha  occ. eigenvalues --   -0.86423  -0.86169  -0.73365  -0.67969  -0.63058
 Alpha  occ. eigenvalues --   -0.62667  -0.57070  -0.53337  -0.49298  -0.47025
 Alpha  occ. eigenvalues --   -0.44323  -0.41072  -0.37832  -0.35532  -0.33558
 Alpha  occ. eigenvalues --   -0.32812  -0.31064  -0.30295  -0.28685  -0.27825
 Alpha  occ. eigenvalues --   -0.27525  -0.26428  -0.25827  -0.25644  -0.23892
 Alpha  occ. eigenvalues --   -0.23031  -0.22070  -0.21344  -0.21057  -0.13893
 Alpha  occ. eigenvalues --   -0.13256  -0.12571  -0.10479  -0.09983  -0.01881
 Alpha virt. eigenvalues --    0.08444   0.09243   0.09755   0.10361   0.11444
 Alpha virt. eigenvalues --    0.11699   0.12370   0.13282   0.14068   0.14564
 Alpha virt. eigenvalues --    0.15980   0.16045   0.17614   0.18050   0.18309

  Beta  occ. eigenvalues --  -19.01417 -18.94528 -18.93322 -10.09002 -10.08957
  Beta  occ. eigenvalues --  -10.08557 -10.05495 -10.05219 -10.04847 -10.04733
  Beta  occ. eigenvalues --  -10.04713 -10.04408 -10.03481 -10.03421  -0.93154
  Beta  occ. eigenvalues --   -0.85435  -0.85047  -0.73138  -0.67577  -0.62814
  Beta  occ. eigenvalues --   -0.62487  -0.56738  -0.52653  -0.49139  -0.46718
  Beta  occ. eigenvalues --   -0.44087  -0.40916  -0.37603  -0.35234  -0.33431
  Beta  occ. eigenvalues --   -0.32705  -0.30267  -0.30245  -0.28305  -0.27457
  Beta  occ. eigenvalues --   -0.26785  -0.26278  -0.25540  -0.24823  -0.23782
  Beta  occ. eigenvalues --   -0.21919  -0.21280  -0.20845  -0.19705  -0.12582
  Beta  occ. eigenvalues --   -0.11975  -0.11816  -0.09928  -0.08879
  Beta virt. eigenvalues --    0.04688   0.08437   0.09766   0.09869   0.10354
  Beta virt. eigenvalues --    0.11711   0.12369   0.12486   0.13387   0.14059
  Beta virt. eigenvalues --    0.14569   0.16033   0.16071   0.17620   0.18181

 Mulliken charges and spin densities:
               1          2
     1  C   -0.297166  -0.002501
     2  C    1.441222   0.069211
     3  C   -0.919133   0.038116
     4  O   -0.380683   0.212112
     5  C    0.260659   0.092989
     6  C    0.155003  -0.011660
     7  C   -0.357369   0.079683
     8  C   -0.218917   0.002164
     9  C   -0.077510   0.068682
    10  C    0.518010  -0.000579
    11  C   -1.017446   0.146499
    12  O   -0.454809   0.243351
    13  C   -0.667207   0.057314
    14  O   -0.269217   0.013774
    15  H    0.141994   0.003187
    16  H    0.186734  -0.001595
    17  H    0.141729   0.003300
    18  H    0.152259   0.000379
    19  H    0.122206  -0.006081
    20  H    0.121630  -0.000757
    21  H    0.151405  -0.003694
    22  H    0.266606  -0.003896
 Sum of Mulliken charges =  -1.00000   1.00000

 Dipole moment (field-independent basis, Debye):
    X=             -1.7655    Y=              2.1617    Z=              0.7977  Tot=              2.9028
 Quadrupole moment (field-independent basis, Debye-Ang):
   XX=           -100.3567   YY=           -111.4853   ZZ=            -88.8922
   XY=             -5.0014   XZ=             -1.2800   YZ=             -6.4612

  Exact polarizability: 216.878 -10.478 187.172  -2.028  27.235  89.254
 Approx polarizability: 323.209   2.851 340.636   1.764  55.469 141.756

                      1                      2                      3
                      A                      A                      A
 Frequencies --     27.7394                82.3012               119.6084
 Red. masses --      1.0197                 6.0235                 4.1025
 Frc consts  --      0.0005                 0.0240                 0.0346
 IR Inten    --      0.0583                 5.9972                 0.0128

                      4                      5                      6
                      A                      A                      A
 Frequencies --    160.6383               174.2897               249.7654
 Red. masses --      5.6912                 7.2284                 4.1537
 Frc consts  --      0.0865                 0.1294                 0.1527
 IR Inten    --      0.0677                 1.4492                 3.2519

                      7                      8                      9
                      A                      A                      A
 Frequencies --    282.9490               295.1804               335.9064
 Red. masses --      3.6094                 4.7708                 5.6929
 Frc consts  --      0.1703                 0.2449                 0.3785
 IR Inten    --      3.5866                 0.1061                 8.2797

                     10                     11                     12
                      A                      A                      A
 Frequencies --    380.1166               413.6536               425.8521
 Red. masses --     10.2734                 5.8023                 7.1857
 Frc consts  --      0.8746                 0.5850                 0.7678
 IR Inten    --     10.7493                 0.0112                 6.1588

                     13                     14                     15
                      A                      A                      A
 Frequencies --    433.4039               447.5024               519.8008
 Red. masses --      8.0904                 3.6362                10.0386
 Frc consts  --      0.8954                 0.4290                 1.5981
 IR Inten    --      4.7076                 1.4189                 0.1741

                     16                     17                     18
                      A                      A                      A
 Frequencies --    533.8185               621.3975               672.1035
 Red. masses --      4.5109                 6.8851                 6.3518
 Frc consts  --      0.7574                 1.5664                 1.6905
 IR Inten    --      1.8782                12.6758                 3.2953

                     19                     20                     21
                      A                      A                      A
 Frequencies --    685.6517               697.9995               709.1269
 Red. masses --      4.4766                 3.7038                 5.6325
 Frc consts  --      1.2399                 1.0632                 1.6688
 IR Inten    --      4.8469                 9.7795                 2.2852

                     22                     23                     24
                      A                      A                      A
 Frequencies --    730.3572               750.8582               774.9373
 Red. masses --      1.1474                 2.8636                 2.1298
 Frc consts  --      0.3606                 0.9512                 0.7536
 IR Inten    --    136.6456                 0.3739                13.5190

                     25                     26                     27
                      A                      A                      A
 Frequencies --    854.3490               858.3928               943.7525
 Red. masses --      3.4857                 1.3725                 6.0055
 Frc consts  --      1.4990                 0.5959                 3.1515
 IR Inten    --     15.6341                 0.0238                24.9610

                     28                     29                     30
                      A                      A                      A
 Frequencies --    965.8082               975.8163              1001.7265
 Red. masses --      1.2896                 1.3049                 2.5941
 Frc consts  --      0.7088                 0.7321                 1.5337
 IR Inten    --      1.2405                 1.5905                 1.8511

                     31                     32                     33
                      A                      A                      A
 Frequencies --   1036.9372              1049.1327              1103.5256
 Red. masses --      2.0827                 1.4288                 2.9940
 Frc consts  --      1.3194                 0.9266                 2.1482
 IR Inten    --     24.1187                 0.0234               101.2562

                     34                     35                     36
                      A                      A                      A
 Frequencies --   1106.4311              1150.0901              1196.3491
 Red. masses --      2.0942                 1.3159                 2.3873
 Frc consts  --      1.5105                 1.0255                 2.0132
 IR Inten    --     10.6959                 1.0530                 7.6168

                     37                     38                     39
                      A                      A                      A
 Frequencies --   1208.9251              1254.0775              1287.8861
 Red. masses --      2.7283                 3.3065                 2.4319
 Frc consts  --      2.3493                 3.0639                 2.3765
 IR Inten    --     40.7558                47.2284                20.1113

                     40                     41                     42
                      A                      A                      A
 Frequencies --   1343.5616              1353.9683              1383.4083
 Red. masses --      2.2880                 5.0696                 1.3476
 Frc consts  --      2.4334                 5.4757                 1.5196
 IR Inten    --     38.7234                62.9625                25.7493

                     43                     44                     45
                      A                      A                      A
 Frequencies --   1428.1285              1462.3477              1470.4201
 Red. masses --      2.2752                 2.5536                 2.1150
 Frc consts  --      2.7341                 3.2174                 2.6942
 IR Inten    --    361.7580                51.0701                42.1538

                     46                     47                     48
                      A                      A                      A
 Frequencies --   1491.7909              1497.1507              1524.4620
 Red. masses --      1.0479                 1.5150                 5.9611
 Frc consts  --      1.3740                 2.0007                 8.1622
 IR Inten    --      5.1740                71.0421               451.4537

                     49                     50                     51
                      A                      A                      A
 Frequencies --   1539.5737              1578.5499              1621.0745
 Red. masses --      5.9340                 5.4718                 5.8500
 Frc consts  --      8.2870                 8.0334                 9.0576
 IR Inten    --     81.2659                13.3918                13.5977

                     52                     53                     54
                      A                      A                      A
 Frequencies --   1639.7976              2999.3470              3033.1460
 Red. masses --      6.2468                 1.0392                 1.0993
 Frc consts  --      9.8966                 5.5080                 5.9585
 IR Inten    --      7.6657               103.4544                43.9685

                     55                     56                     57
                      A                      A                      A
 Frequencies --   3110.0347              3131.9504              3151.4027
 Red. masses --      1.0964                 1.0845                 1.0910
 Frc consts  --      6.2483                 6.2677                 6.3836
 IR Inten    --      8.2476                16.1877                48.4795

                     58                     59                     60
                      A                      A                      A
 Frequencies --   3179.0913              3182.2157              3490.4901
 Red. masses --      1.0916                 1.0927                 1.0635
 Frc consts  --      6.4998                 6.5196                 7.6340
 IR Inten    --     14.8103                23.6671                89.0172

 - Thermochemistry -
 -------------------
 Temperature   298.150 Kelvin.  Pressure   1.00000 Atm.
 Atom     1 has atomic number  6 and mass  12.00000

 Molecular mass:   188.04734 amu.
 Principal axes and moments of inertia in atomic units:
                           1         2         3
     Eigenvalues --  1642.452652733.327874364.66031
           X            0.91277   0.40845  -0.00528
           Y           -0.39652   0.88286  -0.25164
           Z           -0.09812   0.23178   0.96781
 This molecule is an asymmetric top.
 Rotational symmetry number  1.
 Warning -- assumption of classical behavior for rotation
           may cause significant error
 Rotational temperatures (Kelvin)      0.05273     0.03169     0.01984
 Rotational constants (GHZ):           1.09881     0.66027     0.41349
 Zero-point vibrational energy     425452.3 (Joules/Mol)
                                  101.68554 (Kcal/Mol)
 Warning -- explicit consideration of  16 degrees of freedom as
           vibrations may cause significant error
 Vibrational temperatures:     39.91   118.41   172.09   231.12   250.76
          (Kelvin)            359.36   407.10   424.70   483.29   546.90
                              595.16   612.71   623.57   643.86   747.88
                              768.05   894.05   967.01   986.50  1004.27
                             1020.28  1050.82  1080.32  1114.96  1229.22
                             1235.04  1357.85  1389.58  1403.98  1441.26
                             1491.92  1509.47  1587.73  1591.91  1654.72
                             1721.28  1739.37  1804.34  1852.98  1933.09
                             1948.06  1990.42  2054.76  2103.99  2115.61
                             2146.35  2154.07  2193.36  2215.10  2271.18
                             2332.36  2359.30  4315.39  4364.02  4474.65
                             4506.18  4534.17  4574.00  4578.50  5022.04

 Zero-point correction=                           0.162046 (Hartree/Particle)
 Thermal correction to Energy=                    0.173501
 Thermal correction to Enthalpy=                  0.174445
 Thermal correction to Gibbs Free Energy=         0.123317
 Sum of electronic and zero-point Energies=           -649.760149
 Sum of electronic and thermal Energies=              -649.748694
 Sum of electronic and thermal Enthalpies=            -649.747750
 Sum of electronic and thermal Free Energies=         -649.798878

                     E (Thermal)             CV                S
                      KCal/Mol        Cal/Mol-Kelvin    Cal/Mol-Kelvin
 Total                  108.874             44.464            107.609
 Electronic               0.000              0.000              1.377
 Translational            0.889              2.981             41.600
 Rotational               0.889              2.981             31.350
 Vibrational            107.096             38.502             33.281
 Vibration     1          0.593              1.984              5.985
 Vibration     2          0.600              1.961              3.835
 Vibration     3          0.609              1.933              3.107
 Vibration     4          0.622              1.891              2.542
 Vibration     5          0.627              1.874              2.389
 Vibration     6          0.663              1.763              1.732
 Vibration     7          0.682              1.705              1.516
 Vibration     8          0.689              1.683              1.444
 Vibration     9          0.717              1.604              1.232
 Vibration    10          0.750              1.513              1.039
 Vibration    11          0.777              1.441              0.914
 Vibration    12          0.788              1.414              0.872
 Vibration    13          0.794              1.397              0.848
 Vibration    14          0.807              1.366              0.803
 Vibration    15          0.875              1.206              0.610
 Vibration    16          0.889              1.175              0.579

 Optimization completed.
    -- Stationary point found.
 Normal termination of Gaussian 16 at Mon Jan 15 17:23:21 2024.
