 Gaussian 16, Revision A.03,
 Gaussian 16:  ES64L-G16RevA.03 25-Dec-2016

 ----------------------------------------------------------------
 #P UB3LYP/6-311++G(d,p) SCRF=(PCM,Solvent=n,n-DiMethylFormamide)
 ----------------------------------------------------------------

 ------------------
 Radical PCM in DMF
 ------------------
 Symbolic Z-matrix:
 Charge = -1 Multiplicity = 2

                         Standard orientation:
 ---------------------------------------------------------------------
 Center     Atomic      Atomic             Coordinates (Angstroms)
 Number     Number       Type             X           Y           Z
 ---------------------------------------------------------------------
      1          6           0        3.033584   -1.372121   -0.000095
      2          6           0        1.700434   -0.674515   -0.000192
      3          6           0        0.484918   -1.460858   -0.000022
      4          8           0        0.498074   -2.719464    0.000106
      5          6           0       -0.795584   -0.719423   -0.000170
      6          6           0       -2.008113   -1.430841    0.000000
      7          6           0       -3.227709   -0.773055    0.000090
      8          6           0       -3.265308    0.635992    0.000002
      9          6           0       -2.086962    1.359181    0.000034
     10          6           0       -0.836027    0.704805   -0.000065
     11          6           0        0.397066    1.463011    0.000009
     12          8           0        0.477827    2.735619   -0.000013
     13          6           0        1.622993    0.701449    0.000059
     14          8           0        2.748325    1.474061    0.000127
     15          1           0        3.633737   -1.088958   -0.873085
     16          1           0        2.874233   -2.450992   -0.011115
     17          1           0        3.624657   -1.106864    0.884589
     18          1           0       -1.949531   -2.513390   -0.000088
     19          1           0       -4.153483   -1.340876    0.000101
     20          1           0       -4.220731    1.152973    0.000090
     21          1           0       -2.089586    2.443382   -0.000048
     22          1           0        2.371147    2.381248   -0.000100
 ---------------------------------------------------------------------

 SCF Done:  E(UB3LYP) =  -649.997342422     A.U. after   20 cycles

 The electronic state is 2-A.
 Alpha  occ. eigenvalues --  -19.14375 -19.08531 -19.07379 -10.22343 -10.22043
 Alpha  occ. eigenvalues --  -10.21983 -10.17432 -10.17273 -10.17239 -10.17160
 Alpha  occ. eigenvalues --  -10.17081 -10.16925 -10.16446 -10.15446  -1.06323
 Alpha  occ. eigenvalues --   -0.99951  -0.99523  -0.85817  -0.80678  -0.75452
 Alpha  occ. eigenvalues --   -0.75021  -0.69583  -0.65975  -0.61762  -0.59436
 Alpha  occ. eigenvalues --   -0.56939  -0.53607  -0.50397  -0.48227  -0.45925
 Alpha  occ. eigenvalues --   -0.45052  -0.43982  -0.42625  -0.41651  -0.40986
 Alpha  occ. eigenvalues --   -0.39968  -0.38999  -0.38676  -0.38170  -0.36360
 Alpha  occ. eigenvalues --   -0.36015  -0.34508  -0.34237  -0.33618  -0.26691
 Alpha  occ. eigenvalues --   -0.25958  -0.25754  -0.23985  -0.22787  -0.15066
 Alpha virt. eigenvalues --   -0.03206  -0.00823  -0.00517   0.00549   0.01298
 Alpha virt. eigenvalues --    0.02553   0.03001   0.03591   0.04471   0.05197
 Alpha virt. eigenvalues --    0.05271   0.05768   0.05899   0.06897   0.07223

  Beta  occ. eigenvalues --  -19.14325 -19.07904 -19.06837 -10.22209 -10.21899
  Beta  occ. eigenvalues --  -10.21744 -10.17417 -10.17269 -10.17128 -10.17074
  Beta  occ. eigenvalues --  -10.17031 -10.16951 -10.16365 -10.15453  -1.06108
  Beta  occ. eigenvalues --   -0.99005  -0.98459  -0.85583  -0.80296  -0.75206
  Beta  occ. eigenvalues --   -0.74830  -0.69199  -0.65315  -0.61579  -0.59142
  Beta  occ. eigenvalues --   -0.56699  -0.53432  -0.50158  -0.47921  -0.45785
  Beta  occ. eigenvalues --   -0.44953  -0.42984  -0.42542  -0.41174  -0.40655
  Beta  occ. eigenvalues --   -0.39201  -0.38863  -0.38003  -0.37656  -0.36243
  Beta  occ. eigenvalues --   -0.34455  -0.34362  -0.33460  -0.32666  -0.25400
  Beta  occ. eigenvalues --   -0.25046  -0.24719  -0.23470  -0.21856
  Beta virt. eigenvalues --   -0.08522  -0.02458  -0.00485   0.00268   0.00554
  Beta virt. eigenvalues --    0.01318   0.02560   0.03013   0.03687   0.04506
  Beta virt. eigenvalues --    0.05280   0.05707   0.05777   0.06968   0.07236

 Mulliken charges and spin densities:
               1          2
     1  C   -0.254334  -0.002505
     2  C    1.240650   0.063125
     3  C   -0.730954   0.068917
     4  O   -0.471680   0.197613
     5  C    0.153531   0.072471
     6  C    0.168555   0.000715
     7  C   -0.428262   0.070832
     8  C   -0.301131  -0.000494
     9  C   -0.049232   0.076041
    10  C    0.418640  -0.015223
    11  C   -0.795045   0.170826
    12  O   -0.524907   0.228550
    13  C   -0.615164   0.061272
    14  O   -0.296154   0.016027
    15  H    0.165312   0.003125
    16  H    0.176473  -0.001326
    17  H    0.166234   0.003226
    18  H    0.159173  -0.000077
    19  H    0.181616  -0.005185
    20  H    0.181974  -0.000565
    21  H    0.162804  -0.004035
    22  H    0.291903  -0.003329
 Sum of Mulliken charges =  -1.00000   1.00000

 Dipole moment (field-independent basis, Debye):
    X=             -3.2116    Y=              0.5596    Z=              0.0002  Tot=              3.2600
 Quadrupole moment (field-independent basis, Debye-Ang):
   XX=            -88.7808   YY=           -116.4748   ZZ=            -86.9038
   XY=             -0.2013   XZ=              0.0007   YZ=             -0.0008

 Normal termination of Gaussian 16 at Sun Jan 21 08:37:59 2024.
