 Gaussian 16, Revision A.03,
 Gaussian 16:  ES64L-G16RevA.03 25-Dec-2016

 ----------------------------------------------------------------
 #P UB3LYP/6-311++G(d,p) SCRF=(PCM,Solvent=n,n-DiMethylFormamide)
 ----------------------------------------------------------------

 ------------------
 Quinone PCM in DMF
 ------------------
 Symbolic Z-matrix:
 Charge =  0 Multiplicity = 1

                         Standard orientation:
 ---------------------------------------------------------------------
 Center     Atomic      Atomic             Coordinates (Angstroms)
 Number     Number       Type             X           Y           Z
 ---------------------------------------------------------------------
      1          8           0        0.000008    2.779664    0.644339
      2          6           0        0.000008    1.591499    0.373286
      3          6           0       -1.279845    0.853999    0.137707
      4          6           0       -2.432770    1.596402   -0.151044
      5          6           0       -3.619295    0.956620   -0.487912
      6          6           0       -3.672213   -0.437523   -0.544480
      7          6           0       -2.544950   -1.195365   -0.236459
      8          6           0       -1.362508   -0.544373    0.098888
      9         16           0       -0.000004   -1.586413    0.695633
     10          8           0        0.000012   -2.896269   -0.057259
     11          6           0        1.362498   -0.544375    0.098897
     12          6           0        2.544940   -1.195372   -0.236454
     13          6           0        3.672196   -0.437531   -0.544478
     14          6           0        3.619296    0.956620   -0.487916
     15          6           0        2.432774    1.596402   -0.151047
     16          6           0        1.279854    0.854003    0.137711
     17          1           0       -2.365260    2.677006   -0.121162
     18          1           0       -4.501943    1.542385   -0.716494
     19          1           0       -4.592491   -0.936260   -0.826357
     20          1           0       -2.567593   -2.278405   -0.269450
     21          1           0        2.567565   -2.278411   -0.269442
     22          1           0        4.592478   -0.936261   -0.826361
     23          1           0        4.501963    1.542350   -0.716510
     24          1           0        2.365282    2.677008   -0.121196
 ---------------------------------------------------------------------

 SCF Done:  E(UB3LYP) =  -1048.99746359     A.U. after   16 cycles

 The electronic state is 1-A.
 Alpha  occ. eigenvalues --  -88.98012 -19.13493 -19.11553 -10.29048 -10.23328
 Alpha  occ. eigenvalues --  -10.23327 -10.21732 -10.21732 -10.20514 -10.20514
 Alpha  occ. eigenvalues --  -10.20412 -10.20412 -10.20361 -10.20361 -10.19909
 Alpha  occ. eigenvalues --  -10.19909  -8.05673  -6.01958  -6.01815  -6.01248
 Alpha  occ. eigenvalues --   -1.07121  -1.04609  -0.90314  -0.89008  -0.82051
 Alpha  occ. eigenvalues --   -0.79349  -0.78378  -0.77691  -0.72108  -0.67842
 Alpha  occ. eigenvalues --   -0.64573  -0.62632  -0.61300  -0.57548  -0.56275
 Alpha  occ. eigenvalues --   -0.51790  -0.49517  -0.49463  -0.48862  -0.46742
 Alpha  occ. eigenvalues --   -0.46209  -0.45990  -0.45357  -0.45049  -0.44387
 Alpha  occ. eigenvalues --   -0.42300  -0.40001  -0.39958  -0.38365  -0.37992
 Alpha  occ. eigenvalues --   -0.37866  -0.37721  -0.31532  -0.29993  -0.28894
 Alpha  occ. eigenvalues --   -0.28555  -0.28461  -0.27737  -0.25663
 Alpha virt. eigenvalues --   -0.10279  -0.05497  -0.05151  -0.03416  -0.00574
 Alpha virt. eigenvalues --    0.00103   0.00476   0.01424   0.01718   0.02108
 Alpha virt. eigenvalues --    0.02268   0.02676   0.03230   0.03893   0.04320

  Beta  occ. eigenvalues --  -88.98012 -19.13493 -19.11553 -10.29048 -10.23328
  Beta  occ. eigenvalues --  -10.23327 -10.21732 -10.21732 -10.20514 -10.20514
  Beta  occ. eigenvalues --  -10.20412 -10.20412 -10.20361 -10.20361 -10.19909
  Beta  occ. eigenvalues --  -10.19909  -8.05673  -6.01958  -6.01815  -6.01248
  Beta  occ. eigenvalues --   -1.07121  -1.04609  -0.90314  -0.89008  -0.82051
  Beta  occ. eigenvalues --   -0.79349  -0.78378  -0.77691  -0.72108  -0.67842
  Beta  occ. eigenvalues --   -0.64573  -0.62632  -0.61300  -0.57548  -0.56275
  Beta  occ. eigenvalues --   -0.51790  -0.49517  -0.49463  -0.48862  -0.46742
  Beta  occ. eigenvalues --   -0.46209  -0.45990  -0.45357  -0.45049  -0.44387
  Beta  occ. eigenvalues --   -0.42300  -0.40001  -0.39958  -0.38365  -0.37992
  Beta  occ. eigenvalues --   -0.37866  -0.37721  -0.31532  -0.29993  -0.28894
  Beta  occ. eigenvalues --   -0.28555  -0.28461  -0.27737  -0.25663
  Beta virt. eigenvalues --   -0.10279  -0.05497  -0.05151  -0.03416  -0.00574
  Beta virt. eigenvalues --    0.00103   0.00476   0.01424   0.01718   0.02108
  Beta virt. eigenvalues --    0.02268   0.02676   0.03230   0.03893   0.04320

 Mulliken charges and spin densities:
               1          2
     1  O   -0.265887   0.000000
     2  C   -0.491789   0.000000
     3  C    1.441771   0.000000
     4  C    0.268415   0.000000
     5  C   -0.644561   0.000000
     6  C   -0.101460  -0.000000
     7  C   -0.105352  -0.000000
     8  C   -1.188622  -0.000000
     9  S    0.182800   0.000000
    10  O   -0.483800   0.000000
    11  C   -1.188671  -0.000000
    12  C   -0.105315   0.000000
    13  C   -0.101433   0.000000
    14  C   -0.644579   0.000000
    15  C    0.268430   0.000000
    16  C    1.441740   0.000000
    17  H    0.207730   0.000000
    18  H    0.207126  -0.000000
    19  H    0.215912  -0.000000
    20  H    0.228387  -0.000000
    21  H    0.228387  -0.000000
    22  H    0.215913  -0.000000
    23  H    0.207125  -0.000000
    24  H    0.207731   0.000000
 Sum of Mulliken charges =  -0.00000   0.00000

 Dipole moment (field-independent basis, Debye):
    X=             -0.0000    Y=              1.4164    Z=             -0.9890  Tot=              1.7276
 Quadrupole moment (field-independent basis, Debye-Ang):
   XX=            -66.5912   YY=           -116.4792   ZZ=           -102.2897
   XY=              0.0002   XZ=             -0.0001   YZ=             -5.5064

 Normal termination of Gaussian 16 at Sat Jan 13 19:19:46 2024.
