 Gaussian 16, Revision A.03,
 Gaussian 16:  ES64L-G16RevA.03 25-Dec-2016

 --------------------------------------
 #P UB3LYP/6-311++G(d,p) nosym opt freq
 --------------------------------------

 -------
 Radical
 -------
 Symbolic Z-matrix:
 Charge = -1 Multiplicity = 2

 SCF Done:  E(UB3LYP) =  -837.519012130     A.U. after   21 cycles
 SCF Done:  E(UB3LYP) =  -837.530530398     A.U. after   19 cycles
 SCF Done:  E(UB3LYP) =  -837.531248274     A.U. after   16 cycles
 SCF Done:  E(UB3LYP) =  -837.530666961     A.U. after   16 cycles
 SCF Done:  E(UB3LYP) =  -837.531430018     A.U. after   15 cycles
 SCF Done:  E(UB3LYP) =  -837.531479556     A.U. after   16 cycles
 SCF Done:  E(UB3LYP) =  -837.531468225     A.U. after   15 cycles
 SCF Done:  E(UB3LYP) =  -837.531489478     A.U. after   16 cycles
 SCF Done:  E(UB3LYP) =  -837.531500491     A.U. after   16 cycles
 SCF Done:  E(UB3LYP) =  -837.531505098     A.U. after   14 cycles
 SCF Done:  E(UB3LYP) =  -837.531509029     A.U. after   14 cycles
 SCF Done:  E(UB3LYP) =  -837.531510329     A.U. after   13 cycles
 SCF Done:  E(UB3LYP) =  -837.531511198     A.U. after   14 cycles
 SCF Done:  E(UB3LYP) =  -837.531512072     A.U. after   14 cycles
 SCF Done:  E(UB3LYP) =  -837.531572002     A.U. after   15 cycles
 SCF Done:  E(UB3LYP) =  -837.531572184     A.U. after   12 cycles
 SCF Done:  E(UB3LYP) =  -837.531572350     A.U. after   13 cycles
 SCF Done:  E(UB3LYP) =  -837.531572446     A.U. after   12 cycles
 Optimization completed.
    -- Stationary point found.
 Normal termination of Gaussian 16 at Wed Dec 20 02:44:55 2023.

 ----------------------------------------------------------------------
 #P Geom=AllCheck Guess=TCheck SCRF=Check GenChk UB3LYP/6-311++G(d,p) F
 req
 ----------------------------------------------------------------------

 Structure from the checkpoint file:  "098-rad.chk"
 -------
 Radical
 -------
 Charge = -1 Multiplicity = 2

                          Input orientation:
 ---------------------------------------------------------------------
 Center     Atomic      Atomic             Coordinates (Angstroms)
 Number     Number       Type             X           Y           Z
 ---------------------------------------------------------------------
      1          6           0        1.310625    4.214769    5.160650
      2          6           0        1.811902    3.965608    3.824348
      3          6           0        1.602326    2.802851    3.118265
      4          6           0        0.883145    1.676712    3.722257
      5          6           0        0.360721    1.936465    5.048687
      6          6           0        0.514046    3.123227    5.726544
      7          8           0        1.595350    5.275378    5.769718
      8          8           0        0.747671    0.555586    3.179120
      9          1           0        2.382171    4.775178    3.384012
     10          6           0       -0.129085    3.222567    7.061953
     11          8           0       -0.253122    2.306307    7.852831
     12          8           0       -0.637116    4.452442    7.314166
     13          6           0       -1.235522    4.625335    8.598465
     14          1           0       -1.551987    5.667237    8.634045
     15          1           0       -0.514660    4.421443    9.393711
     16          1           0       -2.094055    3.960928    8.726402
     17          6           0        2.081887    2.702612    1.718919
     18          8           0        3.275514    3.364505    1.541918
     19          8           0        1.529488    2.155595    0.793469
     20          6           0        3.765881    3.386880    0.201269
     21          1           0       -0.187329    1.121844    5.509448
     22          1           0        4.705709    3.937538    0.240389
     23          1           0        3.060675    3.888056   -0.466994
     24          1           0        3.934525    2.373477   -0.170571
 ---------------------------------------------------------------------

 SCF Done:  E(UB3LYP) =  -837.531572446     A.U. after    2 cycles

 Alpha  occ. eigenvalues --  -19.05658 -19.05507 -18.99624 -18.99622 -18.95371
 Alpha  occ. eigenvalues --  -18.95285 -10.18718 -10.18610 -10.12934 -10.12662
 Alpha  occ. eigenvalues --  -10.10554 -10.10442 -10.06389 -10.06301 -10.05507
 Alpha  occ. eigenvalues --  -10.05393  -0.99659  -0.99417  -0.90684  -0.90554
 Alpha  occ. eigenvalues --   -0.87931  -0.87666  -0.71673  -0.67073  -0.63308
 Alpha  occ. eigenvalues --   -0.61328  -0.56989  -0.53073  -0.47713  -0.46658
 Alpha  occ. eigenvalues --   -0.44813  -0.40548  -0.38537  -0.38067  -0.37826
 Alpha  occ. eigenvalues --   -0.37290  -0.36245  -0.34623  -0.33315  -0.32472
 Alpha  occ. eigenvalues --   -0.31051  -0.30237  -0.28815  -0.28026  -0.27821
 Alpha  occ. eigenvalues --   -0.27200  -0.25776  -0.25365  -0.24814  -0.24703
 Alpha  occ. eigenvalues --   -0.20013  -0.19868  -0.17658  -0.17191  -0.16099
 Alpha  occ. eigenvalues --   -0.14659  -0.11700  -0.11019  -0.04419
 Alpha virt. eigenvalues --    0.06054   0.07322   0.07614   0.10790   0.10949
 Alpha virt. eigenvalues --    0.11055   0.11446   0.11732   0.12109   0.12779
 Alpha virt. eigenvalues --    0.13352   0.13758   0.14964   0.16484   0.16563

  Beta  occ. eigenvalues --  -19.05656 -19.05500 -18.99617 -18.99599 -18.94625
  Beta  occ. eigenvalues --  -18.94530 -10.18714 -10.18609 -10.12934 -10.12662
  Beta  occ. eigenvalues --  -10.10500 -10.10403 -10.06325 -10.06254 -10.05303
  Beta  occ. eigenvalues --  -10.05181  -0.99642  -0.99400  -0.90641  -0.90537
  Beta  occ. eigenvalues --   -0.86678  -0.86371  -0.71105  -0.66891  -0.63225
  Beta  occ. eigenvalues --   -0.61177  -0.56038  -0.52813  -0.47473  -0.46440
  Beta  occ. eigenvalues --   -0.44723  -0.40436  -0.38454  -0.37932  -0.37643
  Beta  occ. eigenvalues --   -0.37225  -0.36175  -0.34500  -0.33128  -0.32333
  Beta  occ. eigenvalues --   -0.30872  -0.29764  -0.28668  -0.27356  -0.27231
  Beta  occ. eigenvalues --   -0.26076  -0.25669  -0.25103  -0.24369  -0.22204
  Beta  occ. eigenvalues --   -0.19953  -0.19816  -0.17438  -0.17043  -0.13863
  Beta  occ. eigenvalues --   -0.12660  -0.10992  -0.10327
  Beta virt. eigenvalues --    0.02767   0.07150   0.07345   0.07670   0.10797
  Beta virt. eigenvalues --    0.10983   0.11060   0.11459   0.11745   0.12334
  Beta virt. eigenvalues --    0.12969   0.13777   0.14608   0.14978   0.16529

 Mulliken charges and spin densities:
               1          2
     1  C   -1.125158   0.036570
     2  C    0.117824   0.146085
     3  C    0.948778   0.025979
     4  C   -1.206757   0.035959
     5  C   -0.012910   0.144170
     6  C    1.131985   0.037392
     7  O   -0.354241   0.273056
     8  O   -0.352361   0.276613
     9  H    0.180945  -0.011306
    10  C   -0.268309   0.006832
    11  O   -0.276717   0.001926
    12  O   -0.032953   0.001388
    13  C   -0.255499   0.000082
    14  H    0.141670   0.000235
    15  H    0.170563  -0.000021
    16  H    0.155194   0.000050
    17  C   -0.038730   0.030365
    18  O   -0.081458  -0.001219
    19  O   -0.244826   0.007847
    20  C   -0.244973  -0.000329
    21  H    0.185615  -0.011775
    22  H    0.135398   0.000144
    23  H    0.162449  -0.000116
    24  H    0.164472   0.000073
 Sum of Mulliken charges =  -1.00000   1.00000

 Dipole moment (field-independent basis, Debye):
    X=             -4.6049    Y=            -11.7559    Z=            -21.2800  Tot=             24.7436
 Quadrupole moment (field-independent basis, Debye-Ang):
   XX=            -97.6817   YY=           -148.2089   ZZ=           -210.7414
   XY=            -17.7933   XZ=            -25.6301   YZ=            -63.3929

  Exact polarizability: 124.735  16.476 165.438 -48.311  29.788 213.064
 Approx polarizability: 174.704  41.780 299.920 -31.327  57.001 275.743

                      1                      2                      3
                      A                      A                      A
 Frequencies --     27.8485                32.2192                42.8087
 Red. masses --      6.1823                 6.2436                 6.9547
 Frc consts  --      0.0028                 0.0038                 0.0075
 IR Inten    --      4.5348                 1.6304                 2.9073

                      4                      5                      6
                      A                      A                      A
 Frequencies --     87.2462               107.1119               120.1532
 Red. masses --      3.5092                 3.4560                 3.4675
 Frc consts  --      0.0157                 0.0234                 0.0295
 IR Inten    --      3.5737                 0.9752                 0.5465

                      7                      8                      9
                      A                      A                      A
 Frequencies --    140.2996               143.4653               149.2079
 Red. masses --      2.0548                 1.2210                 1.9857
 Frc consts  --      0.0238                 0.0148                 0.0260
 IR Inten    --      4.5334                 0.0922                 2.0164

                     10                     11                     12
                      A                      A                      A
 Frequencies --    207.0816               210.8559               241.3589
 Red. masses --      5.4817                 5.5694                 8.1898
 Frc consts  --      0.1385                 0.1459                 0.2811
 IR Inten    --      5.5487                 4.5707                 0.1940

                     13                     14                     15
                      A                      A                      A
 Frequencies --    283.2732               293.3491               331.7878
 Red. masses --      5.9004                 6.1063                 7.5877
 Frc consts  --      0.2790                 0.3096                 0.4921
 IR Inten    --      5.9229                 2.9577                 9.0832

                     16                     17                     18
                      A                      A                      A
 Frequencies --    343.0085               369.6460               452.0725
 Red. masses --      5.7760                 5.6746                 4.1473
 Frc consts  --      0.4004                 0.4568                 0.4994
 IR Inten    --      3.1771                16.3502                 1.2505

                     19                     20                     21
                      A                      A                      A
 Frequencies --    472.8734               487.7934               523.8912
 Red. masses --      9.9105                12.4853                 7.8795
 Frc consts  --      1.3057                 1.7503                 1.2742
 IR Inten    --      0.3115                 0.4180                 4.1942

                     22                     23                     24
                      A                      A                      A
 Frequencies --    586.2787               645.4025               710.9927
 Red. masses --      5.1268                 7.1063                 6.4548
 Frc consts  --      1.0382                 1.7440                 1.9225
 IR Inten    --      4.1354                 4.2983                 2.1398

                     25                     26                     27
                      A                      A                      A
 Frequencies --    721.1662               766.5563               783.0746
 Red. masses --      6.0101                 3.8851                 5.8186
 Frc consts  --      1.8416                 1.3450                 2.1022
 IR Inten    --      3.3578                 8.7987                 9.1635

                     28                     29                     30
                      A                      A                      A
 Frequencies --    803.0089               815.6625               866.3918
 Red. masses --      6.0106                 9.4490                 4.3050
 Frc consts  --      2.2836                 3.7039                 1.9039
 IR Inten    --     26.4031                31.3720                26.2949

                     31                     32                     33
                      A                      A                      A
 Frequencies --    890.3118               915.5666               933.2080
 Red. masses --      1.7197                 1.5548                 6.5731
 Frc consts  --      0.8031                 0.7679                 3.3727
 IR Inten    --      3.8729                23.1817                43.5366

                     34                     35                     36
                      A                      A                      A
 Frequencies --    996.5776              1074.2125              1091.2738
 Red. masses --      4.7536                 8.7541                 4.4707
 Frc consts  --      2.7816                 5.9517                 3.1369
 IR Inten    --     10.1891                19.9863               172.4480

                     37                     38                     39
                      A                      A                      A
 Frequencies --   1131.8513              1167.7667              1169.9848
 Red. masses --      9.4147                 1.2874                 1.2867
 Frc consts  --      7.1062                 1.0344                 1.0377
 IR Inten    --    793.3599                 1.3409                 1.7153

                     40                     41                     42
                      A                      A                      A
 Frequencies --   1197.2027              1205.8677              1215.8235
 Red. masses --      1.7882                 1.6182                 2.4835
 Frc consts  --      1.5101                 1.3864                 2.1630
 IR Inten    --    182.5276                23.8562                91.0318

                     43                     44                     45
                      A                      A                      A
 Frequencies --   1238.2369              1255.7674              1323.1559
 Red. masses --      1.8049                 2.9618                 3.1122
 Frc consts  --      1.6305                 2.7518                 3.2103
 IR Inten    --    226.7479               241.5070                 8.2412

                     46                     47                     48
                      A                      A                      A
 Frequencies --   1418.3471              1461.3810              1462.8218
 Red. masses --      6.6325                 1.1890                 1.2056
 Frc consts  --      7.8613                 1.4961                 1.5199
 IR Inten    --     16.1958                16.5675                 0.7078

                     49                     50                     51
                      A                      A                      A
 Frequencies --   1477.6394              1478.7148              1491.0008
 Red. masses --      1.0463                 1.0469                 3.0179
 Frc consts  --      1.3460                 1.3488                 3.9528
 IR Inten    --      6.3446                 5.4732               280.8225

                     52                     53                     54
                      A                      A                      A
 Frequencies --   1498.1027              1501.0147              1508.3343
 Red. masses --      1.1303                 1.1474                 7.9698
 Frc consts  --      1.4947                 1.5231                10.6830
 IR Inten    --     28.2114                 5.8800                11.7774

                     55                     56                     57
                      A                      A                      A
 Frequencies --   1533.7861              1632.2608              1725.6310
 Red. masses --     11.0287                 7.6446                11.4661
 Frc consts  --     15.2864                12.0000                20.1169
 IR Inten    --    431.5271                40.7897               394.9864

                     58                     59                     60
                      A                      A                      A
 Frequencies --   1766.5736              3027.4535              3028.4978
 Red. masses --     11.9579                 1.0301                 1.0306
 Frc consts  --     21.9871                 5.5626                 5.5690
 IR Inten    --    387.3504                99.9323                57.5277

                     61                     62                     63
                      A                      A                      A
 Frequencies --   3089.5448              3090.4337              3123.4168
 Red. masses --      1.1052                 1.1052                 1.1047
 Frc consts  --      6.2156                 6.2191                 6.3495
 IR Inten    --     33.5766                33.9217                28.0263

                     64                     65                     66
                      A                      A                      A
 Frequencies --   3128.5955              3176.7725              3183.5490
 Red. masses --      1.1042                 1.0893                 1.0895
 Frc consts  --      6.3678                 6.4772                 6.5058
 IR Inten    --     27.0039                 6.5812                 3.9137

 - Thermochemistry -
 -------------------
 Temperature   298.150 Kelvin.  Pressure   1.00000 Atm.
 Atom     1 has atomic number  6 and mass  12.00000

 Molecular mass:   224.03209 amu.
 Principal axes and moments of inertia in atomic units:
                           1         2         3
     Eigenvalues --  1403.545126824.071027929.84329
           X           -0.41976   0.39378   0.81776
           Y            0.15687   0.91890  -0.36196
           Z            0.89397   0.02366   0.44749
 This molecule is an asymmetric top.
 Rotational symmetry number  1.
 Warning -- assumption of classical behavior for rotation
           may cause significant error
 Rotational temperatures (Kelvin)      0.06171     0.01269     0.01092
 Rotational constants (GHZ):           1.28584     0.26447     0.22759
 Zero-point vibrational energy     438889.3 (Joules/Mol)
                                  104.89707 (Kcal/Mol)
 Warning -- explicit consideration of  22 degrees of freedom as
           vibrations may cause significant error
 Vibrational temperatures:     40.07    46.36    61.59   125.53   154.11
          (Kelvin)            172.87   201.86   206.41   214.68   297.94
                              303.37   347.26   407.57   422.06   477.37
                              493.51   531.84   650.43   680.36   701.83
                              753.76   843.52   928.59  1022.96  1037.60
                             1102.90  1126.67  1155.35  1173.56  1246.54
                             1280.96  1317.30  1342.68  1433.85  1545.55
                             1570.10  1628.48  1680.16  1683.35  1722.51
                             1734.97  1749.30  1781.55  1806.77  1903.73
                             2040.69  2102.60  2104.67  2125.99  2127.54
                             2145.22  2155.44  2159.63  2170.16  2206.78
                             2348.46  2482.80  2541.71  4355.83  4357.33
                             4445.17  4446.44  4493.90  4501.35  4570.67
                             4580.42

 Zero-point correction=                           0.167164 (Hartree/Particle)
 Thermal correction to Energy=                    0.182593
 Thermal correction to Enthalpy=                  0.183537
 Thermal correction to Gibbs Free Energy=         0.121700
 Sum of electronic and zero-point Energies=           -837.364408
 Sum of electronic and thermal Energies=              -837.348980
 Sum of electronic and thermal Enthalpies=            -837.348035
 Sum of electronic and thermal Free Energies=         -837.409873

                     E (Thermal)             CV                S
                      KCal/Mol        Cal/Mol-Kelvin    Cal/Mol-Kelvin
 Total                  114.579             54.096            130.148
 Electronic               0.000              0.000              1.377
 Translational            0.889              2.981             42.122
 Rotational               0.889              2.981             32.696
 Vibrational            112.801             48.134             53.952
 Vibration     1          0.593              1.984              5.977
 Vibration     2          0.594              1.983              5.688
 Vibration     3          0.595              1.980              5.125
 Vibration     4          0.601              1.958              3.721
 Vibration     5          0.606              1.944              3.321
 Vibration     6          0.609              1.932              3.098
 Vibration     7          0.615              1.913              2.800
 Vibration     8          0.616              1.910              2.757
 Vibration     9          0.618              1.904              2.682
 Vibration    10          0.641              1.830              2.069
 Vibration    11          0.643              1.824              2.036
 Vibration    12          0.658              1.777              1.793
 Vibration    13          0.682              1.705              1.514
 Vibration    14          0.688              1.686              1.455
 Vibration    15          0.714              1.612              1.251
 Vibration    16          0.722              1.589              1.198
 Vibration    17          0.742              1.535              1.081
 Vibration    18          0.811              1.356              0.790
 Vibration    19          0.830              1.310              0.730
 Vibration    20          0.844              1.277              0.689
 Vibration    21          0.879              1.197              0.601
 Vibration    22          0.943              1.061              0.474

                           ! Non-Optimized Parameters !
 Normal termination of Gaussian 16 at Wed Dec 20 03:20:07 2023.
