 Gaussian 16, Revision A.03,
 Gaussian 16:  ES64L-G16RevA.03 25-Dec-2016

 ----------------------------------------------------------------
 #P UB3LYP/6-311++G(d,p) SCRF=(PCM,Solvent=n,n-DiMethylFormamide)
 ----------------------------------------------------------------

 ------------------
 Quinone PCM in DMF
 ------------------
 Symbolic Z-matrix:
 Charge =  0 Multiplicity = 1

                         Standard orientation:
 ---------------------------------------------------------------------
 Center     Atomic      Atomic             Coordinates (Angstroms)
 Number     Number       Type             X           Y           Z
 ---------------------------------------------------------------------
      1          6           0        4.239282    0.821643    0.000045
      2          6           0        5.332918   -0.035328   -0.000630
      3          6           0        5.141049   -1.420158   -0.001102
      4          6           0        2.939399    0.303415    0.000250
      5          6           0        2.749730   -1.085895   -0.000264
      6          6           0        3.854275   -1.943499   -0.000941
      7          6           0        1.792763    1.265203    0.001101
      8          6           0        1.379784   -1.659396    0.000274
      9          6           0        0.400796    0.695885   -0.000464
     10          6           0        0.236061   -0.709810   -0.000907
     11          6           0       -0.749826    1.496955   -0.001968
     12          6           0       -2.059340    0.945105   -0.007595
     13          6           0       -2.156801   -0.462992   -0.003217
     14          6           0       -1.042308   -1.269317   -0.000156
     15          8           0        2.012065    2.462156    0.002327
     16          8           0        1.198985   -2.868520    0.001608
     17          1           0        4.367358    1.896608    0.000414
     18          1           0        6.337386    0.372461   -0.000822
     19          1           0        5.996376   -2.086221   -0.001687
     20          1           0        3.677844   -3.011884   -0.001308
     21         35           0       -3.893645   -1.276365    0.002660
     22          1           0       -1.130171   -2.347479    0.003023
     23          7           0       -3.163817    1.735668   -0.041828
     24         17           0       -0.689771    3.250112    0.005313
     25          1           0       -3.062794    2.729105    0.083261
     26          1           0       -4.070684    1.318674    0.088432
 ---------------------------------------------------------------------

 SCF Done:  E(UB3LYP) =  -3777.49803963     A.U. after   15 cycles

 The electronic state is 1-A.
 Alpha  occ. eigenvalues -- -482.85171-101.57291 -62.50450 -56.32487 -56.32098
 Alpha  occ. eigenvalues --  -56.32085 -19.13418 -19.12832 -14.35180 -10.29112
 Alpha  occ. eigenvalues --  -10.28235 -10.26957 -10.26743 -10.25590 -10.22876
 Alpha  occ. eigenvalues --  -10.21098 -10.21047 -10.21009 -10.20883 -10.19963
 Alpha  occ. eigenvalues --  -10.19910 -10.19834 -10.19828  -9.48774  -8.71420
 Alpha  occ. eigenvalues --   -7.25239  -7.24276  -7.24186  -6.54559  -6.53264
 Alpha  occ. eigenvalues --   -6.53245  -2.65651  -2.65279  -2.65268  -2.64239
 Alpha  occ. eigenvalues --   -2.64237  -1.07279  -1.06400  -0.97329  -0.90211
 Alpha  occ. eigenvalues --   -0.88977  -0.87686  -0.83497  -0.79798  -0.77993
 Alpha  occ. eigenvalues --   -0.76588  -0.75985  -0.69130  -0.66981  -0.64860
 Alpha  occ. eigenvalues --   -0.62647  -0.59514  -0.57748  -0.56789  -0.54442
 Alpha  occ. eigenvalues --   -0.52705  -0.50295  -0.48944  -0.48207  -0.46607
 Alpha  occ. eigenvalues --   -0.46567  -0.46150  -0.45700  -0.45238  -0.44676
 Alpha  occ. eigenvalues --   -0.43428  -0.42425  -0.42319  -0.39341  -0.38388
 Alpha  occ. eigenvalues --   -0.38292  -0.37052  -0.37041  -0.34549  -0.34472
 Alpha  occ. eigenvalues --   -0.32781  -0.31533  -0.28716  -0.28655  -0.27978
 Alpha  occ. eigenvalues --   -0.27262  -0.27213  -0.23923
 Alpha virt. eigenvalues --   -0.11912  -0.07739  -0.03987  -0.03585  -0.02952
 Alpha virt. eigenvalues --   -0.00866  -0.00124   0.00422   0.01432   0.01696
 Alpha virt. eigenvalues --    0.02477   0.02830   0.03416   0.03559   0.03991

  Beta  occ. eigenvalues -- -482.85171-101.57291 -62.50450 -56.32487 -56.32098
  Beta  occ. eigenvalues --  -56.32085 -19.13418 -19.12832 -14.35180 -10.29112
  Beta  occ. eigenvalues --  -10.28235 -10.26957 -10.26743 -10.25590 -10.22876
  Beta  occ. eigenvalues --  -10.21098 -10.21047 -10.21009 -10.20883 -10.19963
  Beta  occ. eigenvalues --  -10.19910 -10.19834 -10.19828  -9.48774  -8.71420
  Beta  occ. eigenvalues --   -7.25239  -7.24276  -7.24186  -6.54559  -6.53264
  Beta  occ. eigenvalues --   -6.53245  -2.65651  -2.65279  -2.65268  -2.64239
  Beta  occ. eigenvalues --   -2.64237  -1.07279  -1.06400  -0.97329  -0.90211
  Beta  occ. eigenvalues --   -0.88977  -0.87686  -0.83497  -0.79798  -0.77993
  Beta  occ. eigenvalues --   -0.76588  -0.75985  -0.69130  -0.66981  -0.64860
  Beta  occ. eigenvalues --   -0.62647  -0.59514  -0.57748  -0.56789  -0.54442
  Beta  occ. eigenvalues --   -0.52705  -0.50295  -0.48944  -0.48207  -0.46607
  Beta  occ. eigenvalues --   -0.46567  -0.46150  -0.45700  -0.45238  -0.44676
  Beta  occ. eigenvalues --   -0.43428  -0.42425  -0.42319  -0.39341  -0.38388
  Beta  occ. eigenvalues --   -0.38292  -0.37052  -0.37041  -0.34549  -0.34472
  Beta  occ. eigenvalues --   -0.32781  -0.31533  -0.28716  -0.28655  -0.27978
  Beta  occ. eigenvalues --   -0.27262  -0.27213  -0.23923
  Beta virt. eigenvalues --   -0.11912  -0.07739  -0.03987  -0.03585  -0.02952
  Beta virt. eigenvalues --   -0.00866  -0.00124   0.00422   0.01432   0.01696
  Beta virt. eigenvalues --    0.02477   0.02830   0.03416   0.03559   0.03991

 Mulliken charges and spin densities:
               1          2
     1  C    0.212899  -0.000000
     2  C   -0.471025  -0.000000
     3  C   -0.391322  -0.000000
     4  C    0.004977   0.000000
     5  C    0.052668  -0.000000
     6  C    0.149941  -0.000000
     7  C   -1.194158   0.000000
     8  C   -0.694609   0.000000
     9  C    0.768054  -0.000000
    10  C    0.233851  -0.000000
    11  C    0.333164  -0.000000
    12  C   -1.031727   0.000000
    13  C    0.555031  -0.000000
    14  C    0.360546  -0.000000
    15  O   -0.165633  -0.000000
    16  O   -0.281183  -0.000000
    17  H    0.184911  -0.000000
    18  H    0.208725   0.000000
    19  H    0.209575  -0.000000
    20  H    0.182852   0.000000
    21  Br  -0.130289   0.000000
    22  H    0.235875  -0.000000
    23  N   -0.185673  -0.000000
    24  Cl   0.301495   0.000000
    25  H    0.269227   0.000000
    26  H    0.281827   0.000000
 Sum of Mulliken charges =  -0.00000   0.00000

 Dipole moment (field-independent basis, Debye):
    X=             -1.0099    Y=              1.0516    Z=              0.4310  Tot=              1.5203
 Quadrupole moment (field-independent basis, Debye-Ang):
   XX=            -91.5064   YY=           -139.4969   ZZ=           -131.0411
   XY=            -11.9395   XZ=             -1.6606   YZ=              0.9304

 Normal termination of Gaussian 16 at Sun Jan 14 01:04:58 2024.
