 Gaussian 16, Revision A.03,
 Gaussian 16:  ES64L-G16RevA.03 25-Dec-2016

 --------------------------------------
 #P UB3LYP/6-311++G(d,p) nosym opt freq
 --------------------------------------

 --------
 Oxidized
 --------
 Symbolic Z-matrix:
 Charge =  0 Multiplicity = 1

 SCF Done:  E(UB3LYP) =  -3777.48711905     A.U. after   17 cycles
 Optimization completed.
    -- Stationary point found.
 Normal termination of Gaussian 16 at Wed Dec 27 19:52:51 2023.

 ----------------------------------------------------------------------
 #P Geom=AllCheck Guess=TCheck SCRF=Check GenChk UB3LYP/6-311++G(d,p) F
 req
 ----------------------------------------------------------------------

 Structure from the checkpoint file:  "160.chk"
 --------
 Oxidized
 --------
 Charge =  0 Multiplicity = 1

                          Input orientation:
 ---------------------------------------------------------------------
 Center     Atomic      Atomic             Coordinates (Angstroms)
 Number     Number       Type             X           Y           Z
 ---------------------------------------------------------------------
      1          6           0       -1.771276    1.885558   -5.155045
      2          6           0       -1.691470    0.549527   -5.527993
      3          6           0       -1.323902   -0.421176   -4.591404
      4          6           0       -1.484163    2.267167   -3.839676
      5          6           0       -1.115787    1.291609   -2.902264
      6          6           0       -1.037151   -0.051536   -3.283424
      7          6           0       -1.583452    3.717640   -3.484596
      8          6           0       -0.806084    1.672366   -1.500564
      9          6           0       -1.274135    4.114770   -2.067448
     10          6           0       -0.904642    3.111237   -1.140349
     11          6           0       -1.335197    5.441208   -1.617470
     12          6           0       -1.044148    5.801528   -0.274020
     13          6           0       -0.677598    4.755919    0.600393
     14          6           0       -0.609342    3.447465    0.181401
     15          8           0       -1.906862    4.524328   -4.336330
     16          8           0       -0.481861    0.833097   -0.672808
     17          1           0       -2.054062    2.651712   -5.865675
     18          1           0       -1.915192    0.260396   -6.548581
     19          1           0       -1.262579   -1.462814   -4.885437
     20          1           0       -0.750127   -0.783198   -2.538533
     21         35           0       -0.258481    5.171586    2.425167
     22          1           0       -0.327237    2.654863    0.861373
     23          7           0       -1.139649    7.087586    0.153723
     24         17           0       -1.771893    6.781830   -2.661139
     25          1           0       -1.279014    7.821950   -0.520115
     26          1           0       -0.800515    7.326772    1.070804
 ---------------------------------------------------------------------

 SCF Done:  E(UB3LYP) =  -3777.48711905     A.U. after    1 cycles

 Alpha  occ. eigenvalues -- -482.85523-101.57129 -62.50805 -56.32839 -56.32451
 Alpha  occ. eigenvalues --  -56.32443 -19.12900 -19.12308 -14.35907 -10.28620
 Alpha  occ. eigenvalues --  -10.27763 -10.27186 -10.26786 -10.25829 -10.22828
 Alpha  occ. eigenvalues --  -10.21132 -10.21050 -10.21004 -10.20833 -10.20253
 Alpha  occ. eigenvalues --  -10.20198 -10.19895 -10.19892  -9.48605  -8.71776
 Alpha  occ. eigenvalues --   -7.25075  -7.24100  -7.24019  -6.54911  -6.53620
 Alpha  occ. eigenvalues --   -6.53608  -2.66005  -2.65635  -2.65623  -2.64600
 Alpha  occ. eigenvalues --   -2.64598  -1.06684  -1.05787  -0.97841  -0.90346
 Alpha  occ. eigenvalues --   -0.89004  -0.87735  -0.83669  -0.79946  -0.77998
 Alpha  occ. eigenvalues --   -0.76653  -0.76164  -0.69113  -0.67130  -0.64988
 Alpha  occ. eigenvalues --   -0.62837  -0.59611  -0.57970  -0.56951  -0.54691
 Alpha  occ. eigenvalues --   -0.52915  -0.50113  -0.49261  -0.48346  -0.46494
 Alpha  occ. eigenvalues --   -0.46459  -0.45976  -0.45271  -0.45140  -0.44528
 Alpha  occ. eigenvalues --   -0.43469  -0.42427  -0.41785  -0.39458  -0.38562
 Alpha  occ. eigenvalues --   -0.38302  -0.37105  -0.36968  -0.34708  -0.34271
 Alpha  occ. eigenvalues --   -0.32827  -0.31918  -0.28625  -0.28112  -0.27954
 Alpha  occ. eigenvalues --   -0.27251  -0.26763  -0.24205
 Alpha virt. eigenvalues --   -0.11624  -0.07697  -0.04100  -0.03998  -0.03070
 Alpha virt. eigenvalues --   -0.01470  -0.00763   0.00237   0.01048   0.01403
 Alpha virt. eigenvalues --    0.02310   0.02890   0.03311   0.03585   0.03983

  Beta  occ. eigenvalues -- -482.85523-101.57129 -62.50805 -56.32839 -56.32451
  Beta  occ. eigenvalues --  -56.32443 -19.12900 -19.12308 -14.35907 -10.28620
  Beta  occ. eigenvalues --  -10.27763 -10.27186 -10.26786 -10.25829 -10.22828
  Beta  occ. eigenvalues --  -10.21132 -10.21050 -10.21004 -10.20833 -10.20253
  Beta  occ. eigenvalues --  -10.20198 -10.19895 -10.19892  -9.48605  -8.71776
  Beta  occ. eigenvalues --   -7.25075  -7.24100  -7.24019  -6.54911  -6.53620
  Beta  occ. eigenvalues --   -6.53608  -2.66005  -2.65635  -2.65623  -2.64600
  Beta  occ. eigenvalues --   -2.64598  -1.06684  -1.05787  -0.97841  -0.90346
  Beta  occ. eigenvalues --   -0.89004  -0.87735  -0.83669  -0.79946  -0.77998
  Beta  occ. eigenvalues --   -0.76653  -0.76164  -0.69113  -0.67130  -0.64988
  Beta  occ. eigenvalues --   -0.62837  -0.59611  -0.57970  -0.56951  -0.54691
  Beta  occ. eigenvalues --   -0.52915  -0.50113  -0.49261  -0.48346  -0.46494
  Beta  occ. eigenvalues --   -0.46459  -0.45976  -0.45271  -0.45140  -0.44528
  Beta  occ. eigenvalues --   -0.43469  -0.42427  -0.41785  -0.39458  -0.38562
  Beta  occ. eigenvalues --   -0.38302  -0.37105  -0.36968  -0.34708  -0.34271
  Beta  occ. eigenvalues --   -0.32827  -0.31918  -0.28625  -0.28112  -0.27954
  Beta  occ. eigenvalues --   -0.27251  -0.26763  -0.24205
  Beta virt. eigenvalues --   -0.11624  -0.07697  -0.04100  -0.03998  -0.03070
  Beta virt. eigenvalues --   -0.01470  -0.00763   0.00237   0.01048   0.01403
  Beta virt. eigenvalues --    0.02310   0.02890   0.03311   0.03585   0.03983

 Mulliken charges and spin densities:
               1          2
     1  C    0.188996  -0.000000
     2  C   -0.415857  -0.000000
     3  C   -0.334233  -0.000000
     4  C    0.030359  -0.000000
     5  C    0.092594   0.000000
     6  C    0.126824   0.000000
     7  C   -1.254593   0.000000
     8  C   -0.771923  -0.000000
     9  C    0.740483   0.000000
    10  C    0.257636   0.000000
    11  C    0.326229  -0.000000
    12  C   -1.077045  -0.000000
    13  C    0.602863   0.000000
    14  C    0.334008   0.000000
    15  O   -0.103972  -0.000000
    16  O   -0.216510   0.000000
    17  H    0.184349   0.000000
    18  H    0.177669  -0.000000
    19  H    0.178559   0.000000
    20  H    0.182785  -0.000000
    21  Br  -0.145287   0.000000
    22  H    0.239611   0.000000
    23  N   -0.148355   0.000000
    24  Cl   0.313643   0.000000
    25  H    0.239557   0.000000
    26  H    0.251609  -0.000000
 Sum of Mulliken charges =  -0.00000  -0.00000

 Dipole moment (field-independent basis, Debye):
    X=              0.1876    Y=              0.9723    Z=             -0.0829  Tot=              0.9937
 Quadrupole moment (field-independent basis, Debye-Ang):
   XX=           -131.9239   YY=           -105.9634   ZZ=           -121.8508
   XY=              3.9836   XZ=              0.1467   YZ=             18.2841

  Exact polarizability: 113.281 -11.419 286.219  38.309  51.111 278.204
 Approx polarizability: 188.824 -37.872 480.143  66.851  18.124 438.307

                      1                      2                      3
                      A                      A                      A
 Frequencies --     19.3148                36.5786                86.7956
 Red. masses --      9.0445                11.2134                 9.3111
 Frc consts  --      0.0020                 0.0088                 0.0413
 IR Inten    --      4.6340                 0.1998                 0.3016

                      4                      5                      6
                      A                      A                      A
 Frequencies --    109.2255               123.7689               126.5429
 Red. masses --      4.9026                 8.2895                12.4021
 Frc consts  --      0.0345                 0.0748                 0.1170
 IR Inten    --      0.0650                 0.8760                 0.2701

                      7                      8                      9
                      A                      A                      A
 Frequencies --    182.2290               197.9448               219.6434
 Red. masses --      5.9824                11.7555                15.0181
 Frc consts  --      0.1170                 0.2714                 0.4269
 IR Inten    --      0.2749                 1.8576                 1.4641

                     10                     11                     12
                      A                      A                      A
 Frequencies --    248.1216               272.8343               281.5818
 Red. masses --      1.1740                 6.4914                 7.7984
 Frc consts  --      0.0426                 0.2847                 0.3643
 IR Inten    --    217.9456                 2.2501                 0.7600

                     13                     14                     15
                      A                      A                      A
 Frequencies --    327.8549               328.6094               350.9713
 Red. masses --      8.3595                 6.7846                 7.8542
 Frc consts  --      0.5294                 0.4317                 0.5700
 IR Inten    --      1.6980                 0.8034                 2.9623

                     16                     17                     18
                      A                      A                      A
 Frequencies --    368.3216               399.3288               431.5492
 Red. masses --      8.4335                11.7795                 3.4352
 Frc consts  --      0.6741                 1.1067                 0.3769
 IR Inten    --      2.2498                24.2047                 1.2397

                     19                     20                     21
                      A                      A                      A
 Frequencies --    453.4316               467.7976               481.8982
 Red. masses --      4.7355                10.5096                 3.2283
 Frc consts  --      0.5736                 1.3550                 0.4417
 IR Inten    --      0.0891                 6.5788                 2.2046

                     22                     23                     24
                      A                      A                      A
 Frequencies --    484.0641               517.1543               551.4582
 Red. masses --      1.5395                 3.4983                 4.8825
 Frc consts  --      0.2125                 0.5512                 0.8748
 IR Inten    --      1.5748                 0.5169                 3.6447

                     25                     26                     27
                      A                      A                      A
 Frequencies --    580.6183               631.0658               673.2330
 Red. masses --      6.4409                 6.4623                 6.6297
 Frc consts  --      1.2793                 1.5163                 1.7704
 IR Inten    --      0.4109                29.4123                 6.2752

                     28                     29                     30
                      A                      A                      A
 Frequencies --    695.1409               707.9620               723.5207
 Red. masses --      6.2215                 7.0804                 5.1953
 Frc consts  --      1.7713                 2.0909                 1.6024
 IR Inten    --      0.1921                 8.3048                24.4145

                     31                     32                     33
                      A                      A                      A
 Frequencies --    738.1036               770.3265               784.4321
 Red. masses --      2.5200                 7.2104                 9.0320
 Frc consts  --      0.8089                 2.5209                 3.2745
 IR Inten    --     46.4151                30.0056                42.9838

                     34                     35                     36
                      A                      A                      A
 Frequencies --    801.9469               813.3453               883.4328
 Red. masses --      4.9198                 2.1281                 6.6322
 Frc consts  --      1.8642                 0.8294                 3.0497
 IR Inten    --      0.3846                11.6849                 4.3734

                     37                     38                     39
                      A                      A                      A
 Frequencies --    916.6212               941.8225               987.4550
 Red. masses --      1.3822                 1.3664                 8.8935
 Frc consts  --      0.6842                 0.7141                 5.1092
 IR Inten    --      0.0842                 9.6790                12.7276

                     40                     41                     42
                      A                      A                      A
 Frequencies --   1004.1856              1019.0704              1024.1330
 Red. masses --      1.3800                 1.3269                 3.6288
 Frc consts  --      0.8199                 0.8119                 2.2425
 IR Inten    --      2.0578                 0.0009               105.1309

                     43                     44                     45
                      A                      A                      A
 Frequencies --   1059.4755              1086.6648              1117.5746
 Red. masses --      1.8624                 2.0519                 2.1658
 Frc consts  --      1.2317                 1.4276                 1.5937
 IR Inten    --      8.1781                32.3117                10.1306

                     46                     47                     48
                      A                      A                      A
 Frequencies --   1155.5175              1181.9823              1204.0852
 Red. masses --      5.5877                 1.1393                 1.8848
 Frc consts  --      4.3958                 0.9378                 1.6100
 IR Inten    --     96.6134                 7.2794                26.1519

                     49                     50                     51
                      A                      A                      A
 Frequencies --   1235.7844              1275.6402              1301.9805
 Red. masses --      2.2795                 2.6482                 2.0969
 Frc consts  --      2.0510                 2.5390                 2.0943
 IR Inten    --      4.8234               490.1038                 2.2786

                     52                     53                     54
                      A                      A                      A
 Frequencies --   1339.6983              1348.3079              1362.5129
 Red. masses --      4.9478                 6.3238                 7.4519
 Frc consts  --      5.2321                 6.7734                 8.1508
 IR Inten    --    330.6651               267.5358                21.6904

                     55                     56                     57
                      A                      A                      A
 Frequencies --   1416.8960              1477.9944              1486.1825
 Red. masses --      7.4380                 2.7164                 3.4420
 Frc consts  --      8.7980                 3.4961                 4.4792
 IR Inten    --      5.6609                19.3433                20.5574

                     58                     59                     60
                      A                      A                      A
 Frequencies --   1508.0449              1559.9148              1577.2787
 Red. masses --      2.5961                 6.5909                 4.2646
 Frc consts  --      3.4786                 9.4493                 6.2510
 IR Inten    --     12.2688                41.5490                73.5469

                     61                     62                     63
                      A                      A                      A
 Frequencies --   1618.3335              1629.0797              1638.5426
 Red. masses --      6.6742                 5.5862                 1.5893
 Frc consts  --     10.2988                 8.7348                 2.5141
 IR Inten    --      9.3235                79.3981               348.7358

                     64                     65                     66
                      A                      A                      A
 Frequencies --   1709.3356              1730.9948              3170.4584
 Red. masses --     12.4420                12.2950                 1.0871
 Frc consts  --     21.4188                21.7055                 6.4381
 IR Inten    --     81.6915               225.0809                 3.4861

                     67                     68                     69
                      A                      A                      A
 Frequencies --   3185.0313              3202.0361              3205.2424
 Red. masses --      1.0922                 1.0929                 1.0941
 Frc consts  --      6.5277                 6.6020                 6.6225
 IR Inten    --     12.1654                 2.1318                10.4173

                     70                     71                     72
                      A                      A                      A
 Frequencies --   3212.5614              3593.9599              3714.4830
 Red. masses --      1.0914                 1.0450                 1.1046
 Frc consts  --      6.6362                 7.9526                 8.9796
 IR Inten    --      5.8449               116.5615                71.7833

 - Thermochemistry -
 -------------------
 Temperature   298.150 Kelvin.  Pressure   1.00000 Atm.
 Atom     1 has atomic number  6 and mass  12.00000

 Molecular mass:   334.93487 amu.
 Principal axes and moments of inertia in atomic units:
                           1         2         3
     Eigenvalues --  3625.05178********************
           X            0.12937  -0.24519   0.96081
           Y            0.58058   0.80423   0.12706
           Z            0.80386  -0.54139  -0.24639
 This molecule is an asymmetric top.
 Rotational symmetry number  1.
 Warning -- assumption of classical behavior for rotation
           may cause significant error
 Rotational temperatures (Kelvin)      0.02389     0.00806     0.00602
 Rotational constants (GHZ):           0.49785     0.16786     0.12554
 Zero-point vibrational energy     460975.2 (Joules/Mol)
                                  110.17571 (Kcal/Mol)
 Warning -- explicit consideration of  25 degrees of freedom as
           vibrations may cause significant error
 Vibrational temperatures:     27.79    52.63   124.88   157.15   178.08
          (Kelvin)            182.07   262.19   284.80   316.02   356.99
                              392.55   405.13   471.71   472.80   504.97
                              529.93   574.55   620.90   652.39   673.06
                              693.34   696.46   744.07   793.43   835.38
                              907.96   968.63  1000.15  1018.60  1040.98
                             1061.97  1108.33  1128.62  1153.82  1170.22
                             1271.06  1318.81  1355.07  1420.73  1444.80
                             1466.22  1473.50  1524.35  1563.47  1607.94
                             1662.53  1700.61  1732.41  1778.02  1835.36
                             1873.26  1927.53  1939.91  1960.35  2038.60
                             2126.50  2138.29  2169.74  2244.37  2269.35
                             2328.42  2343.88  2357.50  2459.35  2490.52
                             4561.58  4582.55  4607.02  4611.63  4622.16
                             5170.91  5344.31

 Zero-point correction=                           0.175576 (Hartree/Particle)
 Thermal correction to Energy=                    0.191270
 Thermal correction to Enthalpy=                  0.192214
 Thermal correction to Gibbs Free Energy=         0.130571
 Sum of electronic and zero-point Energies=          -3777.311543
 Sum of electronic and thermal Energies=             -3777.295849
 Sum of electronic and thermal Enthalpies=           -3777.294905
 Sum of electronic and thermal Free Energies=        -3777.356548

                     E (Thermal)             CV                S
                      KCal/Mol        Cal/Mol-Kelvin    Cal/Mol-Kelvin
 Total                  120.024             59.965            129.739
 Electronic               0.000              0.000              0.000
 Translational            0.889              2.981             43.321
 Rotational               0.889              2.981             34.682
 Vibrational            118.246             54.004             51.736
 Vibration     1          0.593              1.986              6.703
 Vibration     2          0.594              1.982              5.436
 Vibration     3          0.601              1.958              3.731
 Vibration     4          0.606              1.942              3.283
 Vibration     5          0.610              1.929              3.041
 Vibration     6          0.611              1.927              2.998
 Vibration     7          0.630              1.864              2.305
 Vibration     8          0.637              1.843              2.152
 Vibration     9          0.647              1.811              1.962
 Vibration    10          0.662              1.766              1.744
 Vibration    11          0.676              1.723              1.578
 Vibration    12          0.681              1.708              1.524
 Vibration    13          0.711              1.620              1.271
 Vibration    14          0.712              1.618              1.267
 Vibration    15          0.728              1.573              1.162
 Vibration    16          0.741              1.537              1.087
 Vibration    17          0.765              1.472              0.965
 Vibration    18          0.793              1.402              0.854
 Vibration    19          0.812              1.353              0.785
 Vibration    20          0.825              1.321              0.744
 Vibration    21          0.838              1.290              0.705
 Vibration    22          0.840              1.285              0.699
 Vibration    23          0.872              1.212              0.617
 Vibration    24          0.907              1.136              0.541
 Vibration    25          0.937              1.073              0.484

                           ! Non-Optimized Parameters !
 Normal termination of Gaussian 16 at Wed Dec 27 21:25:59 2023.
