 Q-Chem 5.4, Q-Chem, Inc., Pleasanton, CA (2021)
 Q-Chem 5.4.0 for Intel X86 EM64T Linux

User input:
--------------------------------------------------------------
$molecule
-2 1
N                 -2.9167040000      1.8999430000      0.0681160000
C                 -2.5288940000      0.5468280000      0.0463240000
C                 -3.4930000000     -0.4530720000      0.0366780000
C                 -3.1185180000     -1.8199470000     -0.0619520000
C                 -1.7913910000     -2.1641370000     -0.1597290000
C                 -0.7610120000     -1.1820960000     -0.1351620000
C                  0.6100140000     -1.6396550000     -0.2122050000
O                  0.9227300000     -2.8835540000     -0.3366010000
C                  1.6030100000     -0.5950680000     -0.1277720000
C                  2.9799420000     -0.9331800000     -0.1861560000
C                  3.9794230000      0.0135690000     -0.0976430000
C                  3.6310120000      1.3878230000      0.0598440000
C                  2.3024850000      1.7516260000      0.1225790000
C                  1.2477570000      0.8025890000      0.0319210000
C                 -0.1150400000      1.2543610000      0.1033760000
O                 -0.3912080000      2.5245260000      0.2755040000
C                 -1.1203770000      0.2242520000     -0.0094000000
H                 -3.7113160000      2.0722520000      0.6699270000
H                 -2.0759490000      2.4834930000      0.2579690000
H                 -4.5444910000     -0.1679740000      0.0547070000
H                 -3.8909090000     -2.5884800000     -0.0723900000
H                 -1.4700810000     -3.1962150000     -0.2495980000
H                  3.2081840000     -1.9885580000     -0.3034290000
H                  5.0262690000     -0.2832790000     -0.1473560000
H                  4.4113190000      2.1447360000      0.1296250000
H                  2.0067450000      2.7892180000      0.2428240000
$end
$rem
MAX_SCF_CYCLES=200
BASIS  =  6-311++G(d,p)
GUI  =  2
JOB_TYPE  =  SP
METHOD  =  B3LYP
SOLVENT_METHOD = PCM
$end
$pcm
theory = CPCM
$end
$solvent
dielectric 37.219
opticaldielectric 1.43
$end

--------------------------------------------------------------

             Standard Nuclear Orientation (Angstroms)
    I     Atom           X                Y                Z
 ----------------------------------------------------------------
    1      N      -2.9167040000     1.8999430000     0.0681160000
    2      C      -2.5288940000     0.5468280000     0.0463240000
    3      C      -3.4930000000    -0.4530720000     0.0366780000
    4      C      -3.1185180000    -1.8199470000    -0.0619520000
    5      C      -1.7913910000    -2.1641370000    -0.1597290000
    6      C      -0.7610120000    -1.1820960000    -0.1351620000
    7      C       0.6100140000    -1.6396550000    -0.2122050000
    8      O       0.9227300000    -2.8835540000    -0.3366010000
    9      C       1.6030100000    -0.5950680000    -0.1277720000
   10      C       2.9799420000    -0.9331800000    -0.1861560000
   11      C       3.9794230000     0.0135690000    -0.0976430000
   12      C       3.6310120000     1.3878230000     0.0598440000
   13      C       2.3024850000     1.7516260000     0.1225790000
   14      C       1.2477570000     0.8025890000     0.0319210000
   15      C      -0.1150400000     1.2543610000     0.1033760000
   16      O      -0.3912080000     2.5245260000     0.2755040000
   17      C      -1.1203770000     0.2242520000    -0.0094000000
   18      H      -3.7113160000     2.0722520000     0.6699270000
   19      H      -2.0759490000     2.4834930000     0.2579690000
   20      H      -4.5444910000    -0.1679740000     0.0547070000
   21      H      -3.8909090000    -2.5884800000    -0.0723900000
   22      H      -1.4700810000    -3.1962150000    -0.2495980000
   23      H       3.2081840000    -1.9885580000    -0.3034290000
   24      H       5.0262690000    -0.2832790000    -0.1473560000
   25      H       4.4113190000     2.1447360000     0.1296250000
   26      H       2.0067450000     2.7892180000     0.2428240000
 ----------------------------------------------------------------

    9    -744.5768475055      3.10e-06  Convergence criterion met
 Total energy in the final basis set =     -744.5768475055

                    Orbital Energies (a.u.)
 --------------------------------------------------------------

 Alpha MOs
 -- Occupied --
-19.0299 -19.0233 -14.2773 -10.1885 -10.1808 -10.1754 -10.1503 -10.1497
-10.1474 -10.1472 -10.1470 -10.1440 -10.1387 -10.1377 -10.1375 -10.1360
-10.1344  -0.9460  -0.9396  -0.8804  -0.8262  -0.8054  -0.7522  -0.7246
 -0.7059  -0.7005  -0.6377  -0.6068  -0.5928  -0.5529  -0.5272  -0.5150
 -0.4964  -0.4675  -0.4447  -0.4414  -0.4312  -0.4161  -0.4067  -0.3985
 -0.3851  -0.3760  -0.3702  -0.3615  -0.3512  -0.3487  -0.3312  -0.3265
 -0.3161  -0.3092  -0.3031  -0.2812  -0.2316  -0.2292  -0.2166  -0.2110
 -0.2015  -0.1898  -0.1098

          Ground-State Mulliken Net Atomic Charges

     Atom                 Charge (a.u.)
  ----------------------------------------
      1 N                    -0.491621
      2 C                     0.108307
      3 C                    -0.353503
      4 C                    -0.492613
      5 C                    -0.144696
      6 C                     0.455052
      7 C                    -0.376634
      8 O                    -0.686983
      9 C                     0.054988
     10 C                    -0.005651
     11 C                    -0.496611
     12 C                    -0.533673
     13 C                     0.049739
     14 C                     0.074310
     15 C                    -0.354331
     16 O                    -0.658264
     17 C                     0.171283
     18 H                     0.259997
     19 H                     0.313881
     20 H                     0.158711
     21 H                     0.172553
     22 H                     0.135560
     23 H                     0.143556
     24 H                     0.172654
     25 H                     0.171958
     26 H                     0.152030
  ----------------------------------------
  Sum of atomic charges =    -2.000000

                    Cartesian Multipole Moments
 -----------------------------------------------------------------
    Charge (ESU x 10^10)
                -9.6064
    Dipole Moment (Debye)
         X      -1.8219      Y       3.1108      Z       1.8416
       Tot       4.0481
    Quadrupole Moments (Debye-Ang)
        XX    -125.8018     XY       8.1134     YY    -158.8443
        XZ      -3.6568     YZ      -2.0905     ZZ    -112.9893

 Total job time:  222.95s(wall), 340.77s(cpu)
        *  Thank you very much for using Q-Chem.  Have a nice day.  *
