 Gaussian 16, Revision A.03,
 Gaussian 16:  ES64L-G16RevA.03 25-Dec-2016

 ----------------------------------------------------------------------
 #P UB3LYP/6-311++G(d,p) nosym opt freq SCRF=(PCM,Solvent=n,n-DiMethylF
 ormamide)
 ----------------------------------------------------------------------

 -------
 Radical
 -------
 Symbolic Z-matrix:
 Charge = -1 Multiplicity = 2

 SCF Done:  E(UB3LYP) =  -1897.15408306     A.U. after   18 cycles
 SCF Done:  E(UB3LYP) =  -1897.15515689     A.U. after   16 cycles
 SCF Done:  E(UB3LYP) =  -1897.15552248     A.U. after   14 cycles
 SCF Done:  E(UB3LYP) =  -1897.15566015     A.U. after   15 cycles
 SCF Done:  E(UB3LYP) =  -1897.15569079     A.U. after   13 cycles
 SCF Done:  E(UB3LYP) =  -1897.15573228     A.U. after   14 cycles
 SCF Done:  E(UB3LYP) =  -1897.15575299     A.U. after   14 cycles
 SCF Done:  E(UB3LYP) =  -1897.15576014     A.U. after   12 cycles
 SCF Done:  E(UB3LYP) =  -1897.15576535     A.U. after   11 cycles
 SCF Done:  E(UB3LYP) =  -1897.15576696     A.U. after   12 cycles
 SCF Done:  E(UB3LYP) =  -1897.15576756     A.U. after   11 cycles
 SCF Done:  E(UB3LYP) =  -1897.15576758     A.U. after   10 cycles
 Optimization completed.
    -- Stationary point found.
 Normal termination of Gaussian 16 at Sun Feb 11 00:27:18 2024.

 ----------------------------------------------------------------------
 #P Geom=AllCheck Guess=TCheck SCRF=Check GenChk UB3LYP/6-311++G(d,p) F
 req
 ----------------------------------------------------------------------

 Structure from the checkpoint file:  "219-rad.chk"
 -------
 Radical
 -------
 Charge = -1 Multiplicity = 2

                          Input orientation:
 ---------------------------------------------------------------------
 Center     Atomic      Atomic             Coordinates (Angstroms)
 Number     Number       Type             X           Y           Z
 ---------------------------------------------------------------------
      1          6           0        5.071949   -2.520994    0.153261
      2          6           0        5.795473   -1.557985   -0.512361
      3          6           0        5.096171   -0.510470   -1.152818
      4          6           0        3.658983   -2.480711    0.203537
      5          6           0        2.972274   -1.417100   -0.448331
      6          6           0        3.721039   -0.433672   -1.126601
      7          6           0        2.937295   -3.528249    0.922861
      8          6           0        1.477590   -3.421558    0.931173
      9          6           0        0.790881   -2.357947    0.279305
     10          6           0        1.512568   -1.310421   -0.440037
     11          6           0        0.728826   -4.404976    1.609458
     12          6           0       -0.622084   -2.317653    0.329597
     13          6           0       -1.345608   -3.280655    0.995230
     14          8           0        3.535952   -4.468649    1.503008
     15          8           0        0.913914   -0.369988   -1.020133
     16          1           0        5.578013   -3.335125    0.656493
     17          1           0       -2.426993   -3.241492    1.025432
     18          1           0        3.197053    0.374608   -1.618364
     19          1           0        1.252811   -5.213256    2.101223
     20          1           0       -1.128148   -1.503521   -0.173632
     21          6           0       -0.646305   -4.328171    1.635687
     22         16           0        6.023308    0.750234   -2.015361
     23          1           0        6.876859   -1.597138   -0.542550
     24         16           0       -1.573441   -5.588884    2.498215
     25          8           0       -0.642360   -6.649432    2.908241
     26          8           0       -2.756440   -5.963858    1.710702
     27          7           0       -2.182218   -4.743005    3.820817
     28          1           0       -1.488643   -4.663296    4.561229
     29          1           0       -3.016852   -5.211148    4.167865
     30          8           0        5.092254    1.810858   -2.425254
     31          8           0        7.206397    1.125093   -1.227930
     32          7           0        6.631919   -0.095610   -3.338062
     33          1           0        7.466549    0.372502   -3.685160
     34          1           0        5.938272   -0.175239   -4.078416
 ---------------------------------------------------------------------

 SCF Done:  E(UB3LYP) =  -1897.15576758     A.U. after    1 cycles

 Alpha  occ. eigenvalues --  -89.08009 -89.08009 -19.13141 -19.13141 -19.13054
 Alpha  occ. eigenvalues --  -19.13053 -19.09039 -19.09038 -14.35195 -14.35195
 Alpha  occ. eigenvalues --  -10.24031 -10.24029 -10.22060 -10.22059 -10.19880
 Alpha  occ. eigenvalues --  -10.19880 -10.19693 -10.19693 -10.19287 -10.19286
 Alpha  occ. eigenvalues --  -10.19242 -10.19242 -10.18827 -10.18827  -8.14178
 Alpha  occ. eigenvalues --   -8.14178  -6.10465  -6.10465  -6.10429  -6.10429
 Alpha  occ. eigenvalues --   -6.10256  -6.10256  -1.13355  -1.13355  -1.02157
 Alpha  occ. eigenvalues --   -1.02156  -1.01772  -1.01505  -0.92354  -0.92354
 Alpha  occ. eigenvalues --   -0.88643  -0.87922  -0.81673  -0.78377  -0.77583
 Alpha  occ. eigenvalues --   -0.77059  -0.70665  -0.70150  -0.66270  -0.65228
 Alpha  occ. eigenvalues --   -0.61779  -0.60880  -0.57923  -0.56926  -0.55201
 Alpha  occ. eigenvalues --   -0.54626  -0.53425  -0.52917  -0.51856  -0.51083
 Alpha  occ. eigenvalues --   -0.49462  -0.48848  -0.48231  -0.47260  -0.46266
 Alpha  occ. eigenvalues --   -0.44869  -0.44671  -0.44244  -0.43858  -0.43008
 Alpha  occ. eigenvalues --   -0.42726  -0.41479  -0.39448  -0.39258  -0.38706
 Alpha  occ. eigenvalues --   -0.37691  -0.37566  -0.37445  -0.36509  -0.35717
 Alpha  occ. eigenvalues --   -0.34743  -0.34715  -0.33335  -0.33333  -0.32443
 Alpha  occ. eigenvalues --   -0.32343  -0.30648  -0.30615  -0.28356  -0.27948
 Alpha  occ. eigenvalues --   -0.27602  -0.26881  -0.26033  -0.25212  -0.16007
 Alpha virt. eigenvalues --   -0.07736  -0.05313  -0.02732  -0.01182  -0.00872
 Alpha virt. eigenvalues --    0.00611   0.00996   0.01151   0.02177   0.02405
 Alpha virt. eigenvalues --    0.03128   0.03257   0.03908   0.04262   0.04601

  Beta  occ. eigenvalues --  -89.08010 -89.08010 -19.13136 -19.13136 -19.13052
  Beta  occ. eigenvalues --  -19.13051 -19.08459 -19.08458 -14.35194 -14.35194
  Beta  occ. eigenvalues --  -10.23895 -10.23894 -10.22016 -10.22016 -10.19900
  Beta  occ. eigenvalues --  -10.19900 -10.19613 -10.19613 -10.19201 -10.19200
  Beta  occ. eigenvalues --  -10.19140 -10.19139 -10.18843 -10.18843  -8.14178
  Beta  occ. eigenvalues --   -8.14178  -6.10464  -6.10464  -6.10429  -6.10429
  Beta  occ. eigenvalues --   -6.10258  -6.10258  -1.13346  -1.13346  -1.02149
  Beta  occ. eigenvalues --   -1.02148  -1.00781  -1.00485  -0.92345  -0.92345
  Beta  occ. eigenvalues --   -0.88401  -0.87810  -0.81275  -0.78185  -0.77458
  Beta  occ. eigenvalues --   -0.76841  -0.70538  -0.69623  -0.65954  -0.65044
  Beta  occ. eigenvalues --   -0.61636  -0.60830  -0.57733  -0.56831  -0.55037
  Beta  occ. eigenvalues --   -0.54544  -0.53396  -0.52870  -0.51804  -0.51037
  Beta  occ. eigenvalues --   -0.49217  -0.48766  -0.48073  -0.47217  -0.46234
  Beta  occ. eigenvalues --   -0.44839  -0.44637  -0.44148  -0.42725  -0.42656
  Beta  occ. eigenvalues --   -0.42326  -0.41135  -0.39002  -0.38519  -0.37645
  Beta  occ. eigenvalues --   -0.37496  -0.37432  -0.37072  -0.35627  -0.35543
  Beta  occ. eigenvalues --   -0.34686  -0.34634  -0.33303  -0.33244  -0.32405
  Beta  occ. eigenvalues --   -0.32318  -0.30570  -0.30297  -0.27657  -0.26758
  Beta  occ. eigenvalues --   -0.26251  -0.26243  -0.25496  -0.24673
  Beta virt. eigenvalues --   -0.10150  -0.06915  -0.04239  -0.02526  -0.01172
  Beta virt. eigenvalues --   -0.00869   0.00820   0.01162   0.01440   0.02183
  Beta virt. eigenvalues --    0.02433   0.03187   0.03273   0.03941   0.04337

 Mulliken charges and spin densities:
               1          2
     1  C   -0.072025   0.009430
     2  C   -0.368096   0.067405
     3  C   -0.603922   0.018829
     4  C    0.559101   0.064858
     5  C    0.220936   0.046193
     6  C    0.133644   0.004345
     7  C   -0.639760   0.074202
     8  C    0.220987   0.046193
     9  C    0.559100   0.064858
    10  C   -0.639719   0.074202
    11  C    0.133723   0.004344
    12  C   -0.072010   0.009430
    13  C   -0.368076   0.067406
    14  O   -0.413485   0.215327
    15  O   -0.413486   0.215327
    16  H    0.172368  -0.000692
    17  H    0.255281  -0.004529
    18  H    0.235143  -0.000467
    19  H    0.235145  -0.000467
    20  H    0.172368  -0.000692
    21  C   -0.604177   0.018828
    22  S    0.343259   0.006681
    23  H    0.255281  -0.004529
    24  S    0.343321   0.006681
    25  O   -0.249713   0.001137
    26  O   -0.297128  -0.002133
    27  N   -0.409412  -0.001056
    28  H    0.305975  -0.000096
    29  H    0.327847   0.000564
    30  O   -0.249723   0.001138
    31  O   -0.297159  -0.002133
    32  N   -0.409414  -0.001056
    33  H    0.327852   0.000564
    34  H    0.305977  -0.000096
 Sum of Mulliken charges =  -1.00000   1.00000

 Dipole moment (field-independent basis, Debye):
    X=            -10.6872    Y=             11.6207    Z=             -1.1598  Tot=             15.8304
 Quadrupole moment (field-independent basis, Debye-Ang):
   XX=           -210.3611   YY=           -263.8795   ZZ=           -133.4422
   XY=             -4.2987   XZ=            -26.2891   YZ=             19.5515

  Exact polarizability: 580.038  83.344 395.302 -78.606-133.242 292.762
 Approx polarizability: 604.218  29.981 439.699 -34.398-133.623 321.238

                      1                      2                      3
                      A                      A                      A
 Frequencies --      3.8996                14.9537                26.1151
 Red. masses --      7.2061                 6.9865                10.2003
 Frc consts  --      0.0001                 0.0009                 0.0041
 IR Inten    --     12.1549                 0.0001                 5.6964

                      4                      5                      6
                      A                      A                      A
 Frequencies --     70.2609                78.4413                79.7427
 Red. masses --      7.4145                 6.3586                 9.9020
 Frc consts  --      0.0216                 0.0231                 0.0371
 IR Inten    --      0.0000                16.3258                 1.2996

                      7                      8                      9
                      A                      A                      A
 Frequencies --    125.1021               131.1872               148.0716
 Red. masses --      8.7381                 3.9164                 3.8707
 Frc consts  --      0.0806                 0.0397                 0.0500
 IR Inten    --      0.0000                20.4296                 0.0000

                     10                     11                     12
                      A                      A                      A
 Frequencies --    164.1890               180.4017               194.5428
 Red. masses --      3.9948                 6.9737                 2.1617
 Frc consts  --      0.0635                 0.1337                 0.0482
 IR Inten    --     57.5399                 0.0000                 0.0000

                     13                     14                     15
                      A                      A                      A
 Frequencies --    213.6775               229.4586               246.5502
 Red. masses --      1.6653                 8.5763                 2.6419
 Frc consts  --      0.0448                 0.2660                 0.0946
 IR Inten    --    108.9411                14.2390                 0.0000

                     16                     17                     18
                      A                      A                      A
 Frequencies --    260.7163               272.6741               328.2874
 Red. masses --     10.5591                12.3964                 3.2399
 Frc consts  --      0.4229                 0.5430                 0.2057
 IR Inten    --      4.6081                 0.0000                62.3953

                     19                     20                     21
                      A                      A                      A
 Frequencies --    332.3131               356.3993               357.9872
 Red. masses --      3.5980                 4.8468                 5.0919
 Frc consts  --      0.2341                 0.3627                 0.3845
 IR Inten    --      0.0000                29.7518                 0.0000

                     22                     23                     24
                      A                      A                      A
 Frequencies --    399.4674               409.1575               414.9250
 Red. masses --     10.2319                 7.1028                 3.6835
 Frc consts  --      0.9620                 0.7006                 0.3736
 IR Inten    --     60.8207                 0.0000                11.2782

                     25                     26                     27
                      A                      A                      A
 Frequencies --    423.8976               435.5861               449.3145
 Red. masses --      6.2990                 5.3384                 6.3990
 Frc consts  --      0.6669                 0.5968                 0.7611
 IR Inten    --      0.0000                45.2825                 0.0000

                     28                     29                     30
                      A                      A                      A
 Frequencies --    466.2463               474.4270               482.7631
 Red. masses --      3.4275                 8.0011                 9.1607
 Frc consts  --      0.4390                 1.0611                 1.2579
 IR Inten    --      0.0000               107.7502                 0.0000

                     31                     32                     33
                      A                      A                      A
 Frequencies --    502.8616               508.1059               540.0001
 Red. masses --      8.7868                10.1517                 7.0886
 Frc consts  --      1.3091                 1.5442                 1.2179
 IR Inten    --      0.0000                 0.0000               658.3903

                     34                     35                     36
                      A                      A                      A
 Frequencies --    564.4092               585.8406               644.7155
 Red. masses --      5.1255                 7.0893                 4.6351
 Frc consts  --      0.9620                 1.4336                 1.1351
 IR Inten    --     77.0651                 0.0000                 0.0000

                     37                     38                     39
                      A                      A                      A
 Frequencies --    647.1685               666.4553               671.4699
 Red. masses --      7.2049                 4.1472                 3.2986
 Frc consts  --      1.7779                 1.0853                 0.8763
 IR Inten    --     23.3617               491.3294                 0.0000

                     40                     41                     42
                      A                      A                      A
 Frequencies --    681.4818               697.2902               715.4479
 Red. masses --      4.6271                 6.7703                 4.6287
 Frc consts  --      1.2661                 1.9395                 1.3959
 IR Inten    --    375.2854                 0.0000                32.5000

                     43                     44                     45
                      A                      A                      A
 Frequencies --    726.5367               729.4628               792.1388
 Red. masses --      6.2500                 4.6105                 2.1956
 Frc consts  --      1.9438                 1.4455                 0.8117
 IR Inten    --      0.0000                 9.7888                 0.0000

                     46                     47                     48
                      A                      A                      A
 Frequencies --    827.4259               832.2585               833.9149
 Red. masses --      1.5852                 2.2798                 3.3954
 Frc consts  --      0.6394                 0.9304                 1.3912
 IR Inten    --     43.7532                 0.0000               143.5153

                     49                     50                     51
                      A                      A                      A
 Frequencies --    860.7887               869.7507               944.3567
 Red. masses --      1.9454                 2.5674                 1.4024
 Frc consts  --      0.8493                 1.1443                 0.7369
 IR Inten    --      0.0000               469.4154                 0.0001

                     52                     53                     54
                      A                      A                      A
 Frequencies --    944.9911               959.0318               970.8613
 Red. masses --      1.3900                 5.2394                 6.8824
 Frc consts  --      0.7313                 2.8392                 3.8221
 IR Inten    --     18.5405               130.2789                 0.0000

                     55                     56                     57
                      A                      A                      A
 Frequencies --    988.6282               990.9886              1058.4448
 Red. masses --      1.3167                 1.3406                 3.7929
 Frc consts  --      0.7582                 0.7757                 2.5035
 IR Inten    --      0.0000                 7.1905                 0.0012

                     58                     59                     60
                      A                      A                      A
 Frequencies --   1058.5515              1072.5037              1082.7532
 Red. masses --      3.2899                 2.9377                 2.1815
 Frc consts  --      2.1720                 1.9909                 1.5068
 IR Inten    --    220.6521               913.2195                 0.0000

                     61                     62                     63
                      A                      A                      A
 Frequencies --   1107.8723              1114.8338              1135.0865
 Red. masses --      1.4793                 1.6398                 2.2791
 Frc consts  --      1.0698                 1.2008                 1.7301
 IR Inten    --    369.2704                 0.0000               162.8718

                     64                     65                     66
                      A                      A                      A
 Frequencies --   1139.3692              1171.2193              1186.1325
 Red. masses --      1.6618                 3.4498                 4.7886
 Frc consts  --      1.2710                 2.7882                 3.9694
 IR Inten    --      0.0000               275.8653                 0.0000

                     67                     68                     69
                      A                      A                      A
 Frequencies --   1215.6425              1218.1726              1239.4575
 Red. masses --      2.5625                 1.6083                 4.6711
 Frc consts  --      2.2311                 1.4062                 4.2280
 IR Inten    --    179.3555                 0.0000              1088.8582

                     70                     71                     72
                      A                      A                      A
 Frequencies --   1242.6833              1254.7147              1310.6847
 Red. masses --      7.8776                 2.1172                 2.0459
 Frc consts  --      7.1675                 1.9638                 2.0708
 IR Inten    --      0.0001                76.9559                 0.0000

                     73                     74                     75
                      A                      A                      A
 Frequencies --   1366.7152              1369.0152              1382.6451
 Red. masses --     10.9921                10.3100                 3.6120
 Frc consts  --     12.0973                11.3848                 4.0684
 IR Inten    --    110.5761                 0.0000               650.4841

                     76                     77                     78
                      A                      A                      A
 Frequencies --   1457.3848              1458.3664              1487.9950
 Red. masses --      5.0172                 2.6012                 2.8817
 Frc consts  --      6.2785                 3.2596                 3.7592
 IR Inten    --      0.0000               446.2815                 0.0000

                     79                     80                     81
                      A                      A                      A
 Frequencies --   1497.1755              1528.2923              1547.3681
 Red. masses --      5.5837                 9.0582                 6.4559
 Frc consts  --      7.3742                12.4654                 9.1073
 IR Inten    --   1279.9127                 0.0000               283.1306

                     82                     83                     84
                      A                      A                      A
 Frequencies --   1582.2127              1582.6626              1606.5603
 Red. masses --      1.1091                 1.0966                 7.2393
 Frc consts  --      1.6359                 1.6183                11.0088
 IR Inten    --      0.0014                86.0621                 0.0000

                     85                     86                     87
                      A                      A                      A
 Frequencies --   1616.9459              1621.3691              3192.6597
 Red. masses --      7.1339                 7.1259                 1.0872
 Frc consts  --     10.9892                11.0371                 6.5291
 IR Inten    --      0.0000               104.8593                 8.4193

                     88                     89                     90
                      A                      A                      A
 Frequencies --   3192.8339              3205.9843              3206.0827
 Red. masses --      1.0873                 1.0950                 1.0950
 Frc consts  --      6.5306                 6.6312                 6.6313
 IR Inten    --      0.0000                14.2760                 0.0000

                     91                     92                     93
                      A                      A                      A
 Frequencies --   3214.6463              3214.7555              3483.2151
 Red. masses --      1.0903                 1.0903                 1.0473
 Frc consts  --      6.6383                 6.6390                 7.4865
 IR Inten    --     17.3253                 0.0012               153.3311

                     94                     95                     96
                      A                      A                      A
 Frequencies --   3483.2346              3580.5620              3580.5651
 Red. masses --      1.0473                 1.0975                 1.0975
 Frc consts  --      7.4866                 8.2903                 8.2904
 IR Inten    --      0.2474                25.6502               111.4140

 - Thermochemistry -
 -------------------
 Temperature   298.150 Kelvin.  Pressure   1.00000 Atm.
 Atom     1 has atomic number  6 and mass  12.00000

 Molecular mass:   365.99803 amu.
 Principal axes and moments of inertia in atomic units:
                           1         2         3
     Eigenvalues --  2595.11326********************
           X            0.72137   0.69021   0.05695
           Y            0.55441  -0.62481   0.54977
           Z           -0.41504   0.36501   0.83337
 This molecule is an asymmetric top.
 Rotational symmetry number  1.
 Warning -- assumption of classical behavior for rotation
           may cause significant error
 Rotational temperatures (Kelvin)      0.03338     0.00380     0.00352
 Rotational constants (GHZ):           0.69544     0.07926     0.07339
 Zero-point vibrational energy     601329.9 (Joules/Mol)
                                  143.72129 (Kcal/Mol)
 Warning -- explicit consideration of  35 degrees of freedom as
           vibrations may cause significant error
 Vibrational temperatures:      5.61    21.51    37.57   101.09   112.86
          (Kelvin)            114.73   179.99   188.75   213.04   236.23
                              259.56   279.90   307.43   330.14   354.73
                              375.11   392.32   472.33   478.12   512.78
                              515.06   574.74   588.69   596.98   609.89
                              626.71   646.46   670.82   682.59   694.59
                              723.51   731.05   776.94   812.06   842.89
                              927.60   931.13   958.88   966.10   980.50
                             1003.25  1029.37  1045.32  1049.53  1139.71
                             1190.48  1197.43  1199.82  1238.48  1251.38
                             1358.72  1359.63  1379.83  1396.85  1422.42
                             1425.81  1522.87  1523.02  1543.09  1557.84
                             1593.98  1604.00  1633.14  1639.30  1685.12
                             1706.58  1749.04  1752.68  1783.30  1787.94
                             1805.25  1885.78  1966.40  1969.71  1989.32
                             2096.85  2098.26  2140.89  2154.10  2198.87
                             2226.32  2276.45  2277.10  2311.48  2326.42
                             2332.79  4593.53  4593.78  4612.70  4612.84
                             4625.16  4625.32  5011.57  5011.60  5151.63
                             5151.63

 Zero-point correction=                           0.229034 (Hartree/Particle)
 Thermal correction to Energy=                    0.250261
 Thermal correction to Enthalpy=                  0.251206
 Thermal correction to Gibbs Free Energy=         0.174682
 Sum of electronic and zero-point Energies=          -1896.926733
 Sum of electronic and thermal Energies=             -1896.905506
 Sum of electronic and thermal Enthalpies=           -1896.904562
 Sum of electronic and thermal Free Energies=        -1896.981085

                     E (Thermal)             CV                S
                      KCal/Mol        Cal/Mol-Kelvin    Cal/Mol-Kelvin
 Total                  157.041             81.241            161.057
 Electronic               0.000              0.000              1.377
 Translational            0.889              2.981             43.585
 Rotational               0.889              2.981             35.628
 Vibrational            155.264             75.280             80.466
 Vibration     1          0.593              1.987              9.882
 Vibration     2          0.593              1.986              7.212
 Vibration     3          0.593              1.985              6.105
 Vibration     4          0.598              1.968              4.146
 Vibration     5          0.600              1.964              3.930
 Vibration     6          0.600              1.963              3.897
 Vibration     7          0.610              1.928              3.020
 Vibration     8          0.612              1.922              2.929
 Vibration     9          0.617              1.905              2.697
 Vibration    10          0.623              1.886              2.501
 Vibration    11          0.629              1.866              2.324
 Vibration    12          0.635              1.847              2.184
 Vibration    13          0.644              1.820              2.012
 Vibration    14          0.652              1.796              1.883
 Vibration    15          0.661              1.768              1.755
 Vibration    16          0.669              1.745              1.657
 Vibration    17          0.676              1.724              1.579
 Vibration    18          0.712              1.619              1.268
 Vibration    19          0.714              1.611              1.249
 Vibration    20          0.732              1.562              1.138
 Vibration    21          0.733              1.559              1.131
 Vibration    22          0.766              1.471              0.965
 Vibration    23          0.774              1.450              0.930
 Vibration    24          0.778              1.438              0.909
 Vibration    25          0.786              1.418              0.879
 Vibration    26          0.796              1.393              0.841
 Vibration    27          0.808              1.362              0.798
 Vibration    28          0.824              1.325              0.748
 Vibration    29          0.831              1.307              0.725
 Vibration    30          0.839              1.288              0.703
 Vibration    31          0.858              1.244              0.651
 Vibration    32          0.863              1.232              0.638
 Vibration    33          0.895              1.162              0.565
 Vibration    34          0.920              1.108              0.515
 Vibration    35          0.943              1.062              0.475

                           ! Non-Optimized Parameters !
 Normal termination of Gaussian 16 at Sun Feb 11 03:22:50 2024.
