 Gaussian 16, Revision A.03,
 Gaussian 16:  ES64L-G16RevA.03 25-Dec-2016

 ----------------------------------------------------------------------
 #P UB3LYP/6-311++G(d,p) nosym opt freq SCRF=(PCM,Solvent=n,n-DiMethylF
 ormamide)
 ----------------------------------------------------------------------

 -------
 Reduced
 -------
 Symbolic Z-matrix:
 Charge = -2 Multiplicity = 1

 SCF Done:  E(UB3LYP) =  -1080.22641833     A.U. after   17 cycles
 SCF Done:  E(UB3LYP) =  -1080.22874333     A.U. after   13 cycles
 SCF Done:  E(UB3LYP) =  -1080.22904295     A.U. after   12 cycles
 SCF Done:  E(UB3LYP) =  -1080.22903567     A.U. after   12 cycles
 SCF Done:  E(UB3LYP) =  -1080.22909222     A.U. after   12 cycles
 SCF Done:  E(UB3LYP) =  -1080.22910383     A.U. after   11 cycles
 SCF Done:  E(UB3LYP) =  -1080.22910410     A.U. after    9 cycles
 SCF Done:  E(UB3LYP) =  -1080.22910437     A.U. after   10 cycles
 SCF Done:  E(UB3LYP) =  -1080.22910439     A.U. after    8 cycles
 Optimization completed.
    -- Stationary point found.
 Normal termination of Gaussian 16 at Sun Feb 11 17:36:41 2024.

 ----------------------------------------------------------------------
 #P Geom=AllCheck Guess=TCheck SCRF=Check GenChk UB3LYP/6-311++G(d,p) F
 req
 ----------------------------------------------------------------------

 Structure from the checkpoint file:  "296-an.chk"
 -------
 Reduced
 -------
 Charge = -2 Multiplicity = 1

                          Input orientation:
 ---------------------------------------------------------------------
 Center     Atomic      Atomic             Coordinates (Angstroms)
 Number     Number       Type             X           Y           Z
 ---------------------------------------------------------------------
      1          6           0       -1.623202    3.369053   -0.385152
      2          6           0       -2.624279    3.438958    0.559494
      3          6           0       -2.631931    2.531927    1.651392
      4          6           0       -0.578120    2.402925   -0.306180
      5          6           0       -0.583720    1.474047    0.808376
      6          6           0       -1.631044    1.583770    1.755621
      7          6           0        0.449895    2.338172   -1.285913
      8          6           0        1.424442    1.340251   -1.095118
      9          6           0        1.460428    0.411192   -0.033814
     10          6           0        0.442090    0.453359    0.965899
     11          8           0        0.569426    3.130516   -2.349672
     12          8           0        0.408429   -0.374557    1.976644
     13          8           0        2.395855    1.342586   -2.085080
     14          6           0        2.552019   -0.638489    0.070451
     15          6           0        2.552248   -1.652692   -1.110825
     16          6           0        3.975520   -0.077063    0.262764
     17          6           0        4.974728   -1.192882    0.643719
     18          6           0        4.678846   -2.561574   -0.034877
     19          6           0        3.930724   -2.304647   -1.354517
     20          6           0        5.959209   -3.421295   -0.186144
     21          6           0        5.694237   -4.797338   -0.832217
     22          6           0        6.674102   -3.625890    1.166917
     23          6           0        7.947719   -4.475699    1.048888
     24          6           0        7.665960   -5.833693    0.395805
     25          6           0        6.965336   -5.651646   -0.955476
     26          1           0       -1.608978    4.060621   -1.221356
     27          1           0       -3.406617    4.187365    0.470702
     28          1           0       -3.418500    2.585152    2.397929
     29          1           0       -1.623831    0.885481    2.585947
     30          1           0        2.065062    2.092742   -2.638968
     31          1           0        2.313873   -1.193659    0.981682
     32          1           0        2.227024   -1.155095   -2.027044
     33          1           0        1.814435   -2.436048   -0.898286
     34          1           0        3.970423    0.688951    1.045731
     35          1           0        4.295156    0.424213   -0.654727
     36          1           0        4.975447   -1.321755    1.730795
     37          1           0        5.988457   -0.870779    0.373538
     38          1           0        3.996155   -3.125299    0.618430
     39          1           0        3.790545   -3.228878   -1.920082
     40          1           0        4.547780   -1.651204   -1.985351
     41          1           0        6.647883   -2.870029   -0.846599
     42          1           0        5.250449   -4.676987   -1.823565
     43          1           0        4.954867   -5.336182   -0.222643
     44          1           0        5.975902   -4.118577    1.858798
     45          1           0        6.924447   -2.660889    1.614914
     46          1           0        8.395509   -4.614681    2.039071
     47          1           0        8.688125   -3.933201    0.445973
     48          1           0        7.023402   -6.427693    1.059279
     49          1           0        8.595796   -6.399322    0.271174
     50          1           0        6.716852   -6.626047   -1.390253
     51          1           0        7.657509   -5.166102   -1.656314
 ---------------------------------------------------------------------

 SCF Done:  E(UB3LYP) =  -1080.22910439     A.U. after    1 cycles

 Alpha  occ. eigenvalues --  -19.10499 -19.02211 -19.01210 -10.17446 -10.17020
 Alpha  occ. eigenvalues --  -10.15930 -10.15760 -10.15606 -10.15551 -10.15526
 Alpha  occ. eigenvalues --  -10.15502 -10.15228 -10.15195 -10.14729 -10.14725
 Alpha  occ. eigenvalues --  -10.14596 -10.14355 -10.14344 -10.14258 -10.14087
 Alpha  occ. eigenvalues --  -10.14067 -10.13996 -10.13674 -10.13239 -10.12305
 Alpha  occ. eigenvalues --   -1.01702  -0.92241  -0.91395  -0.83249  -0.82142
 Alpha  occ. eigenvalues --   -0.80817  -0.76914  -0.74739  -0.73350  -0.71960
 Alpha  occ. eigenvalues --   -0.71824  -0.71247  -0.67911  -0.63885  -0.61312
 Alpha  occ. eigenvalues --   -0.60828  -0.58542  -0.58289  -0.57724  -0.55746
 Alpha  occ. eigenvalues --   -0.54479  -0.53237  -0.51406  -0.49361  -0.47617
 Alpha  occ. eigenvalues --   -0.46785  -0.46673  -0.44173  -0.43566  -0.43244
 Alpha  occ. eigenvalues --   -0.42794  -0.42056  -0.41873  -0.40630  -0.40445
 Alpha  occ. eigenvalues --   -0.39653  -0.39070  -0.37918  -0.37619  -0.37187
 Alpha  occ. eigenvalues --   -0.36476  -0.35733  -0.35342  -0.34964  -0.34873
 Alpha  occ. eigenvalues --   -0.34598  -0.34533  -0.33489  -0.33261  -0.32970
 Alpha  occ. eigenvalues --   -0.32279  -0.31847  -0.31062  -0.30709  -0.30223
 Alpha  occ. eigenvalues --   -0.29705  -0.29358  -0.28972  -0.27647  -0.27447
 Alpha  occ. eigenvalues --   -0.26945  -0.22665  -0.21952  -0.21048  -0.19096
 Alpha  occ. eigenvalues --   -0.18752  -0.11064
 Alpha virt. eigenvalues --   -0.00354  -0.00295   0.00147   0.00501   0.00994
 Alpha virt. eigenvalues --    0.01149   0.01647   0.01905   0.02378   0.02717
 Alpha virt. eigenvalues --    0.02750   0.03497   0.03724   0.03983   0.04345

  Beta  occ. eigenvalues --  -19.10499 -19.02211 -19.01210 -10.17446 -10.17020
  Beta  occ. eigenvalues --  -10.15930 -10.15760 -10.15606 -10.15551 -10.15526
  Beta  occ. eigenvalues --  -10.15502 -10.15228 -10.15195 -10.14729 -10.14725
  Beta  occ. eigenvalues --  -10.14596 -10.14355 -10.14344 -10.14258 -10.14087
  Beta  occ. eigenvalues --  -10.14067 -10.13996 -10.13674 -10.13239 -10.12305
  Beta  occ. eigenvalues --   -1.01702  -0.92241  -0.91395  -0.83249  -0.82142
  Beta  occ. eigenvalues --   -0.80817  -0.76914  -0.74739  -0.73350  -0.71960
  Beta  occ. eigenvalues --   -0.71824  -0.71247  -0.67911  -0.63885  -0.61312
  Beta  occ. eigenvalues --   -0.60828  -0.58542  -0.58289  -0.57724  -0.55746
  Beta  occ. eigenvalues --   -0.54479  -0.53237  -0.51406  -0.49361  -0.47617
  Beta  occ. eigenvalues --   -0.46785  -0.46673  -0.44173  -0.43566  -0.43244
  Beta  occ. eigenvalues --   -0.42794  -0.42056  -0.41873  -0.40630  -0.40445
  Beta  occ. eigenvalues --   -0.39653  -0.39070  -0.37918  -0.37619  -0.37187
  Beta  occ. eigenvalues --   -0.36476  -0.35733  -0.35342  -0.34964  -0.34873
  Beta  occ. eigenvalues --   -0.34598  -0.34533  -0.33489  -0.33261  -0.32970
  Beta  occ. eigenvalues --   -0.32279  -0.31847  -0.31062  -0.30709  -0.30223
  Beta  occ. eigenvalues --   -0.29705  -0.29358  -0.28972  -0.27647  -0.27447
  Beta  occ. eigenvalues --   -0.26945  -0.22665  -0.21952  -0.21048  -0.19096
  Beta  occ. eigenvalues --   -0.18752  -0.11064
  Beta virt. eigenvalues --   -0.00354  -0.00295   0.00147   0.00501   0.00994
  Beta virt. eigenvalues --    0.01149   0.01647   0.01905   0.02378   0.02717
  Beta virt. eigenvalues --    0.02750   0.03497   0.03724   0.03983   0.04345

 Mulliken charges and spin densities:
               1          2
     1  C   -0.101973   0.000000
     2  C   -0.409439  -0.000000
     3  C   -0.529896  -0.000000
     4  C    0.487110  -0.000000
     5  C    0.353008  -0.000000
     6  C   -0.093021   0.000000
     7  C   -0.770032   0.000000
     8  C   -0.283029  -0.000000
     9  C    0.566231   0.000000
    10  C   -0.449304  -0.000000
    11  O   -0.749263   0.000000
    12  O   -0.681091   0.000000
    13  O   -0.312084   0.000000
    14  C    0.832200   0.000000
    15  C   -0.876734   0.000000
    16  C   -1.144211  -0.000000
    17  C   -0.325959   0.000000
    18  C    0.502148   0.000000
    19  C   -0.591310   0.000000
    20  C    0.144845   0.000000
    21  C   -0.309884  -0.000000
    22  C   -0.247634   0.000000
    23  C   -0.372435  -0.000000
    24  C   -0.403619   0.000000
    25  C   -0.481466   0.000000
    26  H    0.143002   0.000000
    27  H    0.152742  -0.000000
    28  H    0.153364   0.000000
    29  H    0.149016  -0.000000
    30  H    0.280637  -0.000000
    31  H    0.244886  -0.000000
    32  H    0.184151   0.000000
    33  H    0.163058   0.000000
    34  H    0.178788   0.000000
    35  H    0.171069   0.000000
    36  H    0.135132  -0.000000
    37  H    0.158599  -0.000000
    38  H    0.157043  -0.000000
    39  H    0.124443  -0.000000
    40  H    0.164306   0.000000
    41  H    0.155837  -0.000000
    42  H    0.137433   0.000000
    43  H    0.163220  -0.000000
    44  H    0.164116   0.000000
    45  H    0.160176   0.000000
    46  H    0.169694  -0.000000
    47  H    0.138994   0.000000
    48  H    0.122082  -0.000000
    49  H    0.171715   0.000000
    50  H    0.170254  -0.000000
    51  H    0.133087  -0.000000
 Sum of Mulliken charges =  -2.00000  -0.00000

 Dipole moment (field-independent basis, Debye):
    X=             -4.0190    Y=            -13.3914    Z=              1.2797  Tot=             14.0399
 Quadrupole moment (field-independent basis, Debye-Ang):
   XX=           -181.0129   YY=           -208.9926   ZZ=           -198.3945
   XY=              1.5670   XZ=              6.2702   YZ=             24.1648

  Exact polarizability: 469.709 -99.640 410.260 -62.237 -33.851 403.927
 Approx polarizability: 498.472 -87.221 434.895 -81.190 -49.389 457.424

                      1                      2                      3
                      A                      A                      A
 Frequencies --     21.1935                33.8291                36.9359
 Red. masses --      4.1408                 4.0115                 5.0162
 Frc consts  --      0.0011                 0.0027                 0.0040
 IR Inten    --      0.2631                 1.6584                 2.4882

                      4                      5                      6
                      A                      A                      A
 Frequencies --     63.9101                79.3825                93.2940
 Red. masses --      2.9915                 3.6613                 6.0698
 Frc consts  --      0.0072                 0.0136                 0.0311
 IR Inten    --      0.9079                 5.4332                14.2683

                      7                      8                      9
                      A                      A                      A
 Frequencies --    122.6444               133.6396               156.5702
 Red. masses --      4.6080                 3.9127                 4.5376
 Frc consts  --      0.0408                 0.0412                 0.0655
 IR Inten    --      0.8231                 8.7286                 1.1918

                     10                     11                     12
                      A                      A                      A
 Frequencies --    158.0367               174.9942               198.7742
 Red. masses --      3.4491                 6.0656                 2.1682
 Frc consts  --      0.0508                 0.1094                 0.0505
 IR Inten    --      3.0220                 3.7466                 2.4708

                     13                     14                     15
                      A                      A                      A
 Frequencies --    216.4037               223.1969               232.4764
 Red. masses --      2.3938                 2.8502                 2.3453
 Frc consts  --      0.0660                 0.0837                 0.0747
 IR Inten    --      9.3966                 0.5070                 0.4373

                     16                     17                     18
                      A                      A                      A
 Frequencies --    270.6781               306.3776               322.6862
 Red. masses --      5.8961                 2.1441                 3.6277
 Frc consts  --      0.2545                 0.1186                 0.2226
 IR Inten    --      5.2710                 0.9877                 7.4503

                     19                     20                     21
                      A                      A                      A
 Frequencies --    340.5958               344.6235               366.2820
 Red. masses --      5.2093                 5.2774                 8.4688
 Frc consts  --      0.3560                 0.3693                 0.6694
 IR Inten    --     28.0020                 5.1224                 2.2642

                     22                     23                     24
                      A                      A                      A
 Frequencies --    372.1083               391.1582               419.8617
 Red. masses --      3.7661                 1.8446                 4.5446
 Frc consts  --      0.3072                 0.1663                 0.4720
 IR Inten    --      0.7370                 0.5200                 1.9948

                     25                     26                     27
                      A                      A                      A
 Frequencies --    434.1855               440.6022               447.8362
 Red. masses --      4.8600                 3.3793                 2.8933
 Frc consts  --      0.5398                 0.3865                 0.3419
 IR Inten    --      7.8389                 1.2396                 0.5181

                     28                     29                     30
                      A                      A                      A
 Frequencies --    469.5263               479.2628               486.2980
 Red. masses --      3.2758                 3.3817                 3.2617
 Frc consts  --      0.4255                 0.4576                 0.4545
 IR Inten    --      4.0148                 4.3674                 2.5405

                     31                     32                     33
                      A                      A                      A
 Frequencies --    505.5780               507.2959               545.3963
 Red. masses --      3.0788                 3.0290                 5.1703
 Frc consts  --      0.4637                 0.4593                 0.9061
 IR Inten    --      1.6386                 1.4967                 2.7531

                     34                     35                     36
                      A                      A                      A
 Frequencies --    565.7828               601.1980               653.7408
 Red. masses --      4.4937                 2.4319                 5.4943
 Frc consts  --      0.8475                 0.5179                 1.3835
 IR Inten    --      1.0328                14.1353                35.2955

                     37                     38                     39
                      A                      A                      A
 Frequencies --    676.8955               694.5750               703.2326
 Red. masses --      2.8418                 3.0108                 4.5061
 Frc consts  --      0.7672                 0.8558                 1.3129
 IR Inten    --     27.1352                74.0880                 7.9034

                     40                     41                     42
                      A                      A                      A
 Frequencies --    716.0412               746.0576               757.5578
 Red. masses --      5.4031                 1.3137                 1.7298
 Frc consts  --      1.6322                 0.4308                 0.5849
 IR Inten    --      1.2975               199.6638                 5.1728

                     43                     44                     45
                      A                      A                      A
 Frequencies --    779.4669               780.1871               785.5801
 Red. masses --      3.4331                 1.9668                 2.7005
 Frc consts  --      1.2289                 0.7053                 0.9819
 IR Inten    --      4.8050                 5.3251                25.3433

                     46                     47                     48
                      A                      A                      A
 Frequencies --    791.6990               810.4755               845.1802
 Red. masses --      1.4998                 2.6095                 1.5186
 Frc consts  --      0.5539                 1.0099                 0.6391
 IR Inten    --      0.3828                19.8586                 0.7040

                     49                     50                     51
                      A                      A                      A
 Frequencies --    849.8811               862.8448               878.9712
 Red. masses --      1.9031                 2.6503                 2.3315
 Frc consts  --      0.8099                 1.1625                 1.0613
 IR Inten    --      9.7739                49.0621                24.7554

                     52                     53                     54
                      A                      A                      A
 Frequencies --    896.3422               912.2212               918.8677
 Red. masses --      1.8734                 1.8528                 2.1612
 Frc consts  --      0.8868                 0.9084                 1.0751
 IR Inten    --      9.7363                13.9464                23.4319

                     55                     56                     57
                      A                      A                      A
 Frequencies --    923.4936               928.8829               951.8198
 Red. masses --      1.6535                 2.1362                 2.3663
 Frc consts  --      0.8309                 1.0860                 1.2631
 IR Inten    --      7.2142                13.2670                 6.9012

                     58                     59                     60
                      A                      A                      A
 Frequencies --    953.6304               965.6327               973.3405
 Red. masses --      3.6486                 1.3582                 1.2345
 Frc consts  --      1.9549                 0.7462                 0.6891
 IR Inten    --     40.5385                 4.0854                 0.2171

                     61                     62                     63
                      A                      A                      A
 Frequencies --    981.9420              1020.2315              1028.7417
 Red. masses --      2.4314                 2.2057                 2.3612
 Frc consts  --      1.3813                 1.3527                 1.4723
 IR Inten    --     29.2329               128.0693                96.5083

                     64                     65                     66
                      A                      A                      A
 Frequencies --   1040.7255              1054.1213              1062.5356
 Red. masses --      1.9044                 1.6913                 3.5945
 Frc consts  --      1.2153                 1.1072                 2.3910
 IR Inten    --     10.9417                10.8571               462.2721

                     67                     68                     69
                      A                      A                      A
 Frequencies --   1082.1397              1087.5811              1094.5527
 Red. masses --      2.5171                 1.6325                 2.0651
 Frc consts  --      1.7366                 1.1377                 1.4577
 IR Inten    --      2.0212                 0.9396                 0.5243

                     70                     71                     72
                      A                      A                      A
 Frequencies --   1098.5930              1105.8085              1111.2514
 Red. masses --      2.2456                 2.5262                 2.3075
 Frc consts  --      1.5968                 1.8200                 1.6788
 IR Inten    --     41.8530                31.9883                40.7168

                     73                     74                     75
                      A                      A                      A
 Frequencies --   1120.2220              1122.8415              1124.8278
 Red. masses --      2.1390                 2.2609                 1.0855
 Frc consts  --      1.5815                 1.6794                 0.8092
 IR Inten    --      4.7856                33.1337                 0.2621

                     76                     77                     78
                      A                      A                      A
 Frequencies --   1146.8144              1161.6649              1180.0159
 Red. masses --      1.9012                 2.3557                 1.7626
 Frc consts  --      1.4732                 1.8730                 1.4460
 IR Inten    --     14.4588                30.8207               108.9200

                     79                     80                     81
                      A                      A                      A
 Frequencies --   1202.3886              1217.0935              1226.2110
 Red. masses --      1.4467                 1.6651                 2.0875
 Frc consts  --      1.2323                 1.4533                 1.8493
 IR Inten    --      1.2416                 1.5345               200.5530

                     82                     83                     84
                      A                      A                      A
 Frequencies --   1250.6627              1255.8494              1259.3129
 Red. masses --      1.3373                 1.3582                 1.6018
 Frc consts  --      1.2325                 1.2620                 1.4966
 IR Inten    --     10.4441                64.1565                35.1722

                     85                     86                     87
                      A                      A                      A
 Frequencies --   1279.4524              1284.7342              1287.0961
 Red. masses --      1.5319                 1.2499                 1.2172
 Frc consts  --      1.4775                 1.2155                 1.1880
 IR Inten    --     44.1958                 6.6216                 2.6206

                     88                     89                     90
                      A                      A                      A
 Frequencies --   1305.0800              1315.0020              1321.7114
 Red. masses --      1.4161                 3.7435                 1.4688
 Frc consts  --      1.4211                 3.8140                 1.5118
 IR Inten    --    116.2509               487.1124                64.1282

                     91                     92                     93
                      A                      A                      A
 Frequencies --   1331.4187              1335.6613              1341.0066
 Red. masses --      1.3686                 1.3286                 1.2843
 Frc consts  --      1.4294                 1.3965                 1.3608
 IR Inten    --     29.5436                76.8452                17.9359

                     94                     95                     96
                      A                      A                      A
 Frequencies --   1344.2753              1347.0328              1359.3785
 Red. masses --      1.5307                 1.4145                 1.3364
 Frc consts  --      1.6297                 1.5122                 1.4551
 IR Inten    --     42.1274                24.0189                 0.6838

                     97                     98                     99
                      A                      A                      A
 Frequencies --   1364.2713              1365.8090              1372.7892
 Red. masses --      1.4003                 1.4158                 1.5084
 Frc consts  --      1.5355                 1.5561                 1.6748
 IR Inten    --      0.7204                 0.3156                50.2202

                    100                    101                    102
                      A                      A                      A
 Frequencies --   1373.4858              1374.1800              1376.2053
 Red. masses --      1.5260                 1.5713                 4.0862
 Frc consts  --      1.6961                 1.7482                 4.5596
 IR Inten    --     26.0796                35.6709              1305.3448

                    103                    104                    105
                      A                      A                      A
 Frequencies --   1382.2917              1385.8938              1400.2791
 Red. masses --      1.3826                 1.4495                 1.4791
 Frc consts  --      1.5564                 1.6403                 1.7088
 IR Inten    --    151.8334                 1.5046                 2.0372

                    106                    107                    108
                      A                      A                      A
 Frequencies --   1423.7315              1438.5752              1459.7949
 Red. masses --      4.5258                 2.3939                 2.6440
 Frc consts  --      5.4051                 2.9189                 3.3197
 IR Inten    --     78.0311                57.0842                63.9551

                    109                    110                    111
                      A                      A                      A
 Frequencies --   1477.6150              1480.1622              1480.3729
 Red. masses --      1.0876                 1.0873                 1.0855
 Frc consts  --      1.3991                 1.4035                 1.4016
 IR Inten    --      0.0691                 3.6040                 1.1004

                    112                    113                    114
                      A                      A                      A
 Frequencies --   1481.8986              1483.3344              1484.6849
 Red. masses --      1.0935                 1.0839                 1.0850
 Frc consts  --      1.4148                 1.4052                 1.4091
 IR Inten    --      6.4916                 6.5183                 8.9962

                    115                    116                    117
                      A                      A                      A
 Frequencies --   1490.3775              1497.1813              1506.5714
 Red. masses --      1.0952                 1.0997                 1.0904
 Frc consts  --      1.4333                 1.4523                 1.4581
 IR Inten    --      4.1858                 1.0530                 3.9714

                    118                    119                    120
                      A                      A                      A
 Frequencies --   1516.5444              1541.9061              1592.4291
 Red. masses --      4.0595                 4.7962                 5.0644
 Frc consts  --      5.5009                 6.7184                 7.5665
 IR Inten    --      0.9742               306.0122               157.9925

                    121                    122                    123
                      A                      A                      A
 Frequencies --   1611.3935              2951.5062              2965.9719
 Red. masses --      5.6761                 1.0790                 1.0824
 Frc consts  --      8.6837                 5.5380                 5.6101
 IR Inten    --      4.4293                11.5885                32.9364

                    124                    125                    126
                      A                      A                      A
 Frequencies --   2982.5199              2989.4175              2992.3236
 Red. masses --      1.0711                 1.0735                 1.0693
 Frc consts  --      5.6134                 5.6522                 5.6409
 IR Inten    --     26.5603                43.8614                53.2350

                    127                    128                    129
                      A                      A                      A
 Frequencies --   2994.4030              2995.3224              2996.9751
 Red. masses --      1.0628                 1.0664                 1.0629
 Frc consts  --      5.6146                 5.6369                 5.6249
 IR Inten    --     50.0010                54.0110                58.0941

                    130                    131                    132
                      A                      A                      A
 Frequencies --   2997.5554              3001.4402              3020.6776
 Red. masses --      1.0686                 1.0668                 1.0707
 Frc consts  --      5.6572                 5.6623                 5.7558
 IR Inten    --    156.2425               140.7554               108.7805

                    133                    134                    135
                      A                      A                      A
 Frequencies --   3033.8317              3035.2824              3037.0960
 Red. masses --      1.0867                 1.0983                 1.0904
 Frc consts  --      5.8930                 5.9618                 5.9256
 IR Inten    --     19.4227               100.0351               143.3184

                    136                    137                    138
                      A                      A                      A
 Frequencies --   3039.1486              3041.2030              3055.0232
 Red. masses --      1.0896                 1.1033                 1.0922
 Frc consts  --      5.9294                 6.0123                 6.0060
 IR Inten    --     41.6854               166.7426                44.8699

                    139                    140                    141
                      A                      A                      A
 Frequencies --   3064.0329              3067.1170              3071.0290
 Red. masses --      1.0912                 1.0958                 1.0889
 Frc consts  --      6.0360                 6.0735                 6.0508
 IR Inten    --     87.0788                27.0029               186.2846

                    142                    143                    144
                      A                      A                      A
 Frequencies --   3074.8728              3134.8141              3150.2495
 Red. masses --      1.0950                 1.0843                 1.0881
 Frc consts  --      6.1000                 6.2779                 6.3624
 IR Inten    --     62.7426                16.1243                28.1580

                    145                    146                    147
                      A                      A                      A
 Frequencies --   3165.9504              3170.9851              3351.0924
 Red. masses --      1.0908                 1.0942                 1.0636
 Frc consts  --      6.4420                 6.4826                 7.0375
 IR Inten    --     58.3330                74.0098               301.9670

 - Thermochemistry -
 -------------------
 Temperature   298.150 Kelvin.  Pressure   1.00000 Atm.
 Atom     1 has atomic number  6 and mass  12.00000

 Molecular mass:   338.18819 amu.
 Principal axes and moments of inertia in atomic units:
                           1         2         3
     Eigenvalues --  2758.49829********************
           X            0.74684  -0.29823   0.59438
           Y           -0.66496  -0.34510   0.66237
           Z           -0.00759   0.88992   0.45604
 This molecule is an asymmetric top.
 Rotational symmetry number  1.
 Warning -- assumption of classical behavior for rotation
           may cause significant error
 Rotational temperatures (Kelvin)      0.03140     0.00391     0.00367
 Rotational constants (GHZ):           0.65425     0.08147     0.07653
 Zero-point vibrational energy    1136146.3 (Joules/Mol)
                                  271.54548 (Kcal/Mol)
 Warning -- explicit consideration of  35 degrees of freedom as
           vibrations may cause significant error
 Vibrational temperatures:     30.49    48.67    53.14    91.95   114.21
          (Kelvin)            134.23   176.46   192.28   225.27   227.38
                              251.78   285.99   311.36   321.13   334.48
                              389.45   440.81   464.27   490.04   495.84
                              527.00   535.38   562.79   604.09   624.70
                              633.93   644.34   675.54   689.55   699.67
                              727.41   729.89   784.70   814.04   864.99
                              940.59   973.90   999.34  1011.79  1030.22
                             1073.41  1089.96  1121.48  1122.52  1130.27
                             1139.08  1166.09  1216.03  1222.79  1241.44
                             1264.64  1289.64  1312.48  1322.05  1328.70
                             1336.46  1369.46  1372.06  1389.33  1400.42
                             1412.80  1467.89  1480.13  1497.37  1516.65
                             1528.75  1556.96  1564.79  1574.82  1580.63
                             1591.01  1598.84  1611.75  1615.52  1618.38
                             1650.01  1671.38  1697.78  1729.97  1751.13
                             1764.24  1799.42  1806.89  1811.87  1840.85
                             1848.45  1851.84  1877.72  1891.99  1901.65
                             1915.61  1921.72  1929.41  1934.11  1938.08
                             1955.84  1962.88  1965.09  1975.14  1976.14
                             1977.14  1980.05  1988.81  1993.99  2014.69
                             2048.43  2069.79  2100.32  2125.96  2129.62
                             2129.93  2132.12  2134.19  2136.13  2144.32
                             2154.11  2167.62  2181.97  2218.46  2291.15
                             2318.44  4246.56  4267.37  4291.18  4301.11
                             4305.29  4308.28  4309.60  4311.98  4312.81
                             4318.40  4346.08  4365.01  4367.09  4369.70
                             4372.66  4375.61  4395.50  4408.46  4412.90
                             4418.53  4424.06  4510.30  4532.51  4555.10
                             4562.34  4821.47

 Zero-point correction=                           0.432735 (Hartree/Particle)
 Thermal correction to Energy=                    0.454387
 Thermal correction to Enthalpy=                  0.455331
 Thermal correction to Gibbs Free Energy=         0.381731
 Sum of electronic and zero-point Energies=          -1079.796369
 Sum of electronic and thermal Energies=             -1079.774717
 Sum of electronic and thermal Enthalpies=           -1079.773773
 Sum of electronic and thermal Free Energies=        -1079.847373

                     E (Thermal)             CV                S
                      KCal/Mol        Cal/Mol-Kelvin    Cal/Mol-Kelvin
 Total                  285.132             88.188            154.905
 Electronic               0.000              0.000              0.000
 Translational            0.889              2.981             43.350
 Rotational               0.889              2.981             35.620
 Vibrational            283.355             82.227             75.935
 Vibration     1          0.593              1.985              6.519
 Vibration     2          0.594              1.983              5.591
 Vibration     3          0.594              1.982              5.417
 Vibration     4          0.597              1.972              4.333
 Vibration     5          0.600              1.963              3.906
 Vibration     6          0.602              1.954              3.590
 Vibration     7          0.610              1.930              3.058
 Vibration     8          0.613              1.920              2.893
 Vibration     9          0.620              1.895              2.591
 Vibration    10          0.621              1.894              2.573
 Vibration    11          0.627              1.873              2.381
 Vibration    12          0.637              1.842              2.144
 Vibration    13          0.645              1.816              1.989
 Vibration    14          0.649              1.806              1.933
 Vibration    15          0.653              1.791              1.860
 Vibration    16          0.674              1.727              1.592
 Vibration    17          0.697              1.662              1.382
 Vibration    18          0.708              1.630              1.296
 Vibration    19          0.720              1.594              1.209
 Vibration    20          0.723              1.586              1.191
 Vibration    21          0.739              1.542              1.095
 Vibration    22          0.744              1.529              1.071
 Vibration    23          0.759              1.489              0.996
 Vibration    24          0.783              1.427              0.892
 Vibration    25          0.795              1.396              0.845
 Vibration    26          0.801              1.382              0.825
 Vibration    27          0.807              1.366              0.802
 Vibration    28          0.827              1.318              0.739
 Vibration    29          0.836              1.296              0.712
 Vibration    30          0.842              1.280              0.693
 Vibration    31          0.861              1.238              0.644
 Vibration    32          0.862              1.234              0.640
 Vibration    33          0.901              1.150              0.554
 Vibration    34          0.922              1.105              0.512
 Vibration    35          0.959              1.029              0.448

 Optimization completed.
    -- Stationary point found.
 Normal termination of Gaussian 16 at Sun Feb 11 23:46:29 2024.
