 Q-Chem 5.4, Q-Chem, Inc., Pleasanton, CA (2021)
 Q-Chem 5.4.0 for Intel X86 EM64T Linux

User input:
--------------------------------------------------------------
$molecule
0 1
C                 -2.2268610000     -0.3778130000      0.0028140000
C                 -0.7635490000     -0.0594980000     -0.0013940000
C                 -0.2652740000      1.1898920000     -0.0392200000
C                  1.1862910000      1.4735550000     -0.0419660000
O                  1.6120890000      2.6177340000     -0.0764900000
C                  2.1125580000      0.3131340000     -0.0009770000
C                  1.6419300000     -0.9390110000      0.0369490000
C                  0.1844950000     -1.2213880000      0.0393630000
O                 -0.2278710000     -2.3689990000      0.0735650000
H                 -2.4926560000     -0.9508690000      0.8954290000
H                 -2.4854370000     -1.0075590000     -0.8529500000
H                 -2.8261820000      0.5326290000     -0.0291370000
H                 -0.9095570000      2.0627010000     -0.0697640000
H                  3.1719020000      0.5449180000     -0.0037360000
H                  2.2881230000     -1.8094240000      0.0675150000
$end

$rem
BASIS  =  6-311++G(d,p)
GUI  =  2
JOB_TYPE  =  SP
METHOD  =  B3LYP
SCF_CONVERGENCE  = 8
SOLVENT_METHOD = sm12
$end

$smx
solvent dimethylformamide
charges CM5
$end

--------------------------------------------------------------

             Standard Nuclear Orientation (Angstroms)
    I     Atom           X                Y                Z
 ----------------------------------------------------------------
    1      C      -2.2268610000    -0.3778130000     0.0028140000
    2      C      -0.7635490000    -0.0594980000    -0.0013940000
    3      C      -0.2652740000     1.1898920000    -0.0392200000
    4      C       1.1862910000     1.4735550000    -0.0419660000
    5      O       1.6120890000     2.6177340000    -0.0764900000
    6      C       2.1125580000     0.3131340000    -0.0009770000
    7      C       1.6419300000    -0.9390110000     0.0369490000
    8      C       0.1844950000    -1.2213880000     0.0393630000
    9      O      -0.2278710000    -2.3689990000     0.0735650000
   10      H      -2.4926560000    -0.9508690000     0.8954290000
   11      H      -2.4854370000    -1.0075590000    -0.8529500000
   12      H      -2.8261820000     0.5326290000    -0.0291370000
   13      H      -0.9095570000     2.0627010000    -0.0697640000
   14      H       3.1719020000     0.5449180000    -0.0037360000
   15      H       2.2881230000    -1.8094240000     0.0675150000
 ----------------------------------------------------------------

   15    -420.8934826529      1.41e-09  Convergence criterion met
 Total energy in the final basis set =     -420.9080645973

                    Orbital Energies (a.u.)
 --------------------------------------------------------------

 Alpha MOs
 -- Occupied --
-19.1398 -19.1359 -10.2836 -10.2812 -10.2186 -10.2094 -10.2086 -10.2017
-10.1740  -1.0704  -1.0652  -0.8642  -0.8064  -0.7278  -0.6911  -0.6272
 -0.5916  -0.5242  -0.5050  -0.4789  -0.4570  -0.4508  -0.4391  -0.4252
 -0.4231  -0.4058  -0.4001  -0.3879  -0.3095  -0.2905  -0.2876  -0.2760

          Ground-State Mulliken Net Atomic Charges

     Atom                 Charge (a.u.)
  ----------------------------------------
      1 C                    -0.040346
      2 C                     1.412657
      3 C                    -0.726636
      4 C                    -0.902341
      5 O                    -0.348721
      6 C                     0.369956
      7 C                     0.513694
      8 C                    -1.429835
      9 O                    -0.302179
     10 H                     0.182291
     11 H                     0.182109
     12 H                     0.225433
     13 H                     0.243373
     14 H                     0.309748
     15 H                     0.310799
  ----------------------------------------
  Sum of atomic charges =     0.000000

                    Cartesian Multipole Moments
 -----------------------------------------------------------------
    Charge (ESU x 10^10)
                -0.0000
    Dipole Moment (Debye)
         X      -0.8176      Y      -0.5917      Z       0.0168
       Tot       1.0094
    Quadrupole Moments (Debye-Ang)
        XX     -45.4019     XY      -8.7587     YY     -68.8312
        XZ       0.3067     YZ       0.4864     ZZ     -52.2542

 Total job time:  121.25s(wall), 759.65s(cpu)
        *  Thank you very much for using Q-Chem.  Have a nice day.  *
