 Gaussian 16, Revision A.03,
 Gaussian 16:  ES64L-G16RevA.03 25-Dec-2016

 ----------------------------------------------------------------
 #P UB3LYP/6-311++G(d,p) SCRF=(PCM,Solvent=n,n-DiMethylFormamide)
 ----------------------------------------------------------------

 ------------------
 Radical PCM in DMF
 ------------------
 Symbolic Z-matrix:
 Charge = -1 Multiplicity = 2

                         Standard orientation:
 ---------------------------------------------------------------------
 Center     Atomic      Atomic             Coordinates (Angstroms)
 Number     Number       Type             X           Y           Z
 ---------------------------------------------------------------------
      1          6           0       -0.206126   -1.491894   -0.020770
      2          6           0        0.976173   -0.680819   -0.028763
      3          6           0        0.976196    0.680815   -0.028755
      4          6           0       -0.206108    1.491926   -0.020812
      5          6           0       -1.438170    0.691982    0.008213
      6          6           0       -1.438171   -0.691896    0.008149
      7          8           0       -0.189411   -2.753578   -0.039935
      8          8           0       -0.189273    2.753611   -0.040026
      9          6           0       -2.730976   -1.470029    0.040261
     10          6           0       -2.731045    1.470017    0.040440
     11          8           0        2.288215    1.148577   -0.115574
     12          8           0        2.288212   -1.148597   -0.115623
     13          6           0        3.059378   -0.000076    0.213140
     14          1           0       -3.323092   -1.240265    0.935425
     15          1           0       -2.508807   -2.537876    0.033647
     16          1           0       -3.366452   -1.240133   -0.824540
     17          1           0       -2.508905    2.537893    0.038416
     18          1           0       -3.325276    1.236586    0.933222
     19          1           0       -3.364421    1.243616   -0.826849
     20          1           0        3.984428   -0.000043   -0.365598
     21          1           0        3.263680   -0.000044    1.298923
 ---------------------------------------------------------------------

 SCF Done:  E(UB3LYP) =  -648.957691802     A.U. after   16 cycles

 The electronic state is 2-A.
 Alpha  occ. eigenvalues --  -19.16029 -19.16028 -19.07948 -19.07947 -10.28024
 Alpha  occ. eigenvalues --  -10.22560 -10.22559 -10.21715 -10.21647 -10.16872
 Alpha  occ. eigenvalues --  -10.16815 -10.15324 -10.15323  -1.12251  -1.02917
 Alpha  occ. eigenvalues --   -1.00200  -0.99760  -0.83314  -0.77817  -0.72543
 Alpha  occ. eigenvalues --   -0.69241  -0.67544  -0.63671  -0.58549  -0.57729
 Alpha  occ. eigenvalues --   -0.52095  -0.51192  -0.49636  -0.45735  -0.44665
 Alpha  occ. eigenvalues --   -0.43401  -0.41748  -0.40192  -0.40113  -0.39171
 Alpha  occ. eigenvalues --   -0.38927  -0.38406  -0.38346  -0.37087  -0.35549
 Alpha  occ. eigenvalues --   -0.35231  -0.34204  -0.33607  -0.26190  -0.24974
 Alpha  occ. eigenvalues --   -0.24285  -0.20934  -0.16111
 Alpha virt. eigenvalues --   -0.00593   0.00788   0.00841   0.01695   0.02776
 Alpha virt. eigenvalues --    0.03269   0.03536   0.03618   0.03948   0.04317
 Alpha virt. eigenvalues --    0.05955   0.06298   0.06342   0.07691   0.07800

  Beta  occ. eigenvalues --  -19.15999 -19.15997 -19.07269 -19.07268 -10.28023
  Beta  occ. eigenvalues --  -10.22386 -10.22385 -10.21627 -10.21558 -10.16775
  Beta  occ. eigenvalues --  -10.16716 -10.15332 -10.15331  -1.12185  -1.02768
  Beta  occ. eigenvalues --   -0.99012  -0.98610  -0.82767  -0.77647  -0.72154
  Beta  occ. eigenvalues --   -0.69092  -0.66795  -0.63585  -0.58218  -0.57409
  Beta  occ. eigenvalues --   -0.51953  -0.50937  -0.49376  -0.45577  -0.44205
  Beta  occ. eigenvalues --   -0.42750  -0.40994  -0.39945  -0.39380  -0.38807
  Beta  occ. eigenvalues --   -0.38399  -0.38276  -0.38172  -0.35989  -0.35044
  Beta  occ. eigenvalues --   -0.34993  -0.32990  -0.32277  -0.24357  -0.23662
  Beta  occ. eigenvalues --   -0.23655  -0.20265
  Beta virt. eigenvalues --   -0.08933  -0.00552   0.00814   0.01707   0.02172
  Beta virt. eigenvalues --    0.02892   0.03354   0.03655   0.03745   0.04314
  Beta virt. eigenvalues --    0.05914   0.05995   0.06408   0.06482   0.07735

 Mulliken charges and spin densities:
               1          2
     1  C   -0.928564   0.095529
     2  C    0.311996   0.053227
     3  C    0.311907   0.053259
     4  C   -0.928740   0.095526
     5  C    0.662778   0.088170
     6  C    0.662757   0.088210
     7  O   -0.514946   0.246147
     8  O   -0.514961   0.246159
     9  C   -0.465798   0.003232
    10  C   -0.465740   0.003236
    11  O   -0.208887   0.008304
    12  O   -0.208858   0.008291
    13  C   -0.059101   0.001433
    14  H    0.149533   0.003437
    15  H    0.181196  -0.001541
    16  H    0.150720   0.003437
    17  H    0.181179  -0.001540
    18  H    0.149286   0.003410
    19  H    0.150985   0.003461
    20  H    0.189940  -0.000231
    21  H    0.193320  -0.001157
 Sum of Mulliken charges =  -1.00000   1.00000

 Dipole moment (field-independent basis, Debye):
    X=             -0.3083    Y=             -0.0003    Z=              0.9105  Tot=              0.9613
 Quadrupole moment (field-independent basis, Debye-Ang):
   XX=            -72.5951   YY=           -124.5298   ZZ=            -77.8653
   XY=             -0.0014   XZ=              1.9208   YZ=              0.0004

 Normal termination of Gaussian 16 at Sun Jan 21 07:22:15 2024.
