 Gaussian 16, Revision A.03,
 Gaussian 16:  ES64L-G16RevA.03 25-Dec-2016

 ---------------------------------------------------
 #P UB3LYP/6-311++G(d,p) nosym opt freq Int=Acc2E=11
 ---------------------------------------------------

 --------
 Oxidized
 --------
 Symbolic Z-matrix:
 Charge =  0 Multiplicity = 1

 SCF Done:  E(UB3LYP) =  -1368.20960195     A.U. after   17 cycles
 Optimization completed.
    -- Stationary point found.
 Normal termination of Gaussian 16 at Thu Jan  4 21:33:02 2024.

 ----------------------------------------------------------------------
 #P Geom=AllCheck Guess=TCheck SCRF=Check GenChk UB3LYP/6-311++G(d,p) F
 req
 ----------------------------------------------------------------------

 Structure from the checkpoint file:  "157-new.chk"
 --------
 Oxidized
 --------
 Charge =  0 Multiplicity = 1

                          Input orientation:
 ---------------------------------------------------------------------
 Center     Atomic      Atomic             Coordinates (Angstroms)
 Number     Number       Type             X           Y           Z
 ---------------------------------------------------------------------
      1          6           0       -1.687197    1.931821   -5.177351
      2          6           0       -1.616116    0.599589   -5.565331
      3          6           0       -1.314556   -0.389112   -4.625044
      4          6           0       -1.456526    2.285958   -3.842760
      5          6           0       -1.153030    1.289935   -2.896518
      6          6           0       -1.084171   -0.045879   -3.297008
      7          6           0       -1.537874    3.711517   -3.455095
      8          6           0       -0.902289    1.633444   -1.467791
      9          6           0       -1.288778    4.070302   -2.031335
     10          6           0       -0.983910    3.073502   -1.077384
     11          6           0       -1.344885    5.392947   -1.580839
     12          6           0       -1.114132    5.738050   -0.253729
     13          6           0       -0.815652    4.744027    0.670635
     14          6           0       -0.751854    3.417306    0.255293
     15          8           0       -1.805312    4.575784   -4.293656
     16          8           0       -0.640162    0.773799   -0.645989
     17          7           0       -1.654351    6.507220   -2.492821
     18          1           0       -1.919481    2.711731   -5.891225
     19          1           0       -1.795103    0.328341   -6.599136
     20          1           0       -1.259782   -1.427563   -4.930618
     21          1           0       -0.849226   -0.797111   -2.553404
     22         16           0       -1.229208    7.519388    0.158006
     23          1           0       -0.638142    5.027461    1.701424
     24          1           0       -1.808122    6.136484   -3.446895
     25          1           0       -2.462129    7.029408   -2.090571
     26          1           0       -0.521261    2.623749    0.955105
     27          8           0       -2.619814    7.818466   -0.297628
     28          8           0       -0.954735    7.643401    1.584760
     29          8           0       -0.217640    8.086069   -0.783224
     30          1           0       -0.883154    7.203965   -2.413722
 ---------------------------------------------------------------------

 SCF Done:  E(UB3LYP) =  -1368.20960195     A.U. after    2 cycles

 Alpha  occ. eigenvalues --  -89.05774 -19.17665 -19.15534 -19.10204 -19.09973
 Alpha  occ. eigenvalues --  -19.09969 -14.45128 -10.32957 -10.30819 -10.29116
 Alpha  occ. eigenvalues --  -10.25781 -10.24489 -10.24353 -10.24209 -10.23968
 Alpha  occ. eigenvalues --  -10.23184 -10.23085 -10.23058 -10.23043 -10.22951
 Alpha  occ. eigenvalues --  -10.22700  -8.11642  -6.07901  -6.07874  -6.07869
 Alpha  occ. eigenvalues --   -1.12431  -1.11101  -1.09023  -1.03733  -0.99100
 Alpha  occ. eigenvalues --   -0.97948  -0.92913  -0.91495  -0.84998  -0.81375
 Alpha  occ. eigenvalues --   -0.80955  -0.80844  -0.72936  -0.71040  -0.69124
 Alpha  occ. eigenvalues --   -0.65723  -0.63354  -0.63225  -0.61739  -0.59623
 Alpha  occ. eigenvalues --   -0.58530  -0.56864  -0.54635  -0.53972  -0.52271
 Alpha  occ. eigenvalues --   -0.51385  -0.50894  -0.49131  -0.48965  -0.48642
 Alpha  occ. eigenvalues --   -0.48224  -0.47323  -0.46320  -0.45213  -0.45196
 Alpha  occ. eigenvalues --   -0.44604  -0.42522  -0.42259  -0.41480  -0.40239
 Alpha  occ. eigenvalues --   -0.40030  -0.34501  -0.33861  -0.33236  -0.33026
 Alpha  occ. eigenvalues --   -0.32004  -0.31381  -0.31095  -0.30838  -0.30510
 Alpha  occ. eigenvalues --   -0.29830  -0.29067  -0.26351
 Alpha virt. eigenvalues --   -0.15391  -0.10924  -0.07078  -0.06175  -0.03031
 Alpha virt. eigenvalues --   -0.02186  -0.00599  -0.00089  -0.00019   0.00353
 Alpha virt. eigenvalues --    0.00854   0.01628   0.01658   0.03110   0.03534

  Beta  occ. eigenvalues --  -89.05774 -19.17665 -19.15534 -19.10204 -19.09973
  Beta  occ. eigenvalues --  -19.09969 -14.45128 -10.32957 -10.30819 -10.29116
  Beta  occ. eigenvalues --  -10.25781 -10.24489 -10.24353 -10.24209 -10.23968
  Beta  occ. eigenvalues --  -10.23184 -10.23085 -10.23058 -10.23043 -10.22951
  Beta  occ. eigenvalues --  -10.22700  -8.11642  -6.07901  -6.07874  -6.07869
  Beta  occ. eigenvalues --   -1.12431  -1.11101  -1.09023  -1.03733  -0.99100
  Beta  occ. eigenvalues --   -0.97948  -0.92913  -0.91495  -0.84998  -0.81375
  Beta  occ. eigenvalues --   -0.80955  -0.80844  -0.72936  -0.71040  -0.69124
  Beta  occ. eigenvalues --   -0.65723  -0.63354  -0.63225  -0.61739  -0.59623
  Beta  occ. eigenvalues --   -0.58530  -0.56864  -0.54635  -0.53972  -0.52271
  Beta  occ. eigenvalues --   -0.51385  -0.50894  -0.49131  -0.48965  -0.48642
  Beta  occ. eigenvalues --   -0.48224  -0.47323  -0.46320  -0.45213  -0.45196
  Beta  occ. eigenvalues --   -0.44604  -0.42522  -0.42259  -0.41480  -0.40239
  Beta  occ. eigenvalues --   -0.40030  -0.34501  -0.33861  -0.33236  -0.33026
  Beta  occ. eigenvalues --   -0.32004  -0.31381  -0.31095  -0.30838  -0.30510
  Beta  occ. eigenvalues --   -0.29830  -0.29067  -0.26351
  Beta virt. eigenvalues --   -0.15391  -0.10924  -0.07078  -0.06175  -0.03031
  Beta virt. eigenvalues --   -0.02186  -0.00599  -0.00089  -0.00019   0.00353
  Beta virt. eigenvalues --    0.00854   0.01628   0.01658   0.03110   0.03534

 Mulliken charges and spin densities:
               1          2
     1  C    0.108682   0.000000
     2  C   -0.415298   0.000000
     3  C   -0.339326   0.000000
     4  C    0.243537   0.000000
     5  C    0.242808   0.000000
     6  C    0.131739  -0.000000
     7  C   -0.405535  -0.000000
     8  C   -0.535474   0.000000
     9  C    0.256954   0.000000
    10  C    0.575651  -0.000000
    11  C   -0.285676   0.000000
    12  C   -0.967111  -0.000000
    13  C    0.140129  -0.000000
    14  C    0.143386  -0.000000
    15  O   -0.246771  -0.000000
    16  O   -0.183414  -0.000000
    17  N   -0.405141   0.000000
    18  H    0.187052   0.000000
    19  H    0.187704  -0.000000
    20  H    0.190205  -0.000000
    21  H    0.189213   0.000000
    22  S    0.238408   0.000000
    23  H    0.257618  -0.000000
    24  H    0.379512  -0.000000
    25  H    0.377965  -0.000000
    26  H    0.200956   0.000000
    27  O   -0.330818  -0.000000
    28  O    0.015516   0.000000
    29  O   -0.330483  -0.000000
    30  H    0.378014  -0.000000
 Sum of Mulliken charges =  -0.00000   0.00000

 Dipole moment (field-independent basis, Debye):
    X=             -0.7109    Y=             -8.6370    Z=             -8.2790  Tot=             11.9852
 Quadrupole moment (field-independent basis, Debye-Ang):
   XX=           -131.6708   YY=           -220.9375   ZZ=            -97.3751
   XY=              7.3800   XZ=             14.1957   YZ=            -29.4453

  Exact polarizability: 112.673  -9.815 287.331  22.429  51.028 245.825
 Approx polarizability: 194.412 -26.518 441.233  46.836  12.283 419.805

                      1                      2                      3
                      A                      A                      A
 Frequencies --     33.2607                36.7674                72.0564
 Red. masses --      8.4896                 7.6813                 8.3575
 Frc consts  --      0.0055                 0.0061                 0.0256
 IR Inten    --      0.2116                 0.8126                 9.1882

                      4                      5                      6
                      A                      A                      A
 Frequencies --    110.5230               135.1946               135.6967
 Red. masses --      4.4329                 6.7860                 8.8197
 Frc consts  --      0.0319                 0.0731                 0.0957
 IR Inten    --      2.8303                 2.9542                 7.0016

                      7                      8                      9
                      A                      A                      A
 Frequencies --    170.1154               186.5571               215.8326
 Red. masses --      7.5118                 4.3124                13.3070
 Frc consts  --      0.1281                 0.0884                 0.3652
 IR Inten    --      0.4113                 4.6673                 2.8239

                     10                     11                     12
                      A                      A                      A
 Frequencies --    230.2484               255.2670               302.7363
 Red. masses --      7.2614                 4.7010                 8.6394
 Frc consts  --      0.2268                 0.1805                 0.4665
 IR Inten    --      9.2266                 1.5830                 5.0561

                     13                     14                     15
                      A                      A                      A
 Frequencies --    351.7525               352.9253               360.9020
 Red. masses --      4.1983                 3.8988                 1.3628
 Frc consts  --      0.3061                 0.2861                 0.1046
 IR Inten    --     32.9290                 4.3061                 6.4693

                     16                     17                     18
                      A                      A                      A
 Frequencies --    385.6142               391.6817               424.8103
 Red. masses --      6.9796                 7.6175                 3.3614
 Frc consts  --      0.6115                 0.6885                 0.3574
 IR Inten    --      1.0673                25.2222                 0.0234

                     19                     20                     21
                      A                      A                      A
 Frequencies --    437.7098               444.8414               465.1519
 Red. masses --      8.6481                 6.0529                 8.4044
 Frc consts  --      0.9762                 0.7057                 1.0714
 IR Inten    --     94.0920                 0.2792                 0.1906

                     22                     23                     24
                      A                      A                      A
 Frequencies --    475.7214               501.6292               504.8110
 Red. masses --      5.0195                 5.8119                 7.9989
 Frc consts  --      0.6693                 0.8617                 1.2010
 IR Inten    --      0.6865                20.4726                 0.5196

                     25                     26                     27
                      A                      A                      A
 Frequencies --    523.0626               562.2915               577.2691
 Red. masses --     12.2778                 5.9344                 6.3900
 Frc consts  --      1.9792                 1.1055                 1.2546
 IR Inten    --      6.3458                 6.6852                21.9775

                     28                     29                     30
                      A                      A                      A
 Frequencies --    608.5494               666.4624               667.0172
 Red. masses --     11.9178                 6.7323                 5.6614
 Frc consts  --      2.6004                 1.7618                 1.4841
 IR Inten    --    163.7409                 1.1675                 3.0385

                     31                     32                     33
                      A                      A                      A
 Frequencies --    672.4530               714.4736               714.9874
 Red. masses --      6.7917                 7.8121                 5.7443
 Frc consts  --      1.8095                 2.3496                 1.7301
 IR Inten    --    109.9803                 1.7649                 0.3124

                     34                     35                     36
                      A                      A                      A
 Frequencies --    736.4077               795.2189               801.0535
 Red. masses --      2.2389                 5.2365                 6.6345
 Frc consts  --      0.7153                 1.9511                 2.5083
 IR Inten    --     69.0013                 0.6080                 1.2786

                     37                     38                     39
                      A                      A                      A
 Frequencies --    812.2122               880.9720               886.6713
 Red. masses --      1.8329                 7.2171                 1.4247
 Frc consts  --      0.7124                 3.3002                 0.6599
 IR Inten    --      9.1776                28.2130                17.2783

                     40                     41                     42
                      A                      A                      A
 Frequencies --    920.7885               948.6784               981.0727
 Red. masses --      1.3888                 8.9969                 8.5622
 Frc consts  --      0.6937                 4.7707                 4.8556
 IR Inten    --      0.3661                31.9687               243.3200

                     43                     44                     45
                      A                      A                      A
 Frequencies --   1002.4105              1007.0806              1012.8425
 Red. masses --      5.4205                 1.3733                 1.3282
 Frc consts  --      3.2091                 0.8206                 0.8028
 IR Inten    --     45.1604                 1.2014                 0.3961

                     46                     47                     48
                      A                      A                      A
 Frequencies --   1024.6234              1060.3750              1110.0812
 Red. masses --      1.3405                 1.9791                 9.7024
 Frc consts  --      0.8292                 1.3111                 7.0443
 IR Inten    --      0.0865                 5.8489               221.0896

                     49                     50                     51
                      A                      A                      A
 Frequencies --   1114.1841              1120.3186              1155.1607
 Red. masses --      2.1722                 2.1131                 1.6603
 Frc consts  --      1.5888                 1.5626                 1.3053
 IR Inten    --     25.5208                59.1651                51.0144

                     52                     53                     54
                      A                      A                      A
 Frequencies --   1169.8484              1184.4085              1189.9717
 Red. masses --      1.3448                 1.4408                 2.0099
 Frc consts  --      1.0843                 1.1908                 1.6768
 IR Inten    --     54.8212                15.5785                11.1188

                     55                     56                     57
                      A                      A                      A
 Frequencies --   1205.7013              1231.0605              1259.7042
 Red. masses --      2.4855                 2.1338                 4.9065
 Frc consts  --      2.1289                 1.9053                 4.5873
 IR Inten    --      1.2935                24.7466               198.6506

                     58                     59                     60
                      A                      A                      A
 Frequencies --   1268.8897              1306.8919              1319.8950
 Red. masses --      2.2130                 4.8638                 2.6856
 Frc consts  --      2.0994                 4.8945                 2.7566
 IR Inten    --     84.7392               553.9289                90.6533

                     61                     62                     63
                      A                      A                      A
 Frequencies --   1360.2234              1370.5892              1436.5641
 Red. masses --      6.9662                 7.8640                 4.3084
 Frc consts  --      7.5939                 8.7038                 5.2386
 IR Inten    --     89.7456                 9.3280                39.9563

                     64                     65                     66
                      A                      A                      A
 Frequencies --   1479.5301              1486.7616              1492.0320
 Red. masses --      2.1199                 1.4009                 2.6683
 Frc consts  --      2.7341                 1.8245                 3.4998
 IR Inten    --     84.5246               178.8967                74.1405

                     67                     68                     69
                      A                      A                      A
 Frequencies --   1508.9598              1577.6455              1595.0433
 Red. masses --      2.6090                 1.0387                 4.7241
 Frc consts  --      3.5001                 1.5231                 7.0813
 IR Inten    --      1.5764                13.6290                 1.5190

                     70                     71                     72
                      A                      A                      A
 Frequencies --   1604.7618              1613.0316              1624.7156
 Red. masses --      3.8060                 6.7283                 5.6274
 Frc consts  --      5.7749                10.3144                 8.7521
 IR Inten    --    102.6654                 4.6534                85.9023

                     73                     74                     75
                      A                      A                      A
 Frequencies --   1667.9481              1680.6656              1732.5815
 Red. masses --      1.3296                 9.3949                12.1605
 Frc consts  --      2.1793                15.6353                21.5074
 IR Inten    --     55.9342                94.5095               189.9627

                     76                     77                     78
                      A                      A                      A
 Frequencies --   3152.1290              3164.5188              3176.7957
 Red. masses --      1.0922                 1.0323                 1.0876
 Frc consts  --      6.3936                 6.0906                 6.4666
 IR Inten    --    117.6592               127.8658                 2.1391

                     79                     80                     81
                      A                      A                      A
 Frequencies --   3190.2699              3193.6401              3204.2495
 Red. masses --      1.0920                 1.0894                 1.0931
 Frc consts  --      6.5481                 6.5465                 6.6126
 IR Inten    --      6.8779                 2.9984                 1.3762

                     82                     83                     84
                      A                      A                      A
 Frequencies --   3206.1911              3207.6512              3232.9031
 Red. masses --      1.0943                 1.0949                 1.1000
 Frc consts  --      6.6280                 6.6371                 6.7734
 IR Inten    --      0.4169                 7.1178               629.3570

 - Thermochemistry -
 -------------------
 Temperature   298.150 Kelvin.  Pressure   1.00000 Atm.
 Atom     1 has atomic number  6 and mass  12.00000

 Molecular mass:   303.02014 amu.
 Principal axes and moments of inertia in atomic units:
                           1         2         3
     Eigenvalues --  2390.20214********************
           X            0.01081   0.22531   0.97423
           Y            0.85231  -0.51158   0.10885
           Z            0.52292   0.82917  -0.19757
 This molecule is an asymmetric top.
 Rotational symmetry number  1.
 Warning -- assumption of classical behavior for rotation
           may cause significant error
 Rotational temperatures (Kelvin)      0.03624     0.00795     0.00670
 Rotational constants (GHZ):           0.75506     0.16573     0.13965
 Zero-point vibrational energy     557186.4 (Joules/Mol)
                                  133.17075 (Kcal/Mol)
 Warning -- explicit consideration of  28 degrees of freedom as
           vibrations may cause significant error
 Vibrational temperatures:     47.85    52.90   103.67   159.02   194.51
          (Kelvin)            195.24   244.76   268.41   310.53   331.28
                              367.27   435.57   506.09   507.78   519.26
                              554.81   563.54   611.21   629.77   640.03
                              669.25   684.46   721.73   726.31   752.57
                              809.01   830.56   875.57   958.89   959.69
                              967.51  1027.97  1028.71  1059.53  1144.14
                             1152.54  1168.59  1267.52  1275.72  1324.81
                             1364.94  1411.54  1442.25  1448.96  1457.25
                             1474.20  1525.64  1597.16  1603.06  1611.89
                             1662.02  1683.15  1704.10  1712.10  1734.74
                             1771.22  1812.43  1825.65  1880.33  1899.03
                             1957.06  1971.97  2066.90  2128.71  2139.12
                             2146.70  2171.06  2269.88  2294.91  2308.89
                             2320.79  2337.60  2399.81  2418.10  2492.80
                             4535.21  4553.04  4570.70  4590.09  4594.94
                             4610.20  4612.99  4615.09  4651.43

 Zero-point correction=                           0.212221 (Hartree/Particle)
 Thermal correction to Energy=                    0.228591
 Thermal correction to Enthalpy=                  0.229535
 Thermal correction to Gibbs Free Energy=         0.167738
 Sum of electronic and zero-point Energies=          -1367.997381
 Sum of electronic and thermal Energies=             -1367.981011
 Sum of electronic and thermal Enthalpies=           -1367.980067
 Sum of electronic and thermal Free Energies=        -1368.041864

                     E (Thermal)             CV                S
                      KCal/Mol        Cal/Mol-Kelvin    Cal/Mol-Kelvin
 Total                  143.443             64.632            130.063
 Electronic               0.000              0.000              0.000
 Translational            0.889              2.981             43.023
 Rotational               0.889              2.981             34.175
 Vibrational            141.666             58.671             52.866
 Vibration     1          0.594              1.983              5.625
 Vibration     2          0.594              1.982              5.426
 Vibration     3          0.598              1.967              4.096
 Vibration     4          0.606              1.941              3.260
 Vibration     5          0.613              1.918              2.871
 Vibration     6          0.614              1.918              2.864
 Vibration     7          0.625              1.879              2.434
 Vibration     8          0.632              1.858              2.262
 Vibration     9          0.645              1.817              1.994
 Vibration    10          0.652              1.795              1.877
 Vibration    11          0.666              1.754              1.694
 Vibration    12          0.694              1.669              1.402
 Vibration    13          0.728              1.572              1.158
 Vibration    14          0.729              1.569              1.153
 Vibration    15          0.735              1.553              1.118
 Vibration    16          0.754              1.501              1.017
 Vibration    17          0.759              1.488              0.994
 Vibration    18          0.787              1.416              0.876
 Vibration    19          0.798              1.388              0.834
 Vibration    20          0.804              1.372              0.812
 Vibration    21          0.823              1.327              0.751
 Vibration    22          0.832              1.304              0.722
 Vibration    23          0.857              1.246              0.654
 Vibration    24          0.860              1.239              0.646
 Vibration    25          0.878              1.199              0.603
 Vibration    26          0.918              1.113              0.519
 Vibration    27          0.934              1.080              0.490
 Vibration    28          0.967              1.014              0.435

 Optimization completed.
    -- Stationary point found.
 Normal termination of Gaussian 16 at Thu Jan  4 23:01:30 2024.
