 Q-Chem 5.4, Q-Chem, Inc., Pleasanton, CA (2021)
 Q-Chem 5.4.0 for Intel X86 EM64T Linux

User input:
--------------------------------------------------------------
$molecule
0 1
O                 -2.6878420000     -0.1734870000      0.4461790000
C                 -1.3912890000      0.0072970000      0.2430250000
C                 -0.7850470000      1.2154900000      0.2846030000
C                  0.6346730000      1.2833430000      0.0451210000
O                  1.3082130000      2.3087770000      0.0518020000
C                  1.3913120000     -0.0072660000     -0.2430780000
C                  0.7850660000     -1.2155010000     -0.2842470000
C                 -0.6346450000     -1.2833020000     -0.0447570000
O                 -1.3083820000     -2.3086160000     -0.0513620000
O                  2.6878160000      0.1733690000     -0.4468650000
H                 -2.8408890000     -1.1382240000      0.3559620000
H                 -1.3253680000      2.1304040000      0.4894950000
H                  1.3253470000     -2.1304490000     -0.4890340000
H                  2.8410350000      1.1381650000     -0.3568440000
$end
$rem
MAX_SCF_CYCLES=200
BASIS  =  6-311++G(d,p)
GUI  =  2
JOB_TYPE  =  SP
METHOD  =  B3LYP
SOLVENT_METHOD = PCM
$end
$pcm
theory = CPCM
$end
$solvent
dielectric 37.219
opticaldielectric 1.43
$end

--------------------------------------------------------------

             Standard Nuclear Orientation (Angstroms)
    I     Atom           X                Y                Z
 ----------------------------------------------------------------
    1      O      -2.6878420000    -0.1734870000     0.4461790000
    2      C      -1.3912890000     0.0072970000     0.2430250000
    3      C      -0.7850470000     1.2154900000     0.2846030000
    4      C       0.6346730000     1.2833430000     0.0451210000
    5      O       1.3082130000     2.3087770000     0.0518020000
    6      C       1.3913120000    -0.0072660000    -0.2430780000
    7      C       0.7850660000    -1.2155010000    -0.2842470000
    8      C      -0.6346450000    -1.2833020000    -0.0447570000
    9      O      -1.3083820000    -2.3086160000    -0.0513620000
   10      O       2.6878160000     0.1733690000    -0.4468650000
   11      H      -2.8408890000    -1.1382240000     0.3559620000
   12      H      -1.3253680000     2.1304040000     0.4894950000
   13      H       1.3253470000    -2.1304490000    -0.4890340000
   14      H       2.8410350000     1.1381650000    -0.3568440000
 ----------------------------------------------------------------

    9    -532.0984661399      5.50e-06  Convergence criterion met
 Total energy in the final basis set =     -532.0984661399

                    Orbital Energies (a.u.)
 --------------------------------------------------------------

 Alpha MOs
 -- Occupied --
-19.1922 -19.1922 -19.1508 -19.1508 -10.2968 -10.2968 -10.2854 -10.2854
-10.1984 -10.1984  -1.1228  -1.1207  -1.0722  -1.0715  -0.8642  -0.7906
 -0.7123  -0.6517  -0.6435  -0.6017  -0.5502  -0.5374  -0.4873  -0.4868
 -0.4830  -0.4661  -0.4597  -0.4516  -0.4168  -0.4146  -0.4005  -0.3913
 -0.3131  -0.3020  -0.2959  -0.2650

          Ground-State Mulliken Net Atomic Charges

     Atom                 Charge (a.u.)
  ----------------------------------------
      1 O                    -0.207775
      2 C                    -0.122218
      3 C                     0.199377
      4 C                    -0.106753
      5 O                    -0.353853
      6 C                    -0.122045
      7 C                     0.198976
      8 C                    -0.106647
      9 O                    -0.353881
     10 O                    -0.207767
     11 H                     0.324159
     12 H                     0.267121
     13 H                     0.267121
     14 H                     0.324184
  ----------------------------------------
  Sum of atomic charges =     0.000000

                    Cartesian Multipole Moments
 -----------------------------------------------------------------
    Charge (ESU x 10^10)
                 0.0000
    Dipole Moment (Debye)
         X       0.0015      Y       0.0000      Z      -0.0009
       Tot       0.0017
    Quadrupole Moments (Debye-Ang)
        XX     -57.0395     XY      -2.4802     YY     -66.6534
        XZ      -0.2140     YZ      -0.7867     ZZ     -56.6113

 Total job time:  9.89s(wall), 71.28s(cpu)
        *  Thank you very much for using Q-Chem.  Have a nice day.  *
