 Gaussian 16, Revision A.03,
 Gaussian 16:  ES64L-G16RevA.03 25-Dec-2016

 ----------------------------------------------------------------------
 #P UB3LYP/6-311++G(d,p) nosym opt freq SCRF=(PCM,Solvent=n,n-DiMethylF
 ormamide)
 ----------------------------------------------------------------------

 -------
 Radical
 -------
 Symbolic Z-matrix:
 Charge = -1 Multiplicity = 2

 SCF Done:  E(UB3LYP) =  -1065.35024255     A.U. after   18 cycles
 SCF Done:  E(UB3LYP) =  -1065.35079143     A.U. after   15 cycles
 SCF Done:  E(UB3LYP) =  -1065.35065033     A.U. after   15 cycles
 SCF Done:  E(UB3LYP) =  -1065.35092351     A.U. after   14 cycles
 SCF Done:  E(UB3LYP) =  -1065.35086888     A.U. after   14 cycles
 SCF Done:  E(UB3LYP) =  -1065.35097203     A.U. after   13 cycles
 SCF Done:  E(UB3LYP) =  -1065.35099373     A.U. after   12 cycles
 SCF Done:  E(UB3LYP) =  -1065.35102017     A.U. after   13 cycles
 SCF Done:  E(UB3LYP) =  -1065.35102504     A.U. after   12 cycles
 SCF Done:  E(UB3LYP) =  -1065.35103137     A.U. after   11 cycles
 SCF Done:  E(UB3LYP) =  -1065.35103346     A.U. after   10 cycles
 SCF Done:  E(UB3LYP) =  -1065.35103510     A.U. after   11 cycles
 SCF Done:  E(UB3LYP) =  -1065.35103585     A.U. after   10 cycles
 SCF Done:  E(UB3LYP) =  -1065.35103685     A.U. after   10 cycles
 SCF Done:  E(UB3LYP) =  -1065.35103803     A.U. after   10 cycles
 SCF Done:  E(UB3LYP) =  -1065.35103958     A.U. after   10 cycles
 SCF Done:  E(UB3LYP) =  -1065.35104023     A.U. after   10 cycles
 SCF Done:  E(UB3LYP) =  -1065.35104041     A.U. after    9 cycles
 Optimization completed.
    -- Stationary point found.
 Normal termination of Gaussian 16 at Sun Feb 11 00:28:17 2024.

 ----------------------------------------------------------------------
 #P Geom=AllCheck Guess=TCheck SCRF=Check GenChk UB3LYP/6-311++G(d,p) F
 req
 ----------------------------------------------------------------------

 Structure from the checkpoint file:  "207-rad.chk"
 -------
 Radical
 -------
 Charge = -1 Multiplicity = 2

                          Input orientation:
 ---------------------------------------------------------------------
 Center     Atomic      Atomic             Coordinates (Angstroms)
 Number     Number       Type             X           Y           Z
 ---------------------------------------------------------------------
      1          8           0        4.548205   -1.399591   -0.878841
      2          6           0        3.436140   -0.667147   -0.538140
      3          6           0        3.501314    0.666996   -0.145867
      4          6           0        2.331634    1.341441    0.178198
      5          8           0        2.421746    2.634762    0.551629
      6          6           0        1.068588    0.678722    0.114100
      7          6           0       -0.125648    1.430838    0.451785
      8          8           0       -0.015332    2.657889    0.813764
      9          6           0       -1.415006    0.772017    0.367642
     10          6           0       -2.641266    1.439887    0.646816
     11          8           0       -2.643524    2.767422    0.996786
     12          6           0       -3.847704    0.758740    0.564024
     13          6           0       -3.898868   -0.590470    0.206043
     14          6           0       -2.730914   -1.280245   -0.080184
     15          8           0       -2.816052   -2.586017   -0.426910
     16          6           0       -1.466721   -0.615581   -0.010380
     17          6           0       -0.269476   -1.372593   -0.328128
     18          8           0       -0.367992   -2.615192   -0.643758
     19          6           0        1.016169   -0.702395   -0.282982
     20          6           0        2.227056   -1.360486   -0.613544
     21          8           0        2.269227   -2.670200   -1.016545
     22          1           0        5.344665   -0.858320   -0.834547
     23          1           0        4.451403    1.186407   -0.090999
     24          1           0        1.451001    2.899474    0.733530
     25          1           0       -3.559642    3.037733    1.135320
     26          1           0       -4.770091    1.288783    0.782681
     27          1           0       -4.847340   -1.111039    0.146271
     28          1           0       -1.847082   -2.858428   -0.581591
     29          1           0        3.197512   -2.879606   -1.194579
 ---------------------------------------------------------------------

 SCF Done:  E(UB3LYP) =  -1065.35104041     A.U. after    1 cycles

 Alpha  occ. eigenvalues --  -19.17040 -19.15094 -19.14994 -19.12664 -19.12336
 Alpha  occ. eigenvalues --  -19.08810 -19.08690 -10.24271 -10.23970 -10.23835
 Alpha  occ. eigenvalues --  -10.23741 -10.23691 -10.23483 -10.23116 -10.18694
 Alpha  occ. eigenvalues --  -10.18392 -10.18161 -10.17923 -10.17527 -10.17327
 Alpha  occ. eigenvalues --  -10.16996  -1.08781  -1.06328  -1.05381  -1.05356
 Alpha  occ. eigenvalues --   -1.04896  -1.00331  -1.00066  -0.86356  -0.84679
 Alpha  occ. eigenvalues --   -0.79277  -0.75532  -0.74332  -0.73580  -0.68322
 Alpha  occ. eigenvalues --   -0.65696  -0.64526  -0.61059  -0.59701  -0.57661
 Alpha  occ. eigenvalues --   -0.55915  -0.54872  -0.53611  -0.50371  -0.50076
 Alpha  occ. eigenvalues --   -0.48170  -0.47116  -0.46322  -0.45467  -0.45300
 Alpha  occ. eigenvalues --   -0.43288  -0.42880  -0.42840  -0.42056  -0.41565
 Alpha  occ. eigenvalues --   -0.41025  -0.40198  -0.39396  -0.38531  -0.38506
 Alpha  occ. eigenvalues --   -0.37600  -0.36918  -0.36455  -0.36359  -0.35589
 Alpha  occ. eigenvalues --   -0.35410  -0.31177  -0.30297  -0.26869  -0.25563
 Alpha  occ. eigenvalues --   -0.24851  -0.24497  -0.22454  -0.20881  -0.14221
 Alpha virt. eigenvalues --   -0.04380  -0.02638  -0.00855  -0.00117   0.01040
 Alpha virt. eigenvalues --    0.01543   0.01845   0.01862   0.03392   0.04082
 Alpha virt. eigenvalues --    0.04285   0.04358   0.05190   0.05983   0.06218

  Beta  occ. eigenvalues --  -19.17013 -19.15061 -19.14940 -19.12631 -19.12289
  Beta  occ. eigenvalues --  -19.08408 -19.08209 -10.24194 -10.23818 -10.23788
  Beta  occ. eigenvalues --  -10.23704 -10.23465 -10.23381 -10.23083 -10.18679
  Beta  occ. eigenvalues --  -10.18348 -10.18154 -10.17931 -10.17433 -10.17253
  Beta  occ. eigenvalues --  -10.16889  -1.08686  -1.06242  -1.05252  -1.05215
  Beta  occ. eigenvalues --   -1.04720  -0.99694  -0.99307  -0.86115  -0.84521
  Beta  occ. eigenvalues --   -0.78896  -0.75309  -0.74071  -0.73364  -0.67772
  Beta  occ. eigenvalues --   -0.65467  -0.64316  -0.60923  -0.59576  -0.57499
  Beta  occ. eigenvalues --   -0.55796  -0.54742  -0.53503  -0.50177  -0.49940
  Beta  occ. eigenvalues --   -0.48008  -0.47016  -0.46197  -0.45331  -0.44707
  Beta  occ. eigenvalues --   -0.42746  -0.42687  -0.42671  -0.41923  -0.41221
  Beta  occ. eigenvalues --   -0.40393  -0.39619  -0.39331  -0.38422  -0.38041
  Beta  occ. eigenvalues --   -0.37507  -0.36323  -0.36030  -0.35497  -0.35231
  Beta  occ. eigenvalues --   -0.34828  -0.30407  -0.29736  -0.25518  -0.25210
  Beta  occ. eigenvalues --   -0.24318  -0.24149  -0.21222  -0.20160
  Beta virt. eigenvalues --   -0.09073  -0.02997  -0.01635  -0.00838  -0.00105
  Beta virt. eigenvalues --    0.01060   0.01566   0.01873   0.02261   0.03406
  Beta virt. eigenvalues --    0.04112   0.04367   0.04499   0.05889   0.05999

 Mulliken charges and spin densities:
               1          2
     1  O   -0.320948   0.007385
     2  C   -0.434895   0.046490
     3  C    0.216574   0.055976
     4  C   -0.310298   0.024673
     5  O   -0.436942   0.010622
     6  C    0.619148  -0.011639
     7  C   -0.293444   0.099886
     8  O   -0.494415   0.143968
     9  C    0.257645   0.016381
    10  C   -0.253998   0.043562
    11  O   -0.272050   0.009745
    12  C   -0.144908   0.064600
    13  C   -0.077488   0.071919
    14  C   -0.386475   0.043176
    15  O   -0.437302   0.015113
    16  C    0.617631  -0.002781
    17  C   -0.340186   0.129698
    18  O   -0.490393   0.172727
    19  C    0.517170  -0.014199
    20  C   -0.510766   0.082695
    21  O   -0.313589   0.015041
    22  H    0.315783  -0.000231
    23  H    0.194947  -0.005002
    24  H    0.407861  -0.002961
    25  H    0.297197  -0.000472
    26  H    0.168101  -0.006299
    27  H    0.195424  -0.006248
    28  H    0.397190  -0.003584
    29  H    0.313424  -0.000243
 Sum of Mulliken charges =  -1.00000   1.00000

 Dipole moment (field-independent basis, Debye):
    X=              2.4551    Y=              1.7807    Z=             -0.1348  Tot=              3.0359
 Quadrupole moment (field-independent basis, Debye-Ang):
   XX=           -100.7021   YY=           -165.9703   ZZ=           -127.8592
   XY=            -20.4325   XZ=             -8.5089   YZ=             -9.3867

  Exact polarizability: 542.960  -5.362 360.892 -40.976  64.632 157.228
 Approx polarizability: 565.982  -8.372 444.188 -41.969  82.462 183.885

                      1                      2                      3
                      A                      A                      A
 Frequencies --     38.1257                54.9725                96.3476
 Red. masses --      7.7430                 8.2303                 9.7241
 Frc consts  --      0.0066                 0.0147                 0.0532
 IR Inten    --      9.9289                 1.4150                 0.0399

                      4                      5                      6
                      A                      A                      A
 Frequencies --    108.2427               131.0920               167.7965
 Red. masses --      8.1292                 7.1960                 2.1696
 Frc consts  --      0.0561                 0.0729                 0.0360
 IR Inten    --     20.6590                 1.6041                83.0590

                      7                      8                      9
                      A                      A                      A
 Frequencies --    182.2641               183.2801               222.0458
 Red. masses --      2.1511                 5.5818                 7.2736
 Frc consts  --      0.0421                 0.1105                 0.2113
 IR Inten    --    132.5994                27.1023                 0.6960

                     10                     11                     12
                      A                      A                      A
 Frequencies --    270.4313               283.3090               316.0997
 Red. masses --      8.4080                 3.6268                 7.5542
 Frc consts  --      0.3623                 0.1715                 0.4447
 IR Inten    --      0.9505                30.8735                 1.6837

                     13                     14                     15
                      A                      A                      A
 Frequencies --    328.6680               345.0466               375.9896
 Red. masses --      1.3474                 5.3763                 4.2223
 Frc consts  --      0.0858                 0.3771                 0.3517
 IR Inten    --     99.4920                 4.7486                22.6838

                     16                     17                     18
                      A                      A                      A
 Frequencies --    384.1452               387.3749               409.7157
 Red. masses --      7.5027                 7.0052                 5.9571
 Frc consts  --      0.6523                 0.6193                 0.5892
 IR Inten    --      3.0497                42.2566                33.8881

                     19                     20                     21
                      A                      A                      A
 Frequencies --    414.2241               429.5834               435.4173
 Red. masses --      1.5106                 7.3342                 3.1474
 Frc consts  --      0.1527                 0.7974                 0.3516
 IR Inten    --     50.4775                 0.7924                10.4516

                     22                     23                     24
                      A                      A                      A
 Frequencies --    456.8500               463.4975               466.3715
 Red. masses --     10.4690                 9.4067                11.8319
 Frc consts  --      1.2874                 1.1906                 1.5162
 IR Inten    --     49.0813               117.5209                 3.4083

                     25                     26                     27
                      A                      A                      A
 Frequencies --    480.7120               514.5565               534.1203
 Red. masses --      8.4036                 4.8234                 6.8093
 Frc consts  --      1.1442                 0.7524                 1.1445
 IR Inten    --     40.5787                 2.8381                 3.4690

                     28                     29                     30
                      A                      A                      A
 Frequencies --    547.4592               584.5671               616.6061
 Red. masses --      7.1667                 4.3067                 5.5656
 Frc consts  --      1.2655                 0.8671                 1.2467
 IR Inten    --      1.4316                13.2039                19.2395

                     31                     32                     33
                      A                      A                      A
 Frequencies --    634.1476               676.8443               702.8450
 Red. masses --      4.1578                 8.9340                 7.6945
 Frc consts  --      0.9851                 2.4114                 2.2395
 IR Inten    --      0.5543                 1.1596                 0.2109

                     34                     35                     36
                      A                      A                      A
 Frequencies --    705.9052               730.9115               752.5010
 Red. masses --      5.3713                 6.7374                 7.8039
 Frc consts  --      1.5770                 2.1207                 2.6036
 IR Inten    --    124.9437                62.2356                 2.2444

                     37                     38                     39
                      A                      A                      A
 Frequencies --    760.7109               790.1984               811.2066
 Red. masses --      7.8773                 8.2187                 1.5726
 Frc consts  --      2.6858                 3.0236                 0.6097
 IR Inten    --      2.1145               197.1385                 1.5862

                     40                     41                     42
                      A                      A                      A
 Frequencies --    813.3180               847.4605               899.2451
 Red. masses --      1.6810                 9.6832                 1.3230
 Frc consts  --      0.6551                 4.0974                 0.6303
 IR Inten    --    148.6572                24.3624                 1.5920

                     43                     44                     45
                      A                      A                      A
 Frequencies --    928.3929               948.6844               962.8597
 Red. masses --      5.6786                 1.0531                10.0026
 Frc consts  --      2.8838                 0.5584                 5.4637
 IR Inten    --     45.1588               120.8582               670.6529

                     46                     47                     48
                      A                      A                      A
 Frequencies --    966.5112              1011.8127              1078.9330
 Red. masses --      1.0535                 6.1092                 3.4536
 Frc consts  --      0.5799                 3.6850                 2.3687
 IR Inten    --    132.4817                10.5873               400.8574

                     49                     50                     51
                      A                      A                      A
 Frequencies --   1146.1643              1165.9478              1191.3580
 Red. masses --      2.0986                 1.4631                 1.7925
 Frc consts  --      1.6243                 1.1719                 1.4990
 IR Inten    --     19.0837               269.9133                18.4553

                     52                     53                     54
                      A                      A                      A
 Frequencies --   1214.7247              1221.9154              1237.5457
 Red. masses --      2.5391                 1.6377                 6.8750
 Frc consts  --      2.2074                 1.4407                 6.2036
 IR Inten    --    207.2295               269.0555                 7.4943

                     55                     56                     57
                      A                      A                      A
 Frequencies --   1256.5859              1272.1175              1284.9339
 Red. masses --      4.1339                 2.5335                 3.9142
 Frc consts  --      3.8459                 2.4156                 3.8076
 IR Inten    --    356.5161                10.0666               225.8817

                     58                     59                     60
                      A                      A                      A
 Frequencies --   1307.6560              1318.5590              1331.7273
 Red. masses --      2.8239                 3.4189                 4.3710
 Frc consts  --      2.8450                 3.5021                 4.5673
 IR Inten    --    737.8641                39.8073               476.2749

                     61                     62                     63
                      A                      A                      A
 Frequencies --   1359.6159              1383.9094              1411.4892
 Red. masses --      6.2629                 6.8153                 3.7306
 Frc consts  --      6.8212                 7.6904                 4.3791
 IR Inten    --    103.0763               466.7456              1165.1534

                     64                     65                     66
                      A                      A                      A
 Frequencies --   1426.1940              1446.3934              1491.5661
 Red. masses --      3.8078                 4.3384                 2.7005
 Frc consts  --      4.5633                 5.3475                 3.5398
 IR Inten    --    256.6497                63.8886               153.1804

                     67                     68                     69
                      A                      A                      A
 Frequencies --   1504.6576              1551.8214              1572.5706
 Red. masses --      3.1875                 2.7792                 2.8986
 Frc consts  --      4.2518                 3.9433                 4.2233
 IR Inten    --   1353.6561                89.9133               271.9264

                     70                     71                     72
                      A                      A                      A
 Frequencies --   1591.2330              1624.9837              1644.0407
 Red. masses --      4.0354                 5.0505                 3.1150
 Frc consts  --      6.0202                 7.8575                 4.9605
 IR Inten    --    341.7131                44.2245                 3.6293

                     73                     74                     75
                      A                      A                      A
 Frequencies --   1650.9695              2676.5417              2740.2777
 Red. masses --      2.8652                 1.0789                 1.0770
 Frc consts  --      4.6014                 4.5539                 4.7649
 IR Inten    --    574.0896               975.2211              1008.8306

                     76                     77                     78
                      A                      A                      A
 Frequencies --   3151.7115              3179.1710              3186.1173
 Red. masses --      1.0891                 1.0915                 1.0927
 Frc consts  --      6.3742                 6.4998                 6.5357
 IR Inten    --     35.9313                10.1357                20.6485

                     79                     80                     81
                      A                      A                      A
 Frequencies --   3746.3279              3796.0888              3827.8974
 Red. masses --      1.0653                 1.0660                 1.0667
 Frc consts  --      8.8093                 9.0502                 9.2094
 IR Inten    --    265.7601               126.0880               275.8474

 - Thermochemistry -
 -------------------
 Temperature   298.150 Kelvin.  Pressure   1.00000 Atm.
 Atom     1 has atomic number  8 and mass  15.99491

 Molecular mass:   288.02700 amu.
 Principal axes and moments of inertia in atomic units:
                           1         2         3
     Eigenvalues --  3511.757496920.81574**********
           X            0.98161   0.16616   0.09393
           Y           -0.13519   0.95263  -0.27245
           Z           -0.13475   0.25474   0.95757
 This molecule is an asymmetric top.
 Rotational symmetry number  1.
 Warning -- assumption of classical behavior for rotation
           may cause significant error
 Rotational temperatures (Kelvin)      0.02466     0.01251     0.00830
 Rotational constants (GHZ):           0.51391     0.26077     0.17303
 Zero-point vibrational energy     515376.4 (Joules/Mol)
                                  123.17793 (Kcal/Mol)
 Warning -- explicit consideration of  30 degrees of freedom as
           vibrations may cause significant error
 Vibrational temperatures:     54.85    79.09   138.62   155.74   188.61
          (Kelvin)            241.42   262.24   263.70   319.47   389.09
                              407.62   454.80   472.88   496.45   540.97
                              552.70   557.35   589.49   595.98   618.07
                              626.47   657.31   666.87   671.00   691.64
                              740.33   768.48   787.67   841.06   887.16
                              912.40   973.83  1011.24  1015.64  1051.62
                             1082.68  1094.49  1136.92  1167.15  1170.18
                             1219.31  1293.81  1335.75  1364.95  1385.34
                             1390.59  1455.77  1552.34  1649.07  1677.54
                             1714.10  1747.72  1758.06  1780.55  1807.95
                             1830.29  1848.73  1881.43  1897.11  1916.06
                             1956.18  1991.14  2030.82  2051.98  2081.04
                             2146.03  2164.87  2232.72  2262.58  2289.43
                             2337.99  2365.41  2375.38  3850.95  3942.65
                             4534.61  4574.12  4584.11  5390.13  5461.73
                             5507.49

 Zero-point correction=                           0.196297 (Hartree/Particle)
 Thermal correction to Energy=                    0.212978
 Thermal correction to Enthalpy=                  0.213922
 Thermal correction to Gibbs Free Energy=         0.152035
 Sum of electronic and zero-point Energies=          -1065.154744
 Sum of electronic and thermal Energies=             -1065.138062
 Sum of electronic and thermal Enthalpies=           -1065.137118
 Sum of electronic and thermal Free Energies=        -1065.199006

                     E (Thermal)             CV                S
                      KCal/Mol        Cal/Mol-Kelvin    Cal/Mol-Kelvin
 Total                  133.646             66.774            130.253
 Electronic               0.000              0.000              1.377
 Translational            0.889              2.981             42.871
 Rotational               0.889              2.981             33.894
 Vibrational            131.868             60.812             52.110
 Vibration     1          0.594              1.982              5.354
 Vibration     2          0.596              1.976              4.630
 Vibration     3          0.603              1.952              3.527
 Vibration     4          0.606              1.943              3.300
 Vibration     5          0.612              1.922              2.930
 Vibration     6          0.625              1.882              2.460
 Vibration     7          0.630              1.864              2.305
 Vibration     8          0.631              1.863              2.295
 Vibration     9          0.648              1.808              1.942
 Vibration    10          0.674              1.728              1.593
 Vibration    11          0.682              1.705              1.514
 Vibration    12          0.703              1.643              1.330
 Vibration    13          0.712              1.618              1.267
 Vibration    14          0.723              1.585              1.189
 Vibration    15          0.747              1.521              1.055
 Vibration    16          0.753              1.504              1.023
 Vibration    17          0.756              1.497              1.010
 Vibration    18          0.774              1.449              0.928
 Vibration    19          0.778              1.439              0.912
 Vibration    20          0.791              1.406              0.860
 Vibration    21          0.796              1.393              0.841
 Vibration    22          0.815              1.346              0.775
 Vibration    23          0.821              1.331              0.756
 Vibration    24          0.824              1.325              0.748
 Vibration    25          0.837              1.293              0.708
 Vibration    26          0.870              1.218              0.623
 Vibration    27          0.889              1.175              0.578
 Vibration    28          0.903              1.145              0.549
 Vibration    29          0.942              1.065              0.477
 Vibration    30          0.976              0.997              0.422

                           ! Non-Optimized Parameters !
 Normal termination of Gaussian 16 at Sun Feb 11 02:11:46 2024.
