 Gaussian 16, Revision A.03,
 Gaussian 16:  ES64L-G16RevA.03 25-Dec-2016

 ----------------------------------------------------------------------
 #P UB3LYP/6-311++G(d,p) nosym opt freq SCRF=(PCM,Solvent=n,n-DiMethylF
 ormamide)
 ----------------------------------------------------------------------

 -------
 Reduced
 -------
 Symbolic Z-matrix:
 Charge = -2 Multiplicity = 1

 SCF Done:  E(UB3LYP) =  -573.843568293     A.U. after   18 cycles
 SCF Done:  E(UB3LYP) =  -573.844638336     A.U. after   14 cycles
 SCF Done:  E(UB3LYP) =  -573.844660101     A.U. after   15 cycles
 SCF Done:  E(UB3LYP) =  -573.844434863     A.U. after   14 cycles
 SCF Done:  E(UB3LYP) =  -573.844833684     A.U. after   13 cycles
 SCF Done:  E(UB3LYP) =  -573.845033886     A.U. after   13 cycles
 SCF Done:  E(UB3LYP) =  -573.845153491     A.U. after   14 cycles
 SCF Done:  E(UB3LYP) =  -573.845172463     A.U. after   14 cycles
 SCF Done:  E(UB3LYP) =  -573.845287900     A.U. after   14 cycles
 SCF Done:  E(UB3LYP) =  -573.845309913     A.U. after   13 cycles
 SCF Done:  E(UB3LYP) =  -573.849884739     A.U. after   13 cycles
 SCF Done:  E(UB3LYP) =  -573.849881037     A.U. after   13 cycles
 SCF Done:  E(UB3LYP) =  -573.849886386     A.U. after   12 cycles
 SCF Done:  E(UB3LYP) =  -573.849886236     A.U. after   11 cycles
 SCF Done:  E(UB3LYP) =  -573.849886261     A.U. after   10 cycles
 SCF Done:  E(UB3LYP) =  -573.849886547     A.U. after   10 cycles
 SCF Done:  E(UB3LYP) =  -573.849886938     A.U. after   11 cycles
 SCF Done:  E(UB3LYP) =  -573.849887040     A.U. after   10 cycles
 SCF Done:  E(UB3LYP) =  -573.849887095     A.U. after   10 cycles
 Optimization completed.
    -- Stationary point found.
 Normal termination of Gaussian 16 at Sat Feb 10 11:08:07 2024.

 ----------------------------------------------------------------------
 #P Geom=AllCheck Guess=TCheck SCRF=Check GenChk UB3LYP/6-311++G(d,p) F
 req
 ----------------------------------------------------------------------

 Structure from the checkpoint file:  "057-an.chk"
 -------
 Reduced
 -------
 Charge = -2 Multiplicity = 1

                          Input orientation:
 ---------------------------------------------------------------------
 Center     Atomic      Atomic             Coordinates (Angstroms)
 Number     Number       Type             X           Y           Z
 ---------------------------------------------------------------------
      1          6           0       -0.201165    1.005944    0.298218
      2          6           0       -1.336233    0.237283   -0.111520
      3          6           0       -1.265104   -1.116497   -0.371687
      4          6           0       -0.062527   -1.882181   -0.252082
      5          6           0        1.083030   -1.163531    0.181950
      6          6           0        1.027235    0.250350    0.460097
      7          8           0       -0.294060    2.291745    0.446611
      8          8           0       -0.058588   -3.173620   -0.510461
      9          6           0        2.238356    0.976061    0.857119
     10          6           0        2.150990    2.153492    1.819666
     11          8           0        3.380031    0.657965    0.474293
     12          1           0       -2.277102    0.769751   -0.234688
     13          1           0       -2.161916   -1.650178   -0.684020
     14          1           0        2.992797    2.072140    2.514943
     15          1           0        1.206173    2.201146    2.356002
     16          1           0        2.261261    3.091895    1.268298
     17          6           0        2.322356   -1.992394    0.439466
     18          1           0        2.950673   -2.103720   -0.455144
     19          1           0        2.017520   -3.001820    0.728392
     20          1           0        2.959663   -1.565595    1.213625
 ---------------------------------------------------------------------

 SCF Done:  E(UB3LYP) =  -573.849887095     A.U. after    1 cycles

 Alpha  occ. eigenvalues --  -19.07401 -19.02073 -19.00878 -10.22554 -10.18060
 Alpha  occ. eigenvalues --  -10.16322 -10.14132 -10.13178 -10.13159 -10.13062
 Alpha  occ. eigenvalues --  -10.12952 -10.12500  -0.99993  -0.93385  -0.91423
 Alpha  occ. eigenvalues --   -0.78336  -0.73122  -0.71450  -0.66848  -0.62959
 Alpha  occ. eigenvalues --   -0.58072  -0.52283  -0.49206  -0.44514  -0.43392
 Alpha  occ. eigenvalues --   -0.42015  -0.41488  -0.39283  -0.38598  -0.37683
 Alpha  occ. eigenvalues --   -0.36722  -0.35859  -0.35204  -0.34185  -0.32624
 Alpha  occ. eigenvalues --   -0.31581  -0.31236  -0.30348  -0.22812  -0.22382
 Alpha  occ. eigenvalues --   -0.21153  -0.19499  -0.18924  -0.12228
 Alpha virt. eigenvalues --   -0.02255   0.00174   0.01460   0.01564   0.02966
 Alpha virt. eigenvalues --    0.03501   0.03860   0.04333   0.05073   0.05213
 Alpha virt. eigenvalues --    0.06570   0.07029   0.07477   0.08075   0.09070

  Beta  occ. eigenvalues --  -19.07401 -19.02073 -19.00878 -10.22554 -10.18060
  Beta  occ. eigenvalues --  -10.16322 -10.14132 -10.13178 -10.13159 -10.13062
  Beta  occ. eigenvalues --  -10.12952 -10.12500  -0.99993  -0.93385  -0.91423
  Beta  occ. eigenvalues --   -0.78336  -0.73122  -0.71450  -0.66848  -0.62959
  Beta  occ. eigenvalues --   -0.58072  -0.52283  -0.49206  -0.44514  -0.43392
  Beta  occ. eigenvalues --   -0.42015  -0.41488  -0.39283  -0.38598  -0.37683
  Beta  occ. eigenvalues --   -0.36722  -0.35859  -0.35204  -0.34185  -0.32624
  Beta  occ. eigenvalues --   -0.31581  -0.31236  -0.30348  -0.22812  -0.22382
  Beta  occ. eigenvalues --   -0.21153  -0.19499  -0.18924  -0.12228
  Beta virt. eigenvalues --   -0.02255   0.00174   0.01460   0.01564   0.02966
  Beta virt. eigenvalues --    0.03501   0.03860   0.04333   0.05073   0.05213
  Beta virt. eigenvalues --    0.06570   0.07029   0.07477   0.08075   0.09070

 Mulliken charges and spin densities:
               1          2
     1  C   -1.182314  -0.000000
     2  C    0.046069  -0.000000
     3  C    0.091510  -0.000000
     4  C   -0.925676   0.000000
     5  C    0.568074   0.000000
     6  C    1.306967   0.000000
     7  O   -0.635613  -0.000000
     8  O   -0.734771  -0.000000
     9  C   -0.204660  -0.000000
    10  C   -0.623712   0.000000
    11  O   -0.408456   0.000000
    12  H    0.142065  -0.000000
    13  H    0.143634   0.000000
    14  H    0.143094   0.000000
    15  H    0.155838  -0.000000
    16  H    0.168935  -0.000000
    17  C   -0.468473  -0.000000
    18  H    0.145504  -0.000000
    19  H    0.138189   0.000000
    20  H    0.133795  -0.000000
 Sum of Mulliken charges =  -2.00000  -0.00000

 Dipole moment (field-independent basis, Debye):
    X=             -5.1748    Y=              4.7403    Z=              0.4790  Tot=              7.0341
 Quadrupole moment (field-independent basis, Debye-Ang):
   XX=           -105.9589   YY=           -138.4645   ZZ=            -80.1785
   XY=             -0.4757   XZ=             -0.9439   YZ=             -9.5486

  Exact polarizability: 269.314   3.678 239.639  30.341  27.824 134.247
 Approx polarizability: 306.326  -3.079 258.431  30.074  27.417 144.277

                      1                      2                      3
                      A                      A                      A
 Frequencies --     71.7975                83.9495               119.8408
 Red. masses --      3.4789                 3.1158                 3.3728
 Frc consts  --      0.0106                 0.0129                 0.0285
 IR Inten    --      4.2660                10.9696                22.4424

                      4                      5                      6
                      A                      A                      A
 Frequencies --    139.6239               185.9866               215.6700
 Red. masses --      1.4296                 1.2246                 4.0299
 Frc consts  --      0.0164                 0.0250                 0.1104
 IR Inten    --      7.6401                 5.9975                 2.5163

                      7                      8                      9
                      A                      A                      A
 Frequencies --    239.2464               329.9959               336.1501
 Red. masses --      4.1216                 4.4914                 6.5996
 Frc consts  --      0.1390                 0.2882                 0.4394
 IR Inten    --     17.2817                 0.7476                 8.3171

                     10                     11                     12
                      A                      A                      A
 Frequencies --    353.8544               378.8086               408.8768
 Red. masses --      3.4290                 4.9119                 5.4395
 Frc consts  --      0.2530                 0.4153                 0.5358
 IR Inten    --     18.6838                 3.3165                 3.7188

                     13                     14                     15
                      A                      A                      A
 Frequencies --    467.0503               479.3989               557.5012
 Red. masses --      6.1194                 6.2325                 4.6708
 Frc consts  --      0.7865                 0.8439                 0.8553
 IR Inten    --      3.7354                22.2439                34.8790

                     16                     17                     18
                      A                      A                      A
 Frequencies --    593.7287               621.5022               633.5899
 Red. masses --      2.5821                 3.7986                 4.2046
 Frc consts  --      0.5363                 0.8645                 0.9945
 IR Inten    --     31.8883                 1.1715                 8.1125

                     19                     20                     21
                      A                      A                      A
 Frequencies --    655.7549               757.1590               763.4483
 Red. masses --      2.8377                 5.1093                 5.7388
 Frc consts  --      0.7190                 1.7258                 1.9707
 IR Inten    --     28.8806                39.6043                68.7168

                     22                     23                     24
                      A                      A                      A
 Frequencies --    819.9255               854.9694               925.8067
 Red. masses --      2.1379                 3.3805                 1.3337
 Frc consts  --      0.8468                 1.4559                 0.6735
 IR Inten    --     79.6157                95.2706                 6.9503

                     25                     26                     27
                      A                      A                      A
 Frequencies --    972.3133               993.7786              1022.9182
 Red. masses --      1.8247                 2.8440                 1.7898
 Frc consts  --      1.0164                 1.6549                 1.1034
 IR Inten    --     60.3312                81.3695               145.8566

                     28                     29                     30
                      A                      A                      A
 Frequencies --   1038.4380              1045.1019              1120.4956
 Red. masses --      1.5954                 2.1606                 1.8509
 Frc consts  --      1.0136                 1.3904                 1.3691
 IR Inten    --      3.3432               104.6219                 9.8604

                     31                     32                     33
                      A                      A                      A
 Frequencies --   1165.5540              1183.4206              1238.7107
 Red. masses --      1.8993                 3.3172                 4.8483
 Frc consts  --      1.5203                 2.7371                 4.3831
 IR Inten    --    197.0214               495.6429               154.5539

                     34                     35                     36
                      A                      A                      A
 Frequencies --   1304.7643              1327.0572              1375.6565
 Red. masses --      4.6713                 4.7492                 1.2829
 Frc consts  --      4.6854                 4.9277                 1.4304
 IR Inten    --    658.0199               443.4794                30.8866

                     37                     38                     39
                      A                      A                      A
 Frequencies --   1383.9346              1397.9174              1421.3217
 Red. masses --      1.5618                 2.4840                 4.4524
 Frc consts  --      1.7624                 2.8600                 5.2994
 IR Inten    --    100.6737               171.6956               956.7857

                     40                     41                     42
                      A                      A                      A
 Frequencies --   1442.9374              1447.5271              1455.1919
 Red. masses --      1.0698                 1.1000                 1.1452
 Frc consts  --      1.3124                 1.3580                 1.4289
 IR Inten    --     70.5415                90.2755                59.2689

                     43                     44                     45
                      A                      A                      A
 Frequencies --   1487.4348              1499.1622              1576.3161
 Red. masses --      1.1066                 3.9934                 7.9043
 Frc consts  --      1.4425                 5.2880                11.5718
 IR Inten    --     83.8372               373.6163               994.8561

                     46                     47                     48
                      A                      A                      A
 Frequencies --   1603.9399              2979.9058              3022.1040
 Red. masses --      6.6677                 1.0592                 1.0395
 Frc consts  --     10.1066                 5.5416                 5.5934
 IR Inten    --     48.2534               158.7823                81.9649

                     49                     50                     51
                      A                      A                      A
 Frequencies --   3045.0721              3077.6506              3101.7067
 Red. masses --      1.0764                 1.0991                 1.0848
 Frc consts  --      5.8803                 6.1335                 6.1487
 IR Inten    --     76.4259                32.2062                67.7496

                     52                     53                     54
                      A                      A                      A
 Frequencies --   3106.9877              3128.9085              3142.0560
 Red. masses --      1.0977                 1.0930                 1.0979
 Frc consts  --      6.2431                 6.3046                 6.3861
 IR Inten    --     35.9230               118.1113                25.1598

 - Thermochemistry -
 -------------------
 Temperature   298.150 Kelvin.  Pressure   1.00000 Atm.
 Atom     1 has atomic number  6 and mass  12.00000

 Molecular mass:   164.04734 amu.
 Principal axes and moments of inertia in atomic units:
                           1         2         3
     Eigenvalues --  1285.780422105.611193276.22985
           X            0.45723   0.86304  -0.21470
           Y            0.83812  -0.49890  -0.22059
           Z            0.29749   0.07908   0.95144
 This molecule is an asymmetric top.
 Rotational symmetry number  1.
 Warning -- assumption of classical behavior for rotation
           may cause significant error
 Rotational temperatures (Kelvin)      0.06736     0.04113     0.02644
 Rotational constants (GHZ):           1.40362     0.85711     0.55086
 Zero-point vibrational energy     383414.6 (Joules/Mol)
                                   91.63829 (Kcal/Mol)
 Warning -- explicit consideration of  16 degrees of freedom as
           vibrations may cause significant error
 Vibrational temperatures:    103.30   120.78   172.42   200.89   267.59
          (Kelvin)            310.30   344.22   474.79   483.64   509.12
                              545.02   588.28   671.98   689.75   802.12
                              854.24   894.20   911.59   943.49  1089.38
                             1098.43  1179.69  1230.11  1332.03  1398.94
                             1429.83  1471.75  1494.08  1503.67  1612.14
                             1676.97  1702.68  1782.23  1877.26  1909.34
                             1979.26  1991.17  2011.29  2044.96  2076.07
                             2082.67  2093.70  2140.09  2156.96  2267.97
                             2307.71  4287.42  4348.13  4381.18  4428.05
                             4462.66  4470.26  4501.80  4520.72

 Zero-point correction=                           0.146035 (Hartree/Particle)
 Thermal correction to Energy=                    0.157117
 Thermal correction to Enthalpy=                  0.158061
 Thermal correction to Gibbs Free Energy=         0.109275
 Sum of electronic and zero-point Energies=           -573.703852
 Sum of electronic and thermal Energies=              -573.692771
 Sum of electronic and thermal Enthalpies=            -573.691826
 Sum of electronic and thermal Free Energies=         -573.740612

                     E (Thermal)             CV                S
                      KCal/Mol        Cal/Mol-Kelvin    Cal/Mol-Kelvin
 Total                   98.592             41.628            102.678
 Electronic               0.000              0.000              0.000
 Translational            0.889              2.981             41.193
 Rotational               0.889              2.981             30.562
 Vibrational             96.815             35.666             30.923
 Vibration     1          0.598              1.967              4.103
 Vibration     2          0.601              1.960              3.796
 Vibration     3          0.609              1.933              3.103
 Vibration     4          0.615              1.914              2.809
 Vibration     5          0.632              1.859              2.267
 Vibration     6          0.645              1.817              1.995
 Vibration     7          0.657              1.780              1.808
 Vibration     8          0.713              1.616              1.260
 Vibration     9          0.717              1.603              1.230
 Vibration    10          0.730              1.567              1.149
 Vibration    11          0.749              1.515              1.044
 Vibration    12          0.773              1.451              0.931
 Vibration    13          0.824              1.323              0.746
 Vibration    14          0.836              1.296              0.712
 Vibration    15          0.913              1.123              0.529
 Vibration    16          0.951              1.045              0.461

 Optimization completed.
    -- Stationary point found.
 Normal termination of Gaussian 16 at Sat Feb 10 11:18:03 2024.
