 Gaussian 16, Revision A.03,
 Gaussian 16:  ES64L-G16RevA.03 25-Dec-2016

 ----------------------------------------------------------------
 #P UB3LYP/6-311++G(d,p) SCRF=(PCM,Solvent=n,n-DiMethylFormamide)
 ----------------------------------------------------------------

 -------
 Reduced
 -------
 Symbolic Z-matrix:
 Charge = -2 Multiplicity = 1

                         Standard orientation:
 ---------------------------------------------------------------------
 Center     Atomic      Atomic             Coordinates (Angstroms)
 Number     Number       Type             X           Y           Z
 ---------------------------------------------------------------------
      1          6           0       -0.239413   -1.477907   -0.000615
      2          6           0        1.095745   -0.912944   -0.000481
      3          6           0        1.258630    0.477168   -0.000039
      4          6           0        0.239403    1.477906    0.000248
      5          6           0       -1.095753    0.912944    0.000326
      6          6           0       -1.258640   -0.477168   -0.000153
      7          8           0        0.453584    2.749436    0.000398
      8          8           0       -0.453597   -2.749435   -0.000544
      9         35           0       -3.090821   -1.265445    0.000121
     10         35           0        3.090815    1.265434   -0.000093
     11          6           0       -2.267098    1.889170   -0.000066
     12          6           0       -2.287008    2.762691   -1.271978
     13          6           0       -2.287597    2.763166    1.271468
     14          6           0        2.267102   -1.889158    0.000096
     15          6           0        2.287557   -2.763444   -1.271239
     16          6           0        2.287095   -2.762382    1.272212
     17          1           0       -3.185165    1.299543   -0.000215
     18          1           0       -2.383093    2.132479   -2.162953
     19          1           0       -1.355590    3.329460   -1.338502
     20          1           0       -3.139962    3.458798   -1.253931
     21          1           0       -2.384533    2.133325    2.162615
     22          1           0       -3.140313    3.459524    1.252479
     23          1           0       -1.356025    3.329649    1.338304
     24          1           0        3.185159   -1.299515    0.000069
     25          1           0        3.140285   -3.459784   -1.252131
     26          1           0        2.384440   -2.133808   -2.162537
     27          1           0        1.355994   -3.329963   -1.337898
     28          1           0        3.140063   -3.458477    1.254281
     29          1           0        1.355691   -3.329150    1.338918
     30          1           0        2.383220   -2.131959    2.163035
 ---------------------------------------------------------------------

 SCF Done:  E(UB3LYP) =  -5764.86010526     A.U. after   17 cycles

 The electronic state is 1-A.
 Alpha  occ. eigenvalues -- -482.79720-482.79720 -62.45001 -62.45001 -56.26993
 Alpha  occ. eigenvalues --  -56.26993 -56.26681 -56.26681 -56.26651 -56.26651
 Alpha  occ. eigenvalues --  -19.01396 -19.01395 -10.18040 -10.18039 -10.17896
 Alpha  occ. eigenvalues --  -10.17895 -10.15319 -10.15319 -10.14226 -10.14225
 Alpha  occ. eigenvalues --  -10.13515 -10.13514 -10.13513 -10.13513  -8.65953
 Alpha  occ. eigenvalues --   -8.65953  -6.48944  -6.48944  -6.47911  -6.47911
 Alpha  occ. eigenvalues --   -6.47826  -6.47826  -2.60061  -2.60061  -2.59783
 Alpha  occ. eigenvalues --   -2.59783  -2.59719  -2.59718  -2.58897  -2.58897
 Alpha  occ. eigenvalues --   -2.58897  -2.58897  -0.93718  -0.93303  -0.81252
 Alpha  occ. eigenvalues --   -0.79289  -0.76218  -0.75739  -0.73291  -0.67494
 Alpha  occ. eigenvalues --   -0.66132  -0.66128  -0.64127  -0.59675  -0.54905
 Alpha  occ. eigenvalues --   -0.52808  -0.50261  -0.47340  -0.43205  -0.41994
 Alpha  occ. eigenvalues --   -0.41909  -0.40428  -0.39774  -0.38755  -0.38026
 Alpha  occ. eigenvalues --   -0.37263  -0.36998  -0.36500  -0.35754  -0.35035
 Alpha  occ. eigenvalues --   -0.32622  -0.32369  -0.32368  -0.31919  -0.31740
 Alpha  occ. eigenvalues --   -0.31667  -0.31096  -0.30808  -0.28207  -0.27562
 Alpha  occ. eigenvalues --   -0.26196  -0.25326  -0.22358  -0.20325  -0.19356
 Alpha  occ. eigenvalues --   -0.19278  -0.12111
 Alpha virt. eigenvalues --   -0.00857   0.00058   0.00879   0.00896   0.01271
 Alpha virt. eigenvalues --    0.02522   0.02708   0.02781   0.02789   0.03512
 Alpha virt. eigenvalues --    0.04666   0.04799   0.05113   0.05218   0.05382

  Beta  occ. eigenvalues -- -482.79720-482.79720 -62.45001 -62.45001 -56.26993
  Beta  occ. eigenvalues --  -56.26993 -56.26681 -56.26681 -56.26651 -56.26651
  Beta  occ. eigenvalues --  -19.01396 -19.01395 -10.18040 -10.18039 -10.17896
  Beta  occ. eigenvalues --  -10.17895 -10.15319 -10.15319 -10.14226 -10.14225
  Beta  occ. eigenvalues --  -10.13515 -10.13514 -10.13513 -10.13513  -8.65953
  Beta  occ. eigenvalues --   -8.65953  -6.48944  -6.48944  -6.47911  -6.47911
  Beta  occ. eigenvalues --   -6.47826  -6.47826  -2.60061  -2.60061  -2.59783
  Beta  occ. eigenvalues --   -2.59783  -2.59719  -2.59718  -2.58897  -2.58897
  Beta  occ. eigenvalues --   -2.58897  -2.58897  -0.93718  -0.93303  -0.81252
  Beta  occ. eigenvalues --   -0.79289  -0.76218  -0.75739  -0.73291  -0.67494
  Beta  occ. eigenvalues --   -0.66132  -0.66128  -0.64127  -0.59675  -0.54905
  Beta  occ. eigenvalues --   -0.52808  -0.50261  -0.47340  -0.43205  -0.41994
  Beta  occ. eigenvalues --   -0.41909  -0.40428  -0.39774  -0.38755  -0.38026
  Beta  occ. eigenvalues --   -0.37263  -0.36998  -0.36500  -0.35754  -0.35035
  Beta  occ. eigenvalues --   -0.32622  -0.32369  -0.32368  -0.31919  -0.31740
  Beta  occ. eigenvalues --   -0.31667  -0.31096  -0.30808  -0.28207  -0.27562
  Beta  occ. eigenvalues --   -0.26196  -0.25326  -0.22358  -0.20325  -0.19356
  Beta  occ. eigenvalues --   -0.19278  -0.12111
  Beta virt. eigenvalues --   -0.00857   0.00058   0.00879   0.00896   0.01271
  Beta virt. eigenvalues --    0.02522   0.02708   0.02781   0.02789   0.03512
  Beta virt. eigenvalues --    0.04666   0.04799   0.05113   0.05218   0.05382

 Mulliken charges and spin densities:
               1          2
     1  C   -1.050056  -0.000000
     2  C    1.176016   0.000000
     3  C   -0.291836   0.000000
     4  C   -1.050040  -0.000000
     5  C    1.175998   0.000000
     6  C   -0.291862  -0.000000
     7  O   -0.560839   0.000000
     8  O   -0.560837  -0.000000
     9  Br  -0.264542   0.000000
    10  Br  -0.264544   0.000000
    11  C    0.403318  -0.000000
    12  C   -0.710550  -0.000000
    13  C   -0.710752   0.000000
    14  C    0.403318  -0.000000
    15  C   -0.710608  -0.000000
    16  C   -0.710699  -0.000000
    17  H    0.150768  -0.000000
    18  H    0.115214   0.000000
    19  H    0.188629   0.000000
    20  H    0.125364  -0.000000
    21  H    0.115231  -0.000000
    22  H    0.125395  -0.000000
    23  H    0.188656   0.000000
    24  H    0.150764   0.000000
    25  H    0.125408   0.000000
    26  H    0.115221  -0.000000
    27  H    0.188658   0.000000
    28  H    0.125354   0.000000
    29  H    0.188624   0.000000
    30  H    0.115227   0.000000
 Sum of Mulliken charges =  -2.00000   0.00000

 Dipole moment (field-independent basis, Debye):
    X=              0.0001    Y=             -0.0000    Z=              0.0007  Tot=              0.0007
 Quadrupole moment (field-independent basis, Debye-Ang):
   XX=           -161.2856   YY=           -191.7407   ZZ=           -135.4542
   XY=            -16.3580   XZ=              0.0014   YZ=             -0.0110

 Normal termination of Gaussian 16 at Sun Jan 21 07:37:45 2024.
