 Q-Chem 5.4, Q-Chem, Inc., Pleasanton, CA (2021)
 Q-Chem 5.4.0 for Intel X86 EM64T Linux

User input:
--------------------------------------------------------------
$molecule
-2 1
O                 -0.0187140000     -2.5513460000     -0.5995570000
C                 -0.0199610000     -1.3024690000     -0.2401890000
C                  1.2030120000     -0.5985380000      0.0433800000
C                  2.4365900000     -1.3262050000      0.0861200000
C                  3.6119710000     -0.7700500000      0.5378140000
C                  3.6624600000      0.5836580000      0.9796210000
C                  2.5076680000      1.3527020000      0.8795460000
C                  1.3193840000      0.8039350000      0.3931950000
S                 -0.0201460000      1.8817110000      0.0407370000
O                 -0.0132180000      2.2768620000     -1.4000390000
C                 -1.3637060000      0.8048920000      0.3805580000
C                 -2.5561130000      1.3545060000      0.8557300000
C                 -3.7123420000      0.5862860000      0.9449410000
C                 -3.6586700000     -0.7674540000      0.5036060000
C                 -2.4794950000     -1.3244460000      0.0629680000
C                 -1.2450470000     -0.5976640000      0.0318490000
H                  2.3815080000     -2.3622540000     -0.2314450000
H                  4.5159370000     -1.3776270000      0.5678340000
H                  4.5844340000      1.0157470000      1.3584110000
H                  2.5106440000      2.4009510000      1.1640240000
H                 -2.5610090000      2.4027550000      1.1401810000
H                 -4.6375260000      1.0190300000      1.3150570000
H                 -4.5633150000     -1.3743820000      0.5251100000
H                 -2.4221740000     -2.3605290000     -0.2540900000
O                 -0.0241140000      3.0537140000      0.9717190000
$end
$rem
MAX_SCF_CYCLES=200
BASIS  =  6-311++G(d,p)
GUI  =  2
JOB_TYPE  =  SP
METHOD  =  B3LYP
SOLVENT_METHOD = PCM
$end
$pcm
theory = CPCM
$end
$solvent
dielectric 37.219
opticaldielectric 1.43
$end

--------------------------------------------------------------

             Standard Nuclear Orientation (Angstroms)
    I     Atom           X                Y                Z
 ----------------------------------------------------------------
    1      O      -0.0187140000    -2.5513460000    -0.5995570000
    2      C      -0.0199610000    -1.3024690000    -0.2401890000
    3      C       1.2030120000    -0.5985380000     0.0433800000
    4      C       2.4365900000    -1.3262050000     0.0861200000
    5      C       3.6119710000    -0.7700500000     0.5378140000
    6      C       3.6624600000     0.5836580000     0.9796210000
    7      C       2.5076680000     1.3527020000     0.8795460000
    8      C       1.3193840000     0.8039350000     0.3931950000
    9      S      -0.0201460000     1.8817110000     0.0407370000
   10      O      -0.0132180000     2.2768620000    -1.4000390000
   11      C      -1.3637060000     0.8048920000     0.3805580000
   12      C      -2.5561130000     1.3545060000     0.8557300000
   13      C      -3.7123420000     0.5862860000     0.9449410000
   14      C      -3.6586700000    -0.7674540000     0.5036060000
   15      C      -2.4794950000    -1.3244460000     0.0629680000
   16      C      -1.2450470000    -0.5976640000     0.0318490000
   17      H       2.3815080000    -2.3622540000    -0.2314450000
   18      H       4.5159370000    -1.3776270000     0.5678340000
   19      H       4.5844340000     1.0157470000     1.3584110000
   20      H       2.5106440000     2.4009510000     1.1640240000
   21      H      -2.5610090000     2.4027550000     1.1401810000
   22      H      -4.6375260000     1.0190300000     1.3150570000
   23      H      -4.5633150000    -1.3743820000     0.5251100000
   24      H      -2.4221740000    -2.3605290000    -0.2540900000
   25      O      -0.0241140000     3.0537140000     0.9717190000
 ----------------------------------------------------------------

    9   -1124.4480906502      4.40e-06  Convergence criterion met
 Total energy in the final basis set =    -1124.4480906502

                    Orbital Energies (a.u.)
 --------------------------------------------------------------

 Alpha MOs
 -- Occupied --
-89.0225 -19.0943 -19.0920 -19.0138 -10.1716 -10.1716 -10.1684 -10.1663
-10.1663 -10.1566 -10.1566 -10.1524 -10.1524 -10.1483 -10.1483 -10.1479
-10.1479  -8.0863  -6.0495  -6.0480  -6.0471  -1.0779  -0.9700  -0.9297
 -0.8431  -0.8321  -0.7699  -0.7382  -0.7361  -0.7187  -0.6711  -0.6233
 -0.6028  -0.5718  -0.5545  -0.5267  -0.5181  -0.4832  -0.4584  -0.4506
 -0.4425  -0.4350  -0.4282  -0.4185  -0.4098  -0.3969  -0.3760  -0.3692
 -0.3607  -0.3525  -0.3375  -0.3322  -0.3309  -0.3145  -0.3058  -0.3054
 -0.2917  -0.2742  -0.2483  -0.2424  -0.2254  -0.2242  -0.1998  -0.1051

          Ground-State Mulliken Net Atomic Charges

     Atom                 Charge (a.u.)
  ----------------------------------------
      1 O                    -0.736854
      2 C                    -0.033409
      3 C                     1.132617
      4 C                    -0.006351
      5 C                    -0.691530
      6 C                    -0.296638
      7 C                    -0.022295
      8 C                    -1.268599
      9 S                     0.215636
     10 O                    -0.202058
     11 C                    -1.268626
     12 C                    -0.022325
     13 C                    -0.296786
     14 C                    -0.691293
     15 C                    -0.005876
     16 C                     1.132104
     17 H                     0.168859
     18 H                     0.173448
     19 H                     0.179803
     20 H                     0.203160
     21 H                     0.203170
     22 H                     0.179795
     23 H                     0.173423
     24 H                     0.168928
     25 O                    -0.388303
  ----------------------------------------
  Sum of atomic charges =    -2.000001

                    Cartesian Multipole Moments
 -----------------------------------------------------------------
    Charge (ESU x 10^10)
                -9.6064
    Dipole Moment (Debye)
         X       0.1861      Y       0.1520      Z       2.4984
       Tot       2.5099
    Quadrupole Moments (Debye-Ang)
        XX    -125.7245     XY      -0.0034     YY    -165.4360
        XZ      -0.0385     YZ      -2.7541     ZZ    -128.7850

 Total job time:  50.81s(wall), 329.62s(cpu)
        *  Thank you very much for using Q-Chem.  Have a nice day.  *
