 Q-Chem 5.4, Q-Chem, Inc., Pleasanton, CA (2021)
 Q-Chem 5.4.0 for Intel X86 EM64T Linux

User input:
--------------------------------------------------------------
$molecule
0 1
C                 -3.2897930000      3.6092040000      0.0843370000
C                 -4.5210270000      2.9655340000      0.0899110000
C                 -4.5693120000      1.5636990000      0.0667850000
C                 -2.0957690000      2.8858660000      0.0560920000
C                 -2.1535830000      1.4765610000      0.0330030000
C                 -3.3805980000      0.8268500000      0.0383960000
C                 -0.8038100000      3.6133170000      0.0511390000
C                  0.4449080000      2.7871670000      0.0202410000
C                  0.3870940000      1.3778610000     -0.0028430000
C                 -0.9048620000      0.6504060000      0.0023740000
C                  1.6719200000      3.4368810000      0.0146140000
C                  2.8606270000      2.7000310000     -0.0140070000
C                  2.8123450000      1.2981980000     -0.0371330000
C                  1.5811140000      0.6545250000     -0.0313290000
O                 -0.7519040000      4.8338880000      0.0709080000
O                 -0.9567740000     -0.5701570000     -0.0178730000
H                 -3.4160950000     -0.2548970000      0.0205420000
H                  1.5272890000     -0.4271840000     -0.0489520000
H                 -3.2359670000      4.6909130000      0.1019640000
H                  1.7074180000      4.5186270000      0.0324710000
O                  4.0056880000      3.4266460000     -0.0173050000
O                 -5.7143690000      0.8370720000      0.0698670000
C                 -6.9656170000      1.5178280000      0.0966710000
C                  5.2569060000      2.7458470000     -0.0443370000
H                 -5.4283190000      3.5538570000      0.1120660000
H                  3.7196380000      0.7098810000     -0.0594660000
H                 -7.7244010000      0.7378000000      0.0928670000
H                 -7.0917200000      2.1522980000     -0.7864180000
H                 -7.0697980000      2.1221880000      1.0034290000
H                  6.0157160000      3.5258500000     -0.0406600000
H                  5.3609040000      2.1414900000     -0.9511180000
H                  5.3831410000      2.1113650000      0.8387260000
$end

$rem
BASIS  =  6-311++G(d,p)
GUI  =  2
JOB_TYPE  =  SP
METHOD  =  B3LYP
SCF_CONVERGENCE  = 8
SOLVENT_METHOD = sm12
$end

$smx
solvent dimethylformamide
charges CM5
$end

--------------------------------------------------------------

             Standard Nuclear Orientation (Angstroms)
    I     Atom           X                Y                Z
 ----------------------------------------------------------------
    1      C      -3.2897930000     3.6092040000     0.0843370000
    2      C      -4.5210270000     2.9655340000     0.0899110000
    3      C      -4.5693120000     1.5636990000     0.0667850000
    4      C      -2.0957690000     2.8858660000     0.0560920000
    5      C      -2.1535830000     1.4765610000     0.0330030000
    6      C      -3.3805980000     0.8268500000     0.0383960000
    7      C      -0.8038100000     3.6133170000     0.0511390000
    8      C       0.4449080000     2.7871670000     0.0202410000
    9      C       0.3870940000     1.3778610000    -0.0028430000
   10      C      -0.9048620000     0.6504060000     0.0023740000
   11      C       1.6719200000     3.4368810000     0.0146140000
   12      C       2.8606270000     2.7000310000    -0.0140070000
   13      C       2.8123450000     1.2981980000    -0.0371330000
   14      C       1.5811140000     0.6545250000    -0.0313290000
   15      O      -0.7519040000     4.8338880000     0.0709080000
   16      O      -0.9567740000    -0.5701570000    -0.0178730000
   17      H      -3.4160950000    -0.2548970000     0.0205420000
   18      H       1.5272890000    -0.4271840000    -0.0489520000
   19      H      -3.2359670000     4.6909130000     0.1019640000
   20      H       1.7074180000     4.5186270000     0.0324710000
   21      O       4.0056880000     3.4266460000    -0.0173050000
   22      O      -5.7143690000     0.8370720000     0.0698670000
   23      C      -6.9656170000     1.5178280000     0.0966710000
   24      C       5.2569060000     2.7458470000    -0.0443370000
   25      H      -5.4283190000     3.5538570000     0.1120660000
   26      H       3.7196380000     0.7098810000    -0.0594660000
   27      H      -7.7244010000     0.7378000000     0.0928670000
   28      H      -7.0917200000     2.1522980000    -0.7864180000
   29      H      -7.0697980000     2.1221880000     1.0034290000
   30      H       6.0157160000     3.5258500000    -0.0406600000
   31      H       5.3609040000     2.1414900000    -0.9511180000
   32      H       5.3831410000     2.1113650000     0.8387260000
 ----------------------------------------------------------------

   14    -918.0673719609      9.79e-09  Convergence criterion met
 Total energy in the final basis set =     -918.0925318034

                    Orbital Energies (a.u.)
 --------------------------------------------------------------

 Alpha MOs
 -- Occupied --
-19.1687 -19.1687 -19.1227 -19.1227 -10.2763 -10.2763 -10.2604 -10.2604
-10.2211 -10.2211 -10.2083 -10.2082 -10.1995 -10.1995 -10.1990 -10.1990
-10.1956 -10.1956 -10.1925 -10.1925  -1.0848  -1.0848  -1.0582  -1.0565
 -0.8906  -0.8794  -0.8097  -0.7836  -0.7823  -0.7705  -0.7205  -0.7174
 -0.6695  -0.6679  -0.6233  -0.6223  -0.5866  -0.5632  -0.5591  -0.5302
 -0.5140  -0.5103  -0.4945  -0.4776  -0.4766  -0.4760  -0.4577  -0.4516
 -0.4512  -0.4498  -0.4487  -0.4279  -0.4270  -0.4172  -0.4137  -0.3979
 -0.3952  -0.3923  -0.3814  -0.3770  -0.3441  -0.3431  -0.3397  -0.3321
 -0.2845  -0.2817  -0.2776  -0.2702  -0.2524  -0.2433

          Ground-State Mulliken Net Atomic Charges

     Atom                 Charge (a.u.)
  ----------------------------------------
      1 C                     0.190398
      2 C                     1.486384
      3 C                    -0.016720
      4 C                    -0.477338
      5 C                    -0.367971
      6 C                    -0.518679
      7 C                    -1.278344
      8 C                    -0.367993
      9 C                    -0.477351
     10 C                    -1.278338
     11 C                    -0.518682
     12 C                    -0.016748
     13 C                     1.486421
     14 C                     0.190412
     15 O                    -0.268010
     16 O                    -0.268009
     17 H                     0.170928
     18 H                     0.202303
     19 H                     0.202305
     20 H                     0.170927
     21 O                    -0.171050
     22 O                    -0.171058
     23 C                    -0.047153
     24 C                    -0.047142
     25 H                     0.419964
     26 H                     0.419976
     27 H                     0.242579
     28 H                     0.216347
     29 H                     0.216355
     30 H                     0.242584
     31 H                     0.216367
     32 H                     0.216335
  ----------------------------------------
  Sum of atomic charges =     0.000000

                    Cartesian Multipole Moments
 -----------------------------------------------------------------
    Charge (ESU x 10^10)
                 0.0000
    Dipole Moment (Debye)
         X      -0.0000      Y      -0.0001      Z      -0.0003
       Tot       0.0003
    Quadrupole Moments (Debye-Ang)
        XX     -46.9106     XY     -10.1222     YY    -133.4972
        XZ      -1.0951     YZ      -0.1294     ZZ    -117.4651

 Total job time:  766.49s(wall), 5931.08s(cpu)
        *  Thank you very much for using Q-Chem.  Have a nice day.  *
