 Gaussian 16, Revision A.03,
 Gaussian 16:  ES64L-G16RevA.03 25-Dec-2016

 ---------------------------------------------------------
 #P UB3LYP/genecp SCRF=(PCM,Solvent=n,n-DiMethylFormamide)
 ---------------------------------------------------------

 ------------------
 Quinone PCM in DMF
 ------------------
 Symbolic Z-matrix:
 Charge =  0 Multiplicity = 1

                         Standard orientation:
 ---------------------------------------------------------------------
 Center     Atomic      Atomic             Coordinates (Angstroms)
 Number     Number       Type             X           Y           Z
 ---------------------------------------------------------------------
      1         53           0        3.056043   -0.611984   -0.000023
      2          6           0        1.274710    0.491445    0.000019
      3          6           0        1.269772    1.831939   -0.000018
      4          6           0        0.000094    2.597145    0.000010
      5          8           0       -0.000055    3.816318   -0.000020
      6          6           0       -1.269546    1.831858    0.000087
      7          6           0       -1.274860    0.491292    0.000085
      8         53           0       -3.056063   -0.611959   -0.000033
      9          6           0       -0.000042   -0.307432    0.000080
     10          8           0        0.000100   -1.515851    0.000190
     11          1           0        2.176500    2.424132   -0.000083
     12          1           0       -2.176591    2.423591    0.000094
 ---------------------------------------------------------------------

 SCF Done:  E(UB3LYP) =  -975.959175159     A.U. after   15 cycles

 The electronic state is 1-A.
 Alpha  occ. eigenvalues --  -19.16375 -19.15408 -10.31600 -10.30099 -10.26416
 Alpha  occ. eigenvalues --  -10.26415 -10.22675 -10.22675  -6.86496  -6.86494
 Alpha  occ. eigenvalues --   -4.88990  -4.88988  -4.87787  -4.87785  -4.87682
 Alpha  occ. eigenvalues --   -4.87680  -1.93802  -1.93800  -1.93413  -1.93411
 Alpha  occ. eigenvalues --   -1.93335  -1.93333  -1.92295  -1.92293  -1.92293
 Alpha  occ. eigenvalues --   -1.92291  -1.10006  -1.08443  -0.88587  -0.82530
 Alpha  occ. eigenvalues --   -0.74629  -0.72094  -0.70481  -0.62777  -0.61273
 Alpha  occ. eigenvalues --   -0.54681  -0.52496  -0.48400  -0.47131  -0.46003
 Alpha  occ. eigenvalues --   -0.45742  -0.43797  -0.41467  -0.39233  -0.35026
 Alpha  occ. eigenvalues --   -0.34369  -0.31290  -0.29824  -0.28555  -0.27911
 Alpha  occ. eigenvalues --   -0.27586  -0.26778
 Alpha virt. eigenvalues --   -0.15111  -0.06616  -0.05128  -0.03879  -0.01864
 Alpha virt. eigenvalues --   -0.00264   0.01478   0.02424   0.04867   0.05399
 Alpha virt. eigenvalues --    0.05501   0.06068   0.07042   0.08938   0.09038

  Beta  occ. eigenvalues --  -19.16375 -19.15408 -10.31600 -10.30099 -10.26416
  Beta  occ. eigenvalues --  -10.26415 -10.22675 -10.22675  -6.86496  -6.86494
  Beta  occ. eigenvalues --   -4.88990  -4.88988  -4.87787  -4.87785  -4.87682
  Beta  occ. eigenvalues --   -4.87680  -1.93802  -1.93800  -1.93413  -1.93411
  Beta  occ. eigenvalues --   -1.93335  -1.93333  -1.92295  -1.92293  -1.92293
  Beta  occ. eigenvalues --   -1.92291  -1.10006  -1.08443  -0.88587  -0.82530
  Beta  occ. eigenvalues --   -0.74629  -0.72094  -0.70481  -0.62777  -0.61273
  Beta  occ. eigenvalues --   -0.54681  -0.52496  -0.48400  -0.47131  -0.46003
  Beta  occ. eigenvalues --   -0.45742  -0.43797  -0.41467  -0.39233  -0.35026
  Beta  occ. eigenvalues --   -0.34369  -0.31290  -0.29824  -0.28555  -0.27911
  Beta  occ. eigenvalues --   -0.27586  -0.26778
  Beta virt. eigenvalues --   -0.15111  -0.06616  -0.05128  -0.03879  -0.01864
  Beta virt. eigenvalues --   -0.00264   0.01478   0.02424   0.04867   0.05399
  Beta virt. eigenvalues --    0.05501   0.06068   0.07042   0.08938   0.09038

 Mulliken charges and spin densities:
               1          2
     1  I   -0.013335   0.000000
     2  C    1.445028  -0.000000
     3  C   -0.362605   0.000000
     4  C   -0.046599  -0.000000
     5  O   -0.284501  -0.000000
     6  C   -0.362337  -0.000000
     7  C    1.444989  -0.000000
     8  I   -0.013269   0.000000
     9  C   -2.119919   0.000000
    10  O   -0.142434  -0.000000
    11  H    0.227500   0.000000
    12  H    0.227483   0.000000
 Sum of Mulliken charges =  -0.00000   0.00000

 Dipole moment (field-independent basis, Debye):
    X=             -0.0013    Y=              0.2158    Z=             -0.0002  Tot=              0.2158
 Quadrupole moment (field-independent basis, Debye-Ang):
   XX=            -87.2686   YY=           -115.4022   ZZ=            -98.1926
   XY=              0.0042   XZ=              0.0000   YZ=              0.0009

 1\1\GINC-ACIDSCN028\SP\UB3LYP\GenECP\C6H2I2O2\SELHAJJ1\22-Jan-2024\0\\
 #P UB3LYP/genecp SCRF=(PCM,Solvent=n,n-DiMethylFormamide)\\Quinone PCM
  in DMF\\0,1\I,0,-2.806237,-2.073452,0.004245\C,0,-1.18666,-0.743919,0
 .000245\C,0,-1.359183,0.585333,-0.016341\C,0,-0.201983,1.511887,-0.018
 925\O,0,-0.363196,2.72026,-0.034038\C,0,1.157743,0.921527,-0.002549\C,
 0,1.340437,-0.406438,0.014133\I,0,3.251942,-1.264015,0.037701\C,0,0.18
 2579,-1.366894,0.017083\O,0,0.342376,-2.564608,0.031982\H,0,-2.33629,1
 .052195,-0.028593\H,0,1.978469,1.628126,-0.004943\\Version=ES64L-G16Re

 Normal termination of Gaussian 16 at Mon Jan 22 18:30:39 2024.
