 Gaussian 16, Revision A.03,
 Gaussian 16:  ES64L-G16RevA.03 25-Dec-2016

 ----------------------------------------------------------------------
 #P UB3LYP/6-311++G(d,p) nosym opt freq SCRF=(PCM,Solvent=n,n-DiMethylF
 ormamide)
 ----------------------------------------------------------------------

 --------
 Oxidized
 --------
 Symbolic Z-matrix:
 Charge =  0 Multiplicity = 1

 SCF Done:  E(UB3LYP) =  -950.231064666     A.U. after   14 cycles
 SCF Done:  E(UB3LYP) =  -950.231227983     A.U. after   12 cycles
 SCF Done:  E(UB3LYP) =  -950.231308376     A.U. after   12 cycles
 SCF Done:  E(UB3LYP) =  -950.231353399     A.U. after   11 cycles
 SCF Done:  E(UB3LYP) =  -950.231355899     A.U. after   10 cycles
 SCF Done:  E(UB3LYP) =  -950.231360010     A.U. after    9 cycles
 SCF Done:  E(UB3LYP) =  -950.231359902     A.U. after    9 cycles
 SCF Done:  E(UB3LYP) =  -950.231360824     A.U. after    9 cycles
 SCF Done:  E(UB3LYP) =  -950.231360958     A.U. after    8 cycles
 SCF Done:  E(UB3LYP) =  -950.231361099     A.U. after    8 cycles
 SCF Done:  E(UB3LYP) =  -950.231361197     A.U. after    7 cycles
 SCF Done:  E(UB3LYP) =  -950.231361296     A.U. after    8 cycles
 Optimization completed.
    -- Stationary point found.
 Normal termination of Gaussian 16 at Sat Feb 10 22:47:22 2024.

 ----------------------------------------------------------------------
 #P Geom=AllCheck Guess=TCheck SCRF=Check GenChk UB3LYP/6-311++G(d,p) F
 req
 ----------------------------------------------------------------------

 Structure from the checkpoint file:  "198.chk"
 --------
 Oxidized
 --------
 Charge =  0 Multiplicity = 1

                          Input orientation:
 ---------------------------------------------------------------------
 Center     Atomic      Atomic             Coordinates (Angstroms)
 Number     Number       Type             X           Y           Z
 ---------------------------------------------------------------------
      1          7           0        3.108573   -1.352587    1.211289
      2          6           0        2.645546   -0.590187    0.179838
      3          6           0        3.589160   -0.116965   -0.765262
      4          6           0        3.215517    0.683638   -1.810843
      5          6           0        1.875316    1.074190   -1.988616
      6          8           0        1.558018    1.873885   -3.042232
      7          6           0        0.899670    0.629281   -1.081144
      8          6           0       -0.509789    1.023012   -1.237385
      9          8           0       -0.872118    1.788715   -2.159159
     10          6           0       -1.507197    0.508807   -0.295424
     11          6           0       -2.850653    0.891422   -0.460899
     12          8           0       -3.267240    1.709942   -1.445201
     13          6           0       -3.825221    0.407809    0.435010
     14          6           0       -3.474856   -0.431429    1.457959
     15          6           0       -2.129864   -0.845492    1.663623
     16          7           0       -1.874908   -1.706075    2.688863
     17          6           0       -1.133807   -0.362846    0.774881
     18          6           0        0.270089   -0.729141    0.951098
     19          8           0        0.609075   -1.480255    1.900171
     20          6           0        1.282215   -0.220214    0.013627
     21          1           0        4.048246   -1.712495    1.164820
     22          1           0        2.426289   -1.793588    1.812756
     23          1           0        4.630047   -0.397769   -0.648644
     24          1           0        3.963303    1.028961   -2.517735
     25          1           0        2.359389    2.048784   -3.552001
     26          1           0       -2.442926    1.939154   -1.959775
     27          1           0       -4.854937    0.713986    0.293847
     28          1           0       -4.236894   -0.799636    2.136327
     29          1           0       -0.907941   -1.906748    2.904771
     30          1           0       -2.592106   -1.876163    3.375439
 ---------------------------------------------------------------------

 SCF Done:  E(UB3LYP) =  -950.231361296     A.U. after    1 cycles

 Alpha  occ. eigenvalues --  -19.16970 -19.15167 -19.12308 -19.11418 -14.33050
 Alpha  occ. eigenvalues --  -14.32913 -10.27819 -10.26988 -10.26056 -10.25522
 Alpha  occ. eigenvalues --  -10.24312 -10.24270 -10.20646 -10.20237 -10.20023
 Alpha  occ. eigenvalues --  -10.19969 -10.19818 -10.19799 -10.19735 -10.19467
 Alpha  occ. eigenvalues --   -1.08609  -1.07885  -1.04583  -1.04283  -0.94256
 Alpha  occ. eigenvalues --   -0.93807  -0.87366  -0.85684  -0.81089  -0.77454
 Alpha  occ. eigenvalues --   -0.75749  -0.74400  -0.68947  -0.67056  -0.66488
 Alpha  occ. eigenvalues --   -0.62357  -0.60349  -0.58904  -0.56921  -0.55574
 Alpha  occ. eigenvalues --   -0.54186  -0.52805  -0.52508  -0.50626  -0.48524
 Alpha  occ. eigenvalues --   -0.47969  -0.47546  -0.46423  -0.46180  -0.45103
 Alpha  occ. eigenvalues --   -0.44018  -0.43343  -0.42736  -0.42216  -0.42074
 Alpha  occ. eigenvalues --   -0.40306  -0.39631  -0.39336  -0.38877  -0.37978
 Alpha  occ. eigenvalues --   -0.37505  -0.36911  -0.31409  -0.30556  -0.28594
 Alpha  occ. eigenvalues --   -0.27890  -0.27649  -0.26824  -0.22367  -0.20428
 Alpha virt. eigenvalues --   -0.11113  -0.05298  -0.03830  -0.00740  -0.00156
 Alpha virt. eigenvalues --    0.00254   0.00329   0.01315   0.01487   0.02948
 Alpha virt. eigenvalues --    0.03311   0.03435   0.03917   0.03959   0.05247

  Beta  occ. eigenvalues --  -19.16970 -19.15167 -19.12308 -19.11418 -14.33050
  Beta  occ. eigenvalues --  -14.32913 -10.27819 -10.26988 -10.26056 -10.25522
  Beta  occ. eigenvalues --  -10.24312 -10.24270 -10.20646 -10.20237 -10.20023
  Beta  occ. eigenvalues --  -10.19969 -10.19818 -10.19799 -10.19735 -10.19467
  Beta  occ. eigenvalues --   -1.08609  -1.07885  -1.04583  -1.04283  -0.94256
  Beta  occ. eigenvalues --   -0.93807  -0.87366  -0.85684  -0.81089  -0.77454
  Beta  occ. eigenvalues --   -0.75749  -0.74400  -0.68947  -0.67056  -0.66488
  Beta  occ. eigenvalues --   -0.62357  -0.60349  -0.58904  -0.56921  -0.55574
  Beta  occ. eigenvalues --   -0.54186  -0.52805  -0.52508  -0.50626  -0.48524
  Beta  occ. eigenvalues --   -0.47969  -0.47546  -0.46423  -0.46180  -0.45103
  Beta  occ. eigenvalues --   -0.44018  -0.43343  -0.42736  -0.42216  -0.42074
  Beta  occ. eigenvalues --   -0.40306  -0.39631  -0.39336  -0.38877  -0.37978
  Beta  occ. eigenvalues --   -0.37505  -0.36911  -0.31409  -0.30556  -0.28594
  Beta  occ. eigenvalues --   -0.27890  -0.27649  -0.26824  -0.22367  -0.20428
  Beta virt. eigenvalues --   -0.11113  -0.05298  -0.03830  -0.00740  -0.00156
  Beta virt. eigenvalues --    0.00254   0.00329   0.01315   0.01487   0.02948
  Beta virt. eigenvalues --    0.03311   0.03435   0.03917   0.03959   0.05247

 Mulliken charges and spin densities:
               1          2
     1  N   -0.409600  -0.000000
     2  C    0.009376   0.000000
     3  C   -0.111218   0.000000
     4  C   -0.306094   0.000000
     5  C   -0.150102  -0.000000
     6  O   -0.240989   0.000000
     7  C    0.405793  -0.000000
     8  C   -0.526687   0.000000
     9  O   -0.358579  -0.000000
    10  C    0.599376   0.000000
    11  C   -0.105910  -0.000000
    12  O   -0.382742   0.000000
    13  C   -0.276182  -0.000000
    14  C   -0.187139   0.000000
    15  C    0.014898   0.000000
    16  N   -0.412688   0.000000
    17  C    0.206360   0.000000
    18  C   -0.447708  -0.000000
    19  O   -0.387199  -0.000000
    20  C    0.322136  -0.000000
    21  H    0.290787  -0.000000
    22  H    0.330998   0.000000
    23  H    0.203601  -0.000000
    24  H    0.188498   0.000000
    25  H    0.305965  -0.000000
    26  H    0.383774  -0.000000
    27  H    0.215284  -0.000000
    28  H    0.201431  -0.000000
    29  H    0.332606  -0.000000
    30  H    0.291955   0.000000
 Sum of Mulliken charges =  -0.00000  -0.00000

 Dipole moment (field-independent basis, Debye):
    X=              5.3039    Y=             -3.1575    Z=              2.6244  Tot=              6.7074
 Quadrupole moment (field-independent basis, Debye-Ang):
   XX=            -80.5030   YY=           -119.8042   ZZ=           -107.2708
   XY=              7.9125   XZ=            -25.8596   YZ=             -2.9399

  Exact polarizability: 518.788 -16.601 212.314 -74.026-108.000 296.476
 Approx polarizability: 586.540 -25.290 259.178 -72.759-138.939 360.701

                      1                      2                      3
                      A                      A                      A
 Frequencies --     23.1412                49.3858                98.9997
 Red. masses --      6.7478                 7.0934                 9.5652
 Frc consts  --      0.0021                 0.0102                 0.0552
 IR Inten    --     13.3475                 2.2448                 1.7734

                      4                      5                      6
                      A                      A                      A
 Frequencies --    122.5555               141.4953               175.7180
 Red. masses --      6.6407                 6.9134                 4.9901
 Frc consts  --      0.0588                 0.0815                 0.0908
 IR Inten    --      5.6856                 7.8745                44.1914

                      7                      8                      9
                      A                      A                      A
 Frequencies --    204.0356               235.0616               259.5845
 Red. masses --      5.9108                 2.1765                 1.3154
 Frc consts  --      0.1450                 0.0709                 0.0522
 IR Inten    --      5.3516                78.6129               617.9283

                     10                     11                     12
                      A                      A                      A
 Frequencies --    274.2580               300.5161               313.4098
 Red. masses --      1.9318                 4.0537                 5.3884
 Frc consts  --      0.0856                 0.2157                 0.3118
 IR Inten    --     92.9616                37.6855                10.0581

                     13                     14                     15
                      A                      A                      A
 Frequencies --    347.5375               355.8718               383.8990
 Red. masses --      4.2845                 5.1014                 1.2368
 Frc consts  --      0.3049                 0.3807                 0.1074
 IR Inten    --      2.4109                 3.2257               134.2969

                     16                     17                     18
                      A                      A                      A
 Frequencies --    385.6412               420.5148               428.9611
 Red. masses --      3.5827                 7.2498                 6.6181
 Frc consts  --      0.3139                 0.7553                 0.7175
 IR Inten    --     26.7497                 0.6361                 1.3162

                     19                     20                     21
                      A                      A                      A
 Frequencies --    435.5549               455.2694               466.1491
 Red. masses --      6.6239                 7.1387                 7.9564
 Frc consts  --      0.7404                 0.8718                 1.0186
 IR Inten    --      2.3237                10.2250                78.9394

                     22                     23                     24
                      A                      A                      A
 Frequencies --    469.8136               481.4267               494.9295
 Red. masses --      6.6022                 6.4094                 4.5840
 Frc consts  --      0.8586                 0.8752                 0.6616
 IR Inten    --      3.4875                11.9822                30.8808

                     25                     26                     27
                      A                      A                      A
 Frequencies --    496.7554               542.4395               559.5654
 Red. masses --      5.5010                 6.2217                 3.1460
 Frc consts  --      0.7998                 1.0786                 0.5804
 IR Inten    --      1.9664                 3.0761                50.6403

                     28                     29                     30
                      A                      A                      A
 Frequencies --    579.9152               603.0968               613.9595
 Red. masses --      1.4900                 3.6766                 1.1203
 Frc consts  --      0.2952                 0.7879                 0.2488
 IR Inten    --      8.8091                 1.4000                45.1697

                     31                     32                     33
                      A                      A                      A
 Frequencies --    635.8766               679.6872               720.5789
 Red. masses --      1.8843                 6.0777                 6.3573
 Frc consts  --      0.4489                 1.6543                 1.9448
 IR Inten    --      4.8162                 3.6401                 4.4518

                     34                     35                     36
                      A                      A                      A
 Frequencies --    729.0639               754.0507               787.0969
 Red. masses --      7.6194                 7.0311                 5.0958
 Frc consts  --      2.3862                 2.3555                 1.8600
 IR Inten    --      0.0517                25.0493                 1.3794

                     37                     38                     39
                      A                      A                      A
 Frequencies --    791.3641               826.4357               834.3194
 Red. masses --     10.0510                 8.6601                 1.4744
 Frc consts  --      3.7086                 3.4849                 0.6047
 IR Inten    --      1.9408               151.9826                11.5296

                     40                     41                     42
                      A                      A                      A
 Frequencies --    837.1743               850.0777               865.2983
 Red. masses --      1.5163                 1.3568                 7.7062
 Frc consts  --      0.6261                 0.5777                 3.3996
 IR Inten    --    249.0714                 0.3027                 8.7351

                     43                     44                     45
                      A                      A                      A
 Frequencies --    959.6275               961.2198               975.3459
 Red. masses --      2.1590                 2.0358                 1.3050
 Frc consts  --      1.1714                 1.1082                 0.7314
 IR Inten    --     20.2776                19.4180                 0.0836

                     46                     47                     48
                      A                      A                      A
 Frequencies --    978.7027               992.8469              1054.0310
 Red. masses --      4.7484                 4.6224                 1.7394
 Frc consts  --      2.6798                 2.6846                 1.1386
 IR Inten    --    111.0214                97.3499               240.9465

                     49                     50                     51
                      A                      A                      A
 Frequencies --   1102.4602              1168.5263              1187.1832
 Red. masses --      1.8594                 1.2850                 2.1537
 Frc consts  --      1.3315                 1.0338                 1.7884
 IR Inten    --     17.7893               158.5314                35.3773

                     52                     53                     54
                      A                      A                      A
 Frequencies --   1201.5993              1206.5067              1246.5160
 Red. masses --      1.3162                 2.4247                 2.5151
 Frc consts  --      1.1197                 2.0795                 2.3025
 IR Inten    --     47.1377              2071.3064              1095.1429

                     55                     56                     57
                      A                      A                      A
 Frequencies --   1270.1069              1291.7652              1295.8942
 Red. masses --      4.9283                 2.7962                 2.9178
 Frc consts  --      4.6841                 2.7491                 2.8869
 IR Inten    --    270.7112               270.6234                 4.3115

                     58                     59                     60
                      A                      A                      A
 Frequencies --   1325.2601              1350.4231              1389.2156
 Red. masses --      2.8655                 2.7228                 6.3644
 Frc consts  --      2.9652                 2.9255                 7.2368
 IR Inten    --    160.8736               410.4437                65.0519

                     61                     62                     63
                      A                      A                      A
 Frequencies --   1408.0875              1423.1676              1448.2153
 Red. masses --      5.5999                 5.8860                 4.0827
 Frc consts  --      6.5417                 7.0239                 5.0450
 IR Inten    --     41.9331                89.8101               104.1937

                     64                     65                     66
                      A                      A                      A
 Frequencies --   1460.4410              1470.7482              1486.9002
 Red. masses --      4.3481                 2.4212                 2.3793
 Frc consts  --      5.4641                 3.0858                 3.0993
 IR Inten    --    101.6289                78.4547               157.0232

                     67                     68                     69
                      A                      A                      A
 Frequencies --   1544.0319              1574.0123              1577.2317
 Red. masses --      3.7164                 1.4183                 4.0089
 Frc consts  --      5.2201                 2.0704                 5.8758
 IR Inten    --    969.1082                77.6972               551.5231

                     70                     71                     72
                      A                      A                      A
 Frequencies --   1605.3309              1614.6656              1620.8496
 Red. masses --      2.0110                 2.9547                 3.1885
 Frc consts  --      3.0534                 4.5387                 4.9354
 IR Inten    --    459.0088               271.2707               114.9504

                     73                     74                     75
                      A                      A                      A
 Frequencies --   1639.2655              1676.0390              3114.0961
 Red. masses --      5.3127                 7.4737                 1.0699
 Frc consts  --      8.4113                12.3695                 6.1132
 IR Inten    --    547.1743                 1.7986               418.1049

                     76                     77                     78
                      A                      A                      A
 Frequencies --   3163.0721              3171.0062              3181.6659
 Red. masses --      1.0885                 1.0891                 1.0951
 Frc consts  --      6.4163                 6.4522                 6.5314
 IR Inten    --     14.6538                12.0604                19.2636

                     79                     80                     81
                      A                      A                      A
 Frequencies --   3194.2063              3524.9057              3528.7995
 Red. masses --      1.0948                 1.0497                 1.0497
 Frc consts  --      6.5811                 7.6842                 7.7011
 IR Inten    --     18.0174                16.2147               199.6696

                     82                     83                     84
                      A                      A                      A
 Frequencies --   3683.2286              3684.2385              3792.9312
 Red. masses --      1.1006                 1.1012                 1.0661
 Frc consts  --      8.7973                 8.8069                 9.0366
 IR Inten    --    268.7969                46.6403               221.2223

 - Thermochemistry -
 -------------------
 Temperature   298.150 Kelvin.  Pressure   1.00000 Atm.
 Atom     1 has atomic number  7 and mass  14.00307

 Molecular mass:   270.06406 amu.
 Principal axes and moments of inertia in atomic units:
                           1         2         3
     Eigenvalues --  3425.170195581.530019004.20603
           X            0.95021   0.27391   0.14857
           Y            0.04796  -0.59967   0.79881
           Z           -0.30789   0.75191   0.58295
 This molecule is an asymmetric top.
 Rotational symmetry number  1.
 Warning -- assumption of classical behavior for rotation
           may cause significant error
 Rotational temperatures (Kelvin)      0.02529     0.01552     0.00962
 Rotational constants (GHZ):           0.52691     0.32334     0.20043
 Zero-point vibrational energy     577645.9 (Joules/Mol)
                                  138.06068 (Kcal/Mol)
 Warning -- explicit consideration of  30 degrees of freedom as
           vibrations may cause significant error
 Vibrational temperatures:     33.30    71.06   142.44   176.33   203.58
          (Kelvin)            252.82   293.56   338.20   373.48   394.60
                              432.38   450.93   500.03   512.02   552.34
                              554.85   605.03   617.18   626.67   655.03
                              670.68   675.96   692.67   712.09   714.72
                              780.45   805.09   834.37   867.72   883.35
                              914.88   977.92  1036.75  1048.96  1084.91
                             1132.46  1138.60  1189.06  1200.40  1204.51
                             1223.07  1244.97  1380.69  1382.98  1403.31
                             1408.13  1428.49  1516.52  1586.19  1681.25
                             1708.09  1728.83  1735.89  1793.46  1827.40
                             1858.56  1864.50  1906.75  1942.96  1998.77
                             2025.92  2047.62  2083.66  2101.25  2116.08
                             2139.32  2221.52  2264.65  2269.28  2309.71
                             2323.14  2332.04  2358.54  2411.45  4480.49
                             4550.96  4562.37  4577.71  4595.75  5071.55
                             5077.16  5299.34  5300.80  5457.18

 Zero-point correction=                           0.220014 (Hartree/Particle)
 Thermal correction to Energy=                    0.236126
 Thermal correction to Enthalpy=                  0.237071
 Thermal correction to Gibbs Free Energy=         0.176872
 Sum of electronic and zero-point Energies=           -950.011348
 Sum of electronic and thermal Energies=              -949.995235
 Sum of electronic and thermal Enthalpies=            -949.994291
 Sum of electronic and thermal Free Energies=         -950.054489

                     E (Thermal)             CV                S
                      KCal/Mol        Cal/Mol-Kelvin    Cal/Mol-Kelvin
 Total                  148.172             65.371            126.698
 Electronic               0.000              0.000              0.000
 Translational            0.889              2.981             42.679
 Rotational               0.889              2.981             33.509
 Vibrational            146.394             59.409             50.510
 Vibration     1          0.593              1.985              6.345
 Vibration     2          0.595              1.978              4.842
 Vibration     3          0.604              1.950              3.474
 Vibration     4          0.610              1.930              3.060
 Vibration     5          0.615              1.912              2.784
 Vibration     6          0.628              1.872              2.373
 Vibration     7          0.640              1.834              2.096
 Vibration     8          0.655              1.787              1.840
 Vibration     9          0.668              1.747              1.665
 Vibration    10          0.677              1.721              1.569
 Vibration    11          0.693              1.673              1.414
 Vibration    12          0.701              1.648              1.344
 Vibration    13          0.725              1.580              1.177
 Vibration    14          0.731              1.563              1.140
 Vibration    15          0.753              1.505              1.024
 Vibration    16          0.754              1.501              1.017
 Vibration    17          0.783              1.426              0.890
 Vibration    18          0.790              1.407              0.862
 Vibration    19          0.796              1.393              0.841
 Vibration    20          0.814              1.349              0.780
 Vibration    21          0.824              1.325              0.748
 Vibration    22          0.827              1.317              0.738
 Vibration    23          0.838              1.291              0.706
 Vibration    24          0.851              1.261              0.671
 Vibration    25          0.852              1.257              0.666
 Vibration    26          0.898              1.156              0.560
 Vibration    27          0.915              1.119              0.525
 Vibration    28          0.937              1.075              0.486
 Vibration    29          0.961              1.025              0.444
 Vibration    30          0.973              1.002              0.426

                           ! Non-Optimized Parameters !
 Normal termination of Gaussian 16 at Sat Feb 10 23:35:50 2024.
