 Gaussian 16, Revision A.03,
 Gaussian 16:  ES64L-G16RevA.03 25-Dec-2016

 --------------------------------------
 #P UB3LYP/6-311++G(d,p) nosym opt freq
 --------------------------------------

 -------
 Radical
 -------
 Symbolic Z-matrix:
 Charge = -1 Multiplicity = 2

 SCF Done:  E(UB3LYP) =  -770.028174568     A.U. after   23 cycles
 Optimization completed.
    -- Stationary point found.
 Normal termination of Gaussian 16 at Sat Mar  2 16:08:00 2024.

 ----------------------------------------------------------------------
 #P Geom=AllCheck Guess=TCheck SCRF=Check GenChk UB3LYP/6-311++G(d,p) F
 req
 ----------------------------------------------------------------------

 Structure from the checkpoint file:  "036-rad.chk"
 -------
 Radical
 -------
 Charge = -1 Multiplicity = 2

                          Input orientation:
 ---------------------------------------------------------------------
 Center     Atomic      Atomic             Coordinates (Angstroms)
 Number     Number       Type             X           Y           Z
 ---------------------------------------------------------------------
      1          6           0       -3.037684    1.853627    0.334861
      2          6           0       -3.983898    1.539922   -0.702547
      3          6           0       -3.962740    0.333863   -1.332421
      4          6           0       -3.011226   -0.710920   -1.017054
      5          6           0       -2.025674   -0.422772    0.038557
      6          6           0       -2.050299    0.820777    0.669894
      7          8           0       -3.056758    2.968698    0.933971
      8          8           0       -3.076415   -1.800901   -1.658555
      9          6           0       -1.107212    1.273985    1.762634
     10          6           0       -0.995851   -1.509936    0.484677
     11          6           0        0.453673   -1.008338    0.308316
     12          6           0        0.799230   -0.268164   -0.831567
     13          6           0        1.486091   -1.352362    1.190426
     14          6           0        2.805385   -0.961491    0.955347
     15          6           0        2.113916    0.120391   -1.073640
     16          6           0        3.128668   -0.221169   -0.178850
     17          1           0       -4.711373    2.307091   -0.953309
     18          1           0       -4.673272    0.086801   -2.116215
     19          1           0       -1.617795    1.277300    2.734223
     20          1           0       -0.827562    2.314136    1.579964
     21          1           0       -0.205102    0.675858    1.847650
     22          1           0        0.017146    0.016153   -1.525814
     23          1           0        1.264653   -1.923333    2.084182
     24          1           0        3.579717   -1.234661    1.665943
     25          1           0        2.345546    0.698966   -1.962436
     26          6           0       -1.326466   -1.915689    1.945523
     27          1           0       -2.370820   -2.234204    1.985021
     28          1           0       -0.714286   -2.762255    2.274965
     29          1           0       -1.199485   -1.099872    2.656419
     30          6           0       -1.017182   -2.845392   -0.319536
     31          1           0       -1.977821   -3.349394   -0.230813
     32          1           0       -0.830294   -2.692983   -1.380150
     33          1           0       -0.228433   -3.489232    0.090041
     34          1           0        4.152608    0.087847   -0.362109
 ---------------------------------------------------------------------

 SCF Done:  E(UB3LYP) =  -770.028174568     A.U. after    1 cycles

 Alpha  occ. eigenvalues --  -18.93343 -18.93229 -10.08386 -10.08359 -10.08307
 Alpha  occ. eigenvalues --  -10.08201 -10.08103 -10.08003 -10.07766 -10.07559
 Alpha  occ. eigenvalues --  -10.06985 -10.05170 -10.04511 -10.04251 -10.03656
 Alpha  occ. eigenvalues --  -10.03051 -10.02750 -10.02678  -0.85743  -0.85417
 Alpha  occ. eigenvalues --   -0.76494  -0.71253  -0.67848  -0.65124  -0.63629
 Alpha  occ. eigenvalues --   -0.62651  -0.57427  -0.56516  -0.52702  -0.51731
 Alpha  occ. eigenvalues --   -0.50808  -0.47306  -0.43973  -0.42138  -0.40638
 Alpha  occ. eigenvalues --   -0.36505  -0.35844  -0.34887  -0.33993  -0.32699
 Alpha  occ. eigenvalues --   -0.32512  -0.32268  -0.30078  -0.29031  -0.28457
 Alpha  occ. eigenvalues --   -0.27907  -0.27010  -0.26439  -0.26177  -0.25646
 Alpha  occ. eigenvalues --   -0.25508  -0.25235  -0.24370  -0.22838  -0.22570
 Alpha  occ. eigenvalues --   -0.22466  -0.21524  -0.20598  -0.16032  -0.14705
 Alpha  occ. eigenvalues --   -0.13928  -0.11460  -0.09874  -0.09252  -0.02167
 Alpha virt. eigenvalues --    0.06692   0.08087   0.08190   0.08262   0.09079
 Alpha virt. eigenvalues --    0.10261   0.10486   0.10611   0.11459   0.12081
 Alpha virt. eigenvalues --    0.12170   0.12773   0.13283   0.14016   0.14080

  Beta  occ. eigenvalues --  -18.92628 -18.92495 -10.08394 -10.08307 -10.08246
  Beta  occ. eigenvalues --  -10.08195 -10.08103 -10.08003 -10.07651 -10.07559
  Beta  occ. eigenvalues --  -10.06984 -10.05163 -10.04419 -10.04105 -10.03656
  Beta  occ. eigenvalues --  -10.03064 -10.02640 -10.02569  -0.84497  -0.84150
  Beta  occ. eigenvalues --   -0.76483  -0.71092  -0.67378  -0.65119  -0.63538
  Beta  occ. eigenvalues --   -0.62469  -0.57289  -0.56314  -0.52047  -0.51508
  Beta  occ. eigenvalues --   -0.50801  -0.47127  -0.43764  -0.41872  -0.40480
  Beta  occ. eigenvalues --   -0.36451  -0.35820  -0.34782  -0.33854  -0.32657
  Beta  occ. eigenvalues --   -0.32391  -0.31990  -0.29780  -0.28872  -0.28143
  Beta  occ. eigenvalues --   -0.27818  -0.26906  -0.26275  -0.26080  -0.25498
  Beta  occ. eigenvalues --   -0.25006  -0.24421  -0.23575  -0.22440  -0.22419
  Beta  occ. eigenvalues --   -0.21419  -0.20455  -0.19767  -0.16027  -0.14653
  Beta  occ. eigenvalues --   -0.11099  -0.10083  -0.09191  -0.08602
  Beta virt. eigenvalues --    0.05071   0.06690   0.08099   0.08192   0.08281
  Beta virt. eigenvalues --    0.09093   0.10271   0.10505   0.10615   0.11466
  Beta virt. eigenvalues --    0.12107   0.12732   0.12955   0.13874   0.14034

 Mulliken charges and spin densities:
               1          2
     1  C   -0.415447   0.074161
     2  C    0.073804   0.074074
     3  C   -0.117056   0.085866
     4  C   -0.616403   0.060793
     5  C    0.466722   0.077948
     6  C    0.337034   0.099378
     7  O   -0.398727   0.260821
     8  O   -0.367362   0.263530
     9  C   -0.696043   0.001977
    10  C    0.424653  -0.009117
    11  C    0.896014  -0.002148
    12  C   -0.461596   0.001056
    13  C   -0.130351   0.002058
    14  C   -0.352616   0.001253
    15  C   -0.442945  -0.003713
    16  C   -0.322710  -0.001357
    17  H    0.144721  -0.007217
    18  H    0.156951  -0.009262
    19  H    0.162944   0.010143
    20  H    0.176480   0.002218
    21  H    0.100450   0.000887
    22  H    0.211859   0.000993
    23  H    0.125364  -0.000389
    24  H    0.155166   0.000025
    25  H    0.162508   0.000070
    26  C   -0.698902   0.007837
    27  H    0.171482   0.000640
    28  H    0.104630   0.001435
    29  H    0.150561  -0.000607
    30  C   -0.565714   0.009032
    31  H    0.169915  -0.000956
    32  H    0.169537  -0.000457
    33  H    0.104170  -0.001085
    34  H    0.120908   0.000113
 Sum of Mulliken charges =  -1.00000   1.00000

 Dipole moment (field-independent basis, Debye):
    X=             11.9339    Y=             -2.1228    Z=              1.1270  Tot=             12.1735
 Quadrupole moment (field-independent basis, Debye-Ang):
   XX=           -156.0091   YY=           -144.5272   ZZ=           -120.5607
   XY=             10.4465   XZ=             -4.3290   YZ=            -15.6906

  Exact polarizability: 234.030 -14.739 218.478  22.818  11.569 187.439
 Approx polarizability: 320.058  -4.471 370.588  34.854  36.273 316.304

                      1                      2                      3
                      A                      A                      A
 Frequencies --     13.8099                53.6033                57.2747
 Red. masses --      6.0002                 3.8157                 3.9451
 Frc consts  --      0.0007                 0.0065                 0.0076
 IR Inten    --      0.5856                 0.1787                 0.3374

                      4                      5                      6
                      A                      A                      A
 Frequencies --     83.0527               110.7148               128.9280
 Red. masses --      5.1451                 3.8018                 1.4364
 Frc consts  --      0.0209                 0.0275                 0.0141
 IR Inten    --      4.9548                 5.5107                 0.3112

                      7                      8                      9
                      A                      A                      A
 Frequencies --    197.8913               222.9679               238.5853
 Red. masses --      2.1571                 3.5149                 2.6176
 Frc consts  --      0.0498                 0.1030                 0.0878
 IR Inten    --      0.7910                 1.0382                 0.3231

                     10                     11                     12
                      A                      A                      A
 Frequencies --    253.4964               275.5928               312.5696
 Red. masses --      2.6373                 1.8020                 4.1754
 Frc consts  --      0.0999                 0.0806                 0.2403
 IR Inten    --      2.1228                 0.2076                 0.1826

                     13                     14                     15
                      A                      A                      A
 Frequencies --    325.2833               336.0118               349.4834
 Red. masses --      3.2603                 3.2249                 1.6971
 Frc consts  --      0.2033                 0.2145                 0.1221
 IR Inten    --      0.2306                 0.8444                 2.0941

                     16                     17                     18
                      A                      A                      A
 Frequencies --    352.5637               369.4260               410.2655
 Red. masses --      1.5071                 2.7417                 3.6952
 Frc consts  --      0.1104                 0.2205                 0.3665
 IR Inten    --      0.3858                 3.0870                 2.8807

                     19                     20                     21
                      A                      A                      A
 Frequencies --    415.0498               420.0164               471.8713
 Red. masses --      2.9422                 6.4223                 9.4815
 Frc consts  --      0.2986                 0.6675                 1.2439
 IR Inten    --      0.1185                10.2087                 0.4507

                     22                     23                     24
                      A                      A                      A
 Frequencies --    488.3156               519.7777               561.9078
 Red. masses --      3.2769                 5.2751                 3.3011
 Frc consts  --      0.4604                 0.8397                 0.6141
 IR Inten    --      0.3774                 2.1553                11.0612

                     25                     26                     27
                      A                      A                      A
 Frequencies --    575.7317               617.9316               633.5284
 Red. masses --      3.1650                 3.8837                 5.9587
 Frc consts  --      0.6181                 0.8737                 1.4091
 IR Inten    --      4.4840                 0.6875                 0.1915

                     28                     29                     30
                      A                      A                      A
 Frequencies --    638.9820               649.4754               709.1182
 Red. masses --      3.2346                 3.8876                 1.5241
 Frc consts  --      0.7781                 0.9662                 0.4515
 IR Inten    --      1.6552                 0.2347                43.7148

                     31                     32                     33
                      A                      A                      A
 Frequencies --    738.8115               775.1061               781.1250
 Red. masses --      5.4844                 3.0171                 3.5126
 Frc consts  --      1.7638                 1.0680                 1.2628
 IR Inten    --     11.4296                24.0067                 1.1709

                     34                     35                     36
                      A                      A                      A
 Frequencies --    784.6294               830.2534               841.0327
 Red. masses --      3.7214                 2.0222                 3.0318
 Frc consts  --      1.3499                 0.8213                 1.2635
 IR Inten    --     12.0858                36.2236                 5.5522

                     37                     38                     39
                      A                      A                      A
 Frequencies --    850.0607               912.3517               934.8973
 Red. masses --      1.2609                 1.6065                 2.0908
 Frc consts  --      0.5368                 0.7878                 1.0767
 IR Inten    --      0.2000                 0.9667                 0.4779

                     40                     41                     42
                      A                      A                      A
 Frequencies --    940.8786               953.0469               978.0177
 Red. masses --      1.5867                 1.2848                 1.3365
 Frc consts  --      0.8276                 0.6876                 0.7532
 IR Inten    --      1.1942                 0.0191                 0.0988

                     43                     44                     45
                      A                      A                      A
 Frequencies --    987.7185               992.7598              1014.4284
 Red. masses --      3.3396                 1.3098                 5.6835
 Frc consts  --      1.9196                 0.7606                 3.4460
 IR Inten    --     16.2281                 0.3418                 0.7751

                     46                     47                     48
                      A                      A                      A
 Frequencies --   1028.4469              1039.8573              1043.8045
 Red. masses --      1.4891                 1.8641                 1.5167
 Frc consts  --      0.9280                 1.1876                 0.9736
 IR Inten    --     13.3483                21.9842                 0.6145

                     49                     50                     51
                      A                      A                      A
 Frequencies --   1049.0250              1090.8841              1106.3178
 Red. masses --      2.4022                 1.7888                 1.6882
 Frc consts  --      1.5575                 1.2542                 1.2174
 IR Inten    --     16.1707                 4.0109                 4.5792

                     52                     53                     54
                      A                      A                      A
 Frequencies --   1116.9287              1137.0534              1166.7082
 Red. masses --      2.2016                 2.5566                 2.6351
 Frc consts  --      1.6182                 1.9475                 2.1134
 IR Inten    --     12.3777                 6.2430                 7.0899

                     55                     56                     57
                      A                      A                      A
 Frequencies --   1174.7455              1195.6522              1204.4255
 Red. masses --      1.0986                 2.0667                 1.1573
 Frc consts  --      0.8933                 1.7408                 0.9891
 IR Inten    --      0.0564                23.8042                 3.2585

                     58                     59                     60
                      A                      A                      A
 Frequencies --   1215.9801              1239.6512              1319.5212
 Red. masses --      2.8374                 3.1894                 4.4688
 Frc consts  --      2.4718                 2.8878                 4.5843
 IR Inten    --      3.9268                 9.9854                 2.0160

                     61                     62                     63
                      A                      A                      A
 Frequencies --   1337.0330              1353.0341              1392.9622
 Red. masses --      2.2379                 1.5044                 1.2082
 Frc consts  --      2.3571                 1.6227                 1.3812
 IR Inten    --      1.5189                 0.5566                 8.7056

                     64                     65                     66
                      A                      A                      A
 Frequencies --   1403.4146              1417.3097              1420.9222
 Red. masses --      1.2874                 1.4916                 2.7471
 Frc consts  --      1.4939                 1.7654                 3.2679
 IR Inten    --     36.3509                 5.6344               109.4958

                     67                     68                     69
                      A                      A                      A
 Frequencies --   1454.2067              1469.4968              1472.2732
 Red. masses --      2.3087                 2.0401                 1.1264
 Frc consts  --      2.8766                 2.5956                 1.4386
 IR Inten    --     16.1091                 5.5107                31.8337

                     70                     71                     72
                      A                      A                      A
 Frequencies --   1477.0403              1477.5369              1493.8471
 Red. masses --      1.0831                 1.1463                 3.3528
 Frc consts  --      1.3922                 1.4745                 4.4083
 IR Inten    --      2.3407                 4.8136                 9.9870

                     73                     74                     75
                      A                      A                      A
 Frequencies --   1502.2963              1505.4915              1509.9273
 Red. masses --      1.4853                 1.1941                 1.1768
 Frc consts  --      1.9751                 1.5946                 1.5808
 IR Inten    --     40.1407                14.8277                17.2350

                     76                     77                     78
                      A                      A                      A
 Frequencies --   1520.8186              1527.3983              1612.8275
 Red. masses --      2.0061                 3.9252                 5.4501
 Frc consts  --      2.7337                 5.3953                 8.3528
 IR Inten    --     20.5295               294.3694                 0.3552

                     79                     80                     81
                      A                      A                      A
 Frequencies --   1632.1219              1635.5352              2998.3491
 Red. masses --      6.4749                 5.7038                 1.0538
 Frc consts  --     10.1622                 8.9894                 5.5816
 IR Inten    --     34.5579                10.3953                63.0631

                     82                     83                     84
                      A                      A                      A
 Frequencies --   3003.2060              3018.6356              3069.4961
 Red. masses --      1.0581                 1.0450                 1.0808
 Frc consts  --      5.6226                 5.6103                 5.9997
 IR Inten    --     50.3499                93.1403                20.2046

                     85                     86                     87
                      A                      A                      A
 Frequencies --   3079.6612              3108.0158              3123.5912
 Red. masses --      1.0926                 1.0799                 1.0982
 Frc consts  --      6.1052                 6.1460                 6.3129
 IR Inten    --     37.2387                23.5561                17.3492

                     88                     89                     90
                      A                      A                      A
 Frequencies --   3133.7450              3140.1016              3145.5056
 Red. masses --      1.0848                 1.0841                 1.1024
 Frc consts  --      6.2767                 6.2981                 6.4266
 IR Inten    --     19.9171                 2.9170                24.4041

                     91                     92                     93
                      A                      A                      A
 Frequencies --   3151.3858              3156.6931              3157.0004
 Red. masses --      1.0887                 1.0936                 1.0955
 Frc consts  --      6.3700                 6.4204                 6.4332
 IR Inten    --     23.2024                 4.6821                61.1653

                     94                     95                     96
                      A                      A                      A
 Frequencies --   3167.8505              3182.2416              3184.5910
 Red. masses --      1.0938                 1.0909                 1.0938
 Frc consts  --      6.4673                 6.5090                 6.5359
 IR Inten    --     49.9946                24.1585                 3.9134

 - Thermochemistry -
 -------------------
 Temperature   298.150 Kelvin.  Pressure   1.00000 Atm.
 Atom     1 has atomic number  6 and mass  12.00000

 Molecular mass:   240.11503 amu.
 Principal axes and moments of inertia in atomic units:
                           1         2         3
     Eigenvalues --  2689.677035567.392746465.62140
           X            0.94046   0.27341  -0.20195
           Y           -0.32453   0.89894  -0.29425
           Z            0.10109   0.34227   0.93415
 This molecule is an asymmetric top.
 Rotational symmetry number  1.
 Warning -- assumption of classical behavior for rotation
           may cause significant error
 Rotational temperatures (Kelvin)      0.03220     0.01556     0.01340
 Rotational constants (GHZ):           0.67099     0.32416     0.27913
 Zero-point vibrational energy     721784.3 (Joules/Mol)
                                  172.51058 (Kcal/Mol)
 Warning -- explicit consideration of  26 degrees of freedom as
           vibrations may cause significant error
 Vibrational temperatures:     19.87    77.12    82.41   119.49   159.29
          (Kelvin)            185.50   284.72   320.80   343.27   364.72
                              396.52   449.72   468.01   483.45   502.83
                              507.26   531.52   590.28   597.16   604.31
                              678.92   702.58   747.84   808.46   828.35
                              889.07   911.51   919.35   934.45  1020.26
                             1062.98  1115.20  1123.86  1128.91  1194.55
                             1210.06  1223.05  1312.67  1345.11  1353.71
                             1371.22  1407.15  1421.11  1428.36  1459.54
                             1479.71  1496.12  1501.80  1509.31  1569.54
                             1591.74  1607.01  1635.97  1678.63  1690.20
                             1720.28  1732.90  1749.52  1783.58  1898.50
                             1923.69  1946.71  2004.16  2019.20  2039.19
                             2044.39  2092.28  2114.28  2118.27  2125.13
                             2125.85  2149.31  2161.47  2166.07  2172.45
                             2188.12  2197.59  2320.50  2348.26  2353.17
                             4313.96  4320.94  4343.14  4416.32  4430.95
                             4471.74  4494.15  4508.76  4517.91  4525.68
                             4534.14  4541.78  4542.22  4557.83  4578.54
                             4581.92

 Zero-point correction=                           0.274913 (Hartree/Particle)
 Thermal correction to Energy=                    0.291170
 Thermal correction to Enthalpy=                  0.292115
 Thermal correction to Gibbs Free Energy=         0.229971
 Sum of electronic and zero-point Energies=           -769.753261
 Sum of electronic and thermal Energies=              -769.737004
 Sum of electronic and thermal Enthalpies=            -769.736060
 Sum of electronic and thermal Free Energies=         -769.798203

                     E (Thermal)             CV                S
                      KCal/Mol        Cal/Mol-Kelvin    Cal/Mol-Kelvin
 Total                  182.712             64.518            130.792
 Electronic               0.000              0.000              1.377
 Translational            0.889              2.981             42.329
 Rotational               0.889              2.981             32.937
 Vibrational            180.935             58.556             54.149
 Vibration     1          0.593              1.986              7.370
 Vibration     2          0.596              1.976              4.680
 Vibration     3          0.596              1.975              4.549
 Vibration     4          0.600              1.961              3.817
 Vibration     5          0.607              1.941              3.256
 Vibration     6          0.611              1.924              2.962
 Vibration     7          0.637              1.843              2.153
 Vibration     8          0.649              1.806              1.935
 Vibration     9          0.657              1.782              1.813
 Vibration    10          0.665              1.757              1.706
 Vibration    11          0.677              1.718              1.561
 Vibration    12          0.701              1.650              1.349
 Vibration    13          0.709              1.625              1.283
 Vibration    14          0.717              1.604              1.231
 Vibration    15          0.727              1.576              1.169
 Vibration    16          0.729              1.570              1.155
 Vibration    17          0.742              1.535              1.082
 Vibration    18          0.774              1.448              0.926
 Vibration    19          0.778              1.438              0.909
 Vibration    20          0.783              1.427              0.892
 Vibration    21          0.829              1.312              0.732
 Vibration    22          0.844              1.276              0.688
 Vibration    23          0.875              1.206              0.610
 Vibration    24          0.918              1.114              0.520
 Vibration    25          0.932              1.084              0.493
 Vibration    26          0.978              0.994              0.420

 Optimization completed.
    -- Stationary point found.
 Normal termination of Gaussian 16 at Sat Mar  2 17:48:40 2024.
