 Gaussian 16, Revision A.03,
 Gaussian 16:  ES64L-G16RevA.03 25-Dec-2016

 ----------------------------------------------------------------
 #P UB3LYP/6-311++G(d,p) SCRF=(PCM,Solvent=n,n-DiMethylFormamide)
 ----------------------------------------------------------------

 ------------------
 Radical PCM in DMF
 ------------------
 Symbolic Z-matrix:
 Charge = -1 Multiplicity = 2

                         Standard orientation:
 ---------------------------------------------------------------------
 Center     Atomic      Atomic             Coordinates (Angstroms)
 Number     Number       Type             X           Y           Z
 ---------------------------------------------------------------------
      1          6           0        2.578279   -1.429604    0.034027
      2          6           0        3.479570   -0.555707   -0.668771
      3          6           0        3.140211    0.733865   -0.940075
      4          6           0        1.875459    1.321591   -0.550988
      5          6           0        0.926987    0.454339    0.167991
      6          6           0        1.281490   -0.868778    0.431230
      7          8           0        2.889772   -2.627361    0.300544
      8          8           0        1.655871    2.533112   -0.847349
      9          6           0        0.421980   -1.886068    1.149042
     10          6           0       -0.439138    1.017465    0.676001
     11          6           0       -1.622904    0.222263    0.084244
     12          6           0       -1.587555   -0.180734   -1.258494
     13          6           0       -2.799791   -0.028740    0.801385
     14          6           0       -3.890258   -0.669142    0.210329
     15          6           0       -2.673676   -0.815546   -1.854588
     16          6           0       -3.834516   -1.067998   -1.122637
     17          1           0        4.437416   -0.973282   -0.966785
     18          1           0        3.813833    1.402049   -1.469217
     19          1           0        0.798787   -2.059145    2.165286
     20          1           0        0.512561   -2.848342    0.639818
     21          1           0       -0.628040   -1.616828    1.210317
     22          1           0       -0.685614   -0.003819   -1.832667
     23          1           0       -2.871074    0.265195    1.841752
     24          1           0       -4.783086   -0.859266    0.798435
     25          1           0       -2.610076   -1.120749   -2.894379
     26          6           0       -0.415727    1.010573    2.227587
     27          1           0        0.460354    1.572489    2.559879
     28          1           0       -1.299066    1.506647    2.644234
     29          1           0       -0.349796    0.008887    2.651064
     30          6           0       -0.761294    2.491647    0.284007
     31          1           0       -0.028847    3.183349    0.696058
     32          1           0       -0.773943    2.640218   -0.793409
     33          1           0       -1.754295    2.729932    0.685974
     34          1           0       -4.678955   -1.569902   -1.583661
 ---------------------------------------------------------------------

 SCF Done:  E(UB3LYP) =  -770.105271603     A.U. after   19 cycles

 The electronic state is 2-A.
 Alpha  occ. eigenvalues --  -19.06993 -19.06680 -10.21474 -10.21089 -10.19224
 Alpha  occ. eigenvalues --  -10.18100 -10.17406 -10.17353 -10.17175 -10.17039
 Alpha  occ. eigenvalues --  -10.17010 -10.16833 -10.16829 -10.15605 -10.15527
 Alpha  occ. eigenvalues --  -10.15314 -10.14814 -10.14508  -0.99270  -0.99004
 Alpha  occ. eigenvalues --   -0.86292  -0.82585  -0.79723  -0.75370  -0.74575
 Alpha  occ. eigenvalues --   -0.73130  -0.69189  -0.67485  -0.65497  -0.61954
 Alpha  occ. eigenvalues --   -0.60324  -0.58558  -0.55429  -0.53733  -0.50959
 Alpha  occ. eigenvalues --   -0.47875  -0.46387  -0.45518  -0.44912  -0.44239
 Alpha  occ. eigenvalues --   -0.43279  -0.42184  -0.41852  -0.41121  -0.39917
 Alpha  occ. eigenvalues --   -0.38975  -0.38618  -0.38295  -0.37955  -0.37214
 Alpha  occ. eigenvalues --   -0.36740  -0.36527  -0.35640  -0.34914  -0.34551
 Alpha  occ. eigenvalues --   -0.33060  -0.32683  -0.31992  -0.27312  -0.25678
 Alpha  occ. eigenvalues --   -0.24836  -0.23588  -0.23512  -0.22555  -0.15501
 Alpha virt. eigenvalues --   -0.01484  -0.01368  -0.00562  -0.00296   0.00663
 Alpha virt. eigenvalues --    0.01089   0.01301   0.01971   0.02744   0.03038
 Alpha virt. eigenvalues --    0.03164   0.03445   0.04191   0.04319   0.05304

  Beta  occ. eigenvalues --  -19.06333 -19.05963 -10.21339 -10.20930 -10.19232
  Beta  occ. eigenvalues --  -10.18094 -10.17406 -10.17354 -10.17175 -10.17010
  Beta  occ. eigenvalues --  -10.16948 -10.16832 -10.16720 -10.15485 -10.15415
  Beta  occ. eigenvalues --  -10.15307 -10.14823 -10.14508  -0.98090  -0.97756
  Beta  occ. eigenvalues --   -0.86269  -0.82255  -0.79404  -0.75156  -0.74565
  Beta  occ. eigenvalues --   -0.73096  -0.68822  -0.67427  -0.64708  -0.61871
  Beta  occ. eigenvalues --   -0.60313  -0.58330  -0.55132  -0.53493  -0.50896
  Beta  occ. eigenvalues --   -0.47711  -0.46204  -0.45370  -0.44724  -0.44147
  Beta  occ. eigenvalues --   -0.43163  -0.41981  -0.41431  -0.40779  -0.39643
  Beta  occ. eigenvalues --   -0.38566  -0.38392  -0.38068  -0.37242  -0.36710
  Beta  occ. eigenvalues --   -0.36396  -0.36089  -0.34693  -0.34565  -0.33457
  Beta  occ. eigenvalues --   -0.32920  -0.32510  -0.31894  -0.25668  -0.24677
  Beta  occ. eigenvalues --   -0.24335  -0.22937  -0.22669  -0.21940
  Beta virt. eigenvalues --   -0.08288  -0.01437  -0.01327  -0.00494   0.00604
  Beta virt. eigenvalues --    0.00775   0.01234   0.01441   0.01993   0.02813
  Beta virt. eigenvalues --    0.03165   0.03213   0.04145   0.04269   0.05087

 Mulliken charges and spin densities:
               1          2
     1  C   -0.230635   0.111548
     2  C   -0.033765   0.069977
     3  C   -0.237581   0.095005
     4  C   -0.481623   0.082416
     5  C    0.437266   0.073661
     6  C    0.237425   0.071635
     7  O   -0.501389   0.236979
     8  O   -0.450767   0.254602
     9  C   -0.647398   0.004437
    10  C    0.369369  -0.006172
    11  C    0.828789  -0.002057
    12  C   -0.439190   0.001243
    13  C   -0.116752   0.001681
    14  C   -0.361690   0.000810
    15  C   -0.503916  -0.002944
    16  C   -0.366963  -0.001224
    17  H    0.178598  -0.006794
    18  H    0.184987  -0.009761
    19  H    0.187184   0.007629
    20  H    0.165405   0.002097
    21  H    0.109388   0.000816
    22  H    0.202649   0.000465
    23  H    0.154137  -0.000331
    24  H    0.203151  -0.000006
    25  H    0.201380   0.000069
    26  C   -0.646675   0.007542
    27  H    0.177787   0.000131
    28  H    0.141150   0.001036
    29  H    0.157105  -0.000881
    30  C   -0.541160   0.008253
    31  H    0.157615  -0.000727
    32  H    0.159110  -0.000389
    33  H    0.136342  -0.000762
    34  H    0.170666   0.000014
 Sum of Mulliken charges =  -1.00000   1.00000

 Dipole moment (field-independent basis, Debye):
    X=            -10.4673    Y=              0.6372    Z=              1.6986  Tot=             10.6234
 Quadrupole moment (field-independent basis, Debye-Ang):
   XX=           -137.9335   YY=           -149.3924   ZZ=           -110.0915
   XY=             12.1560   XZ=             -1.1153   YZ=              9.4451

 Normal termination of Gaussian 16 at Sat Mar  2 19:23:30 2024.
