 Gaussian 16, Revision A.03,
 Gaussian 16:  ES64L-G16RevA.03 25-Dec-2016

 ----------------------------------------------------------------------
 #P UB3LYP/6-311++G(d,p) nosym opt freq SCRF=(PCM,Solvent=n,n-DiMethylF
 ormamide)
 ----------------------------------------------------------------------

 -------
 Radical
 -------
 Symbolic Z-matrix:
 Charge = -1 Multiplicity = 2

 SCF Done:  E(UB3LYP) =  -878.947125816     A.U. after   19 cycles
 SCF Done:  E(UB3LYP) =  -878.947288877     A.U. after   15 cycles
 SCF Done:  E(UB3LYP) =  -878.947309211     A.U. after   14 cycles
 SCF Done:  E(UB3LYP) =  -878.947315979     A.U. after   12 cycles
 SCF Done:  E(UB3LYP) =  -878.947316553     A.U. after   11 cycles
 Optimization completed.
    -- Stationary point found.
 Normal termination of Gaussian 16 at Sat Feb 10 22:36:19 2024.

 ----------------------------------------------------------------------
 #P Geom=AllCheck Guess=TCheck SCRF=Check GenChk UB3LYP/6-311++G(d,p) F
 req
 ----------------------------------------------------------------------

 Structure from the checkpoint file:  "196-rad.chk"
 -------
 Radical
 -------
 Charge = -1 Multiplicity = 2

                          Input orientation:
 ---------------------------------------------------------------------
 Center     Atomic      Atomic             Coordinates (Angstroms)
 Number     Number       Type             X           Y           Z
 ---------------------------------------------------------------------
      1          6           0       -4.675234    0.286019   -0.084682
      2          6           0       -3.212368   -0.079692   -0.029256
      3          6           0       -2.831362   -1.436685   -0.062211
      4          6           0       -1.496511   -1.804217   -0.013804
      5          8           0       -1.180848   -3.122022   -0.048621
      6          6           0       -0.469887   -0.812453    0.071447
      7          6           0        0.915790   -1.193784    0.121451
      8          8           0        1.259776   -2.451466    0.090675
      9          6           0        1.917145   -0.162089    0.205187
     10          6           0        3.305169   -0.500984    0.255074
     11          8           0        3.702455   -1.795956    0.225302
     12          6           0        4.271232    0.492661    0.334913
     13          6           0        3.887708    1.842402    0.366966
     14          6           0        2.551978    2.201785    0.320478
     15          6           0        1.547578    1.217255    0.239290
     16          6           0        0.141376    1.622150    0.191054
     17          8           0       -0.191633    2.837093    0.221957
     18          6           0       -0.860367    0.558492    0.104590
     19          6           0       -2.227732    0.894154    0.053551
     20          1           0       -5.140095   -0.087346   -1.002876
     21          1           0       -5.223955   -0.156030    0.753194
     22          1           0       -4.815228    1.367781   -0.049132
     23          1           0       -3.580799   -2.218677   -0.126717
     24          1           0       -0.184717   -3.162712   -0.002913
     25          1           0        2.863494   -2.334628    0.168055
     26          1           0        5.315772    0.205672    0.371341
     27          1           0        4.653139    2.608436    0.429254
     28          1           0        2.253124    3.241587    0.345046
     29          1           0       -2.495004    1.943251    0.079881
 ---------------------------------------------------------------------

 SCF Done:  E(UB3LYP) =  -878.947316553     A.U. after    1 cycles

 Alpha  occ. eigenvalues --  -19.13650 -19.13605 -19.10397 -19.07955 -10.24208
 Alpha  occ. eigenvalues --  -10.23974 -10.23895 -10.22964 -10.18620 -10.18129
 Alpha  occ. eigenvalues --  -10.17940 -10.17925 -10.17849 -10.17718 -10.16827
 Alpha  occ. eigenvalues --  -10.16598 -10.16461 -10.16435 -10.16217  -1.06292
 Alpha  occ. eigenvalues --   -1.05382  -1.00895  -1.00400  -0.86575  -0.85119
 Alpha  occ. eigenvalues --   -0.79973  -0.75898  -0.74948  -0.74302  -0.70377
 Alpha  occ. eigenvalues --   -0.67034  -0.64133  -0.62076  -0.59413  -0.58580
 Alpha  occ. eigenvalues --   -0.53828  -0.52582  -0.51614  -0.50268  -0.47879
 Alpha  occ. eigenvalues --   -0.47094  -0.46880  -0.44322  -0.43957  -0.42913
 Alpha  occ. eigenvalues --   -0.42281  -0.42152  -0.41212  -0.40563  -0.40322
 Alpha  occ. eigenvalues --   -0.39478  -0.39270  -0.37635  -0.37444  -0.36531
 Alpha  occ. eigenvalues --   -0.36113  -0.35180  -0.34482  -0.33564  -0.32259
 Alpha  occ. eigenvalues --   -0.27450  -0.26911  -0.24939  -0.24353  -0.23789
 Alpha  occ. eigenvalues --   -0.22839  -0.14905
 Alpha virt. eigenvalues --   -0.04928  -0.02609  -0.00327   0.00416   0.00743
 Alpha virt. eigenvalues --    0.01088   0.01906   0.02376   0.02989   0.03786
 Alpha virt. eigenvalues --    0.03996   0.04439   0.04986   0.05260   0.05807

  Beta  occ. eigenvalues --  -19.13625 -19.13582 -19.09969 -19.07418 -10.23951
  Beta  occ. eigenvalues --  -10.23919 -10.23871 -10.22813 -10.18554 -10.18135
  Beta  occ. eigenvalues --  -10.17956 -10.17829 -10.17754 -10.17658 -10.16755
  Beta  occ. eigenvalues --  -10.16573 -10.16441 -10.16406 -10.16183  -1.06119
  Beta  occ. eigenvalues --   -1.05333  -1.00204  -0.99455  -0.86307  -0.84977
  Beta  occ. eigenvalues --   -0.79635  -0.75738  -0.74620  -0.74114  -0.70165
  Beta  occ. eigenvalues --   -0.66458  -0.63936  -0.61890  -0.59286  -0.58408
  Beta  occ. eigenvalues --   -0.53586  -0.52449  -0.51489  -0.50074  -0.47750
  Beta  occ. eigenvalues --   -0.46953  -0.46718  -0.43847  -0.43499  -0.42704
  Beta  occ. eigenvalues --   -0.42026  -0.41901  -0.40860  -0.40366  -0.40257
  Beta  occ. eigenvalues --   -0.39176  -0.37986  -0.37559  -0.36477  -0.36047
  Beta  occ. eigenvalues --   -0.35859  -0.35053  -0.34337  -0.33113  -0.31185
  Beta  occ. eigenvalues --   -0.26586  -0.25870  -0.24459  -0.23867  -0.22620
  Beta  occ. eigenvalues --   -0.22364
  Beta virt. eigenvalues --   -0.09365  -0.03662  -0.01649  -0.00311   0.00418
  Beta virt. eigenvalues --    0.01086   0.01107   0.01921   0.02376   0.03199
  Beta virt. eigenvalues --    0.03797   0.04002   0.04457   0.05082   0.05948

 Mulliken charges and spin densities:
               1          2
     1  C   -0.303680  -0.002412
     2  C    0.381667   0.049587
     3  C   -0.253540   0.042647
     4  C   -0.025131   0.033720
     5  O   -0.399195   0.008002
     6  C    0.330966  -0.036511
     7  C   -0.532809   0.163919
     8  O   -0.569765   0.148609
     9  C    0.520783  -0.015227
    10  C   -0.100752   0.031535
    11  O   -0.399385   0.008534
    12  C   -0.236236   0.048378
    13  C   -0.374024   0.049060
    14  C   -0.253077   0.040278
    15  C    0.312882   0.050446
    16  C   -0.485634   0.085481
    17  O   -0.449357   0.201403
    18  C    0.166073   0.068840
    19  C   -0.464887   0.039436
    20  H    0.165455   0.003232
    21  H    0.165222   0.003221
    22  H    0.168065   0.000144
    23  H    0.179481  -0.003877
    24  H    0.395811  -0.002213
    25  H    0.394894  -0.002110
    26  H    0.186290  -0.004558
    27  H    0.191377  -0.003690
    28  H    0.161575  -0.002600
    29  H    0.126932  -0.003275
 Sum of Mulliken charges =  -1.00000   1.00000

 Dipole moment (field-independent basis, Debye):
    X=             -3.6883    Y=              0.4294    Z=             -0.7492  Tot=              3.7881
 Quadrupole moment (field-independent basis, Debye-Ang):
   XX=           -121.9961   YY=           -148.4761   ZZ=           -116.6173
   XY=              7.6148   XZ=             -0.4157   YZ=             -0.8188

  Exact polarizability: 500.361  27.492 372.801  17.476   9.838 142.599
 Approx polarizability: 512.217  11.340 449.638  16.408  11.192 164.408

                      1                      2                      3
                      A                      A                      A
 Frequencies --     47.8482                73.6777                75.1535
 Red. masses --      5.3808                 2.4559                 1.4559
 Frc consts  --      0.0073                 0.0079                 0.0048
 IR Inten    --      7.2365                 0.2406                 0.3144

                      4                      5                      6
                      A                      A                      A
 Frequencies --    114.6179               149.2075               191.0937
 Red. masses --     10.2274                 6.0834                 4.7814
 Frc consts  --      0.0792                 0.0798                 0.1029
 IR Inten    --      2.2079                 1.4290                 0.9265

                      7                      8                      9
                      A                      A                      A
 Frequencies --    191.6372               215.1761               253.0204
 Red. masses --      4.4908                 4.4109                 5.0770
 Frc consts  --      0.0972                 0.1203                 0.1915
 IR Inten    --      1.7143                 0.7172                 0.0344

                     10                     11                     12
                      A                      A                      A
 Frequencies --    273.8396               315.6360               335.6735
 Red. masses --      4.8160                 5.7567                 6.0483
 Frc consts  --      0.2128                 0.3379                 0.4015
 IR Inten    --      0.7992                 1.4645                 7.8007

                     13                     14                     15
                      A                      A                      A
 Frequencies --    349.3636               371.5733               429.5272
 Red. masses --      5.7021                 7.0559                 6.1384
 Frc consts  --      0.4101                 0.5740                 0.6672
 IR Inten    --      9.1208                 7.1427                 2.2401

                     16                     17                     18
                      A                      A                      A
 Frequencies --    439.8689               459.0709               491.6723
 Red. masses --      7.1691                 9.2536                10.7546
 Frc consts  --      0.8173                 1.1490                 1.5318
 IR Inten    --     75.8295                51.6378                 8.1907

                     19                     20                     21
                      A                      A                      A
 Frequencies --    499.8472               506.6946               552.1528
 Red. masses --      5.4438                 4.2935                 8.1784
 Frc consts  --      0.8014                 0.6495                 1.4690
 IR Inten    --      0.2673                 7.8581                 4.5742

                     22                     23                     24
                      A                      A                      A
 Frequencies --    563.2313               570.3823               600.9705
 Red. masses --      4.6915                 7.2642                 4.5802
 Frc consts  --      0.8769                 1.3924                 0.9746
 IR Inten    --      0.0749                55.0053                 1.0571

                     25                     26                     27
                      A                      A                      A
 Frequencies --    611.0644               637.5215               675.5972
 Red. masses --      5.0148                 3.8342                 5.8080
 Frc consts  --      1.1033                 0.9181                 1.5619
 IR Inten    --     15.5908                12.6560                46.3881

                     28                     29                     30
                      A                      A                      A
 Frequencies --    717.5095               739.7134               741.2643
 Red. masses --      3.3934                 5.3402                 6.4567
 Frc consts  --      1.0293                 1.7216                 2.0903
 IR Inten    --      9.8281                21.3501                 2.3287

                     31                     32                     33
                      A                      A                      A
 Frequencies --    759.9508               796.3781               816.0057
 Red. masses --      2.9444                 2.0576                 1.1074
 Frc consts  --      1.0019                 0.7689                 0.4345
 IR Inten    --     54.8639               118.5528               232.9995

                     34                     35                     36
                      A                      A                      A
 Frequencies --    818.7653               841.8165               857.7337
 Red. masses --      8.0232                 1.1253                 1.3118
 Frc consts  --      3.1690                 0.4698                 0.5686
 IR Inten    --     58.4346                 0.2447                23.5895

                     37                     38                     39
                      A                      A                      A
 Frequencies --    890.4259               897.2330               912.1098
 Red. masses --      1.4088                 1.4373                 5.8007
 Frc consts  --      0.6581                 0.6817                 2.8433
 IR Inten    --      0.6167                 3.6201                35.9878

                     40                     41                     42
                      A                      A                      A
 Frequencies --    975.2906               980.7966              1005.6063
 Red. masses --      5.8981                 1.2931                 2.0415
 Frc consts  --      3.3055                 0.7329                 1.2163
 IR Inten    --     19.6840                 0.8079                71.1750

                     43                     44                     45
                      A                      A                      A
 Frequencies --   1028.2236              1054.9481              1069.2041
 Red. masses --      2.8361                 1.5210                 2.3485
 Frc consts  --      1.7666                 0.9973                 1.5819
 IR Inten    --    180.0862                 7.2208                40.3243

                     46                     47                     48
                      A                      A                      A
 Frequencies --   1088.9494              1146.0281              1168.3109
 Red. masses --      2.5478                 2.5402                 1.2682
 Frc consts  --      1.7800                 1.9657                 1.0199
 IR Inten    --     10.1022                 2.4511                38.8033

                     49                     50                     51
                      A                      A                      A
 Frequencies --   1172.1277              1222.3648              1248.2421
 Red. masses --      2.0848                 1.7229                 4.0393
 Frc consts  --      1.6876                 1.5168                 3.7081
 IR Inten    --    338.9212                11.3152                14.5105

                     52                     53                     54
                      A                      A                      A
 Frequencies --   1272.0007              1301.9170              1303.7439
 Red. masses --      2.5678                 3.3039                 5.8569
 Frc consts  --      2.4479                 3.2995                 5.8654
 IR Inten    --    118.3263                70.7485                94.5859

                     55                     56                     57
                      A                      A                      A
 Frequencies --   1330.2099              1366.5595              1384.4547
 Red. masses --      4.5487                 6.4573                 6.2523
 Frc consts  --      4.7422                 7.1049                 7.0607
 IR Inten    --   1021.6842                92.8601               405.1344

                     58                     59                     60
                      A                      A                      A
 Frequencies --   1400.1843              1409.1828              1413.8895
 Red. masses --      1.7469                 1.7059                 2.9742
 Frc consts  --      2.0178                 1.9959                 3.5031
 IR Inten    --     94.7029                70.4570                39.8358

                     61                     62                     63
                      A                      A                      A
 Frequencies --   1455.2503              1473.1904              1484.9172
 Red. masses --      2.8349                 1.0431                 2.2724
 Frc consts  --      3.5372                 1.3338                 2.9521
 IR Inten    --     43.0629                10.9054               153.4072

                     64                     65                     66
                      A                      A                      A
 Frequencies --   1490.0413              1510.8287              1517.6895
 Red. masses --      1.6416                 4.6693                 2.4781
 Frc consts  --      2.1475                 6.2796                 3.3631
 IR Inten    --     50.0653              1333.0718               330.6246

                     67                     68                     69
                      A                      A                      A
 Frequencies --   1558.5898              1566.4329              1601.8456
 Red. masses --      4.2350                 2.2011                 7.2207
 Frc consts  --      6.0614                 3.1822                10.9162
 IR Inten    --    252.9946                30.4787               161.6793

                     70                     71                     72
                      A                      A                      A
 Frequencies --   1633.7056              1664.3236              3019.1439
 Red. masses --      4.0457                 3.2019                 1.0377
 Frc consts  --      6.3619                 5.2255                 5.5728
 IR Inten    --    253.8399                66.2277                91.3344

                     73                     74                     75
                      A                      A                      A
 Frequencies --   3065.0112              3077.6051              3104.0652
 Red. masses --      1.1001                 1.0699                 1.1002
 Frc consts  --      6.0891                 5.9705                 6.2455
 IR Inten    --     28.0838              1705.4231                36.0861

                     76                     77                     78
                      A                      A                      A
 Frequencies --   3140.0364              3165.0637              3167.3052
 Red. masses --      1.0720                 1.0872                 1.0903
 Frc consts  --      6.2277                 6.4168                 6.4445
 IR Inten    --     29.8913                19.8837                26.4579

                     79                     80                     81
                      A                      A                      A
 Frequencies --   3184.4282              3188.0545              3200.1794
 Red. masses --      1.0925                 1.0897                 1.0927
 Frc consts  --      6.5276                 6.5252                 6.5935
 IR Inten    --     22.5543                14.5552                20.2361

 - Thermochemistry -
 -------------------
 Temperature   298.150 Kelvin.  Pressure   1.00000 Atm.
 Atom     1 has atomic number  6 and mass  12.00000

 Molecular mass:   254.05791 amu.
 Principal axes and moments of inertia in atomic units:
                           1         2         3
     Eigenvalues --  2551.554016056.649868597.05867
           X            0.98978  -0.13503  -0.04588
           Y            0.13338   0.99037  -0.03717
           Z            0.05046   0.03067   0.99825
 This molecule is an asymmetric top.
 Rotational symmetry number  1.
 Warning -- assumption of classical behavior for rotation
           may cause significant error
 Rotational temperatures (Kelvin)      0.03395     0.01430     0.01007
 Rotational constants (GHZ):           0.70731     0.29798     0.20993
 Zero-point vibrational energy     558620.0 (Joules/Mol)
                                  133.51338 (Kcal/Mol)
 Warning -- explicit consideration of  25 degrees of freedom as
           vibrations may cause significant error
 Vibrational temperatures:     68.84   106.01   108.13   164.91   214.68
          (Kelvin)            274.94   275.72   309.59   364.04   393.99
                              454.13   482.96   502.66   534.61   617.99
                              632.87   660.50   707.41   719.17   729.02
                              794.42   810.36   820.65   864.66   879.19
                              917.25   972.03  1032.34  1064.28  1066.51
                             1093.40  1145.81  1174.05  1178.02  1211.19
                             1234.09  1281.12  1290.92  1312.32  1403.23
                             1411.15  1446.84  1479.38  1517.84  1538.35
                             1566.76  1648.88  1680.94  1686.43  1758.71
                             1795.94  1830.13  1873.17  1875.80  1913.88
                             1966.17  1991.92  2014.55  2027.50  2034.27
                             2093.78  2119.59  2136.46  2143.84  2173.75
                             2183.62  2242.46  2253.75  2304.70  2350.54
                             2394.59  4343.87  4409.87  4427.99  4466.06
                             4517.81  4553.82  4557.05  4581.68  4586.90
                             4604.34

 Zero-point correction=                           0.212767 (Hartree/Particle)
 Thermal correction to Energy=                    0.227430
 Thermal correction to Enthalpy=                  0.228374
 Thermal correction to Gibbs Free Energy=         0.170590
 Sum of electronic and zero-point Energies=           -878.734549
 Sum of electronic and thermal Energies=              -878.719887
 Sum of electronic and thermal Enthalpies=            -878.718943
 Sum of electronic and thermal Free Energies=         -878.776726

                     E (Thermal)             CV                S
                      KCal/Mol        Cal/Mol-Kelvin    Cal/Mol-Kelvin
 Total                  142.714             59.091            121.616
 Electronic               0.000              0.000              1.377
 Translational            0.889              2.981             42.497
 Rotational               0.889              2.981             33.252
 Vibrational            140.937             53.129             44.490
 Vibration     1          0.595              1.978              4.904
 Vibration     2          0.599              1.966              4.053
 Vibration     3          0.599              1.966              4.014
 Vibration     4          0.608              1.937              3.189
 Vibration     5          0.618              1.904              2.682
 Vibration     6          0.634              1.852              2.217
 Vibration     7          0.634              1.851              2.212
 Vibration     8          0.645              1.818              1.999
 Vibration     9          0.664              1.758              1.709
 Vibration    10          0.676              1.722              1.572
 Vibration    11          0.703              1.644              1.333
 Vibration    12          0.717              1.604              1.233
 Vibration    13          0.727              1.577              1.169
 Vibration    14          0.743              1.531              1.073
 Vibration    15          0.791              1.406              0.860
 Vibration    16          0.800              1.383              0.827
 Vibration    17          0.817              1.341              0.769
 Vibration    18          0.847              1.268              0.679
 Vibration    19          0.855              1.250              0.659
 Vibration    20          0.862              1.235              0.642
 Vibration    21          0.907              1.135              0.540
 Vibration    22          0.919              1.111              0.517
 Vibration    23          0.926              1.095              0.504
 Vibration    24          0.959              1.030              0.448
 Vibration    25          0.970              1.008              0.431

                           ! Non-Optimized Parameters !
 Normal termination of Gaussian 16 at Sat Feb 10 23:54:15 2024.
