 Gaussian 16, Revision A.03,
 Gaussian 16:  ES64L-G16RevA.03 25-Dec-2016

 --------------------------------------
 #P UB3LYP/6-311++G(d,p) nosym opt freq
 --------------------------------------

 -------
 Reduced
 -------
 Symbolic Z-matrix:
 Charge = -2 Multiplicity = 1

 SCF Done:  E(UB3LYP) =  -5721.64132843     A.U. after   33 cycles
 SCF Done:  E(UB3LYP) =  -5721.66703630     A.U. after   24 cycles
 SCF Done:  E(UB3LYP) =  -5721.67000132     A.U. after   20 cycles
 SCF Done:  E(UB3LYP) =  -5721.67020953     A.U. after   18 cycles
 SCF Done:  E(UB3LYP) =  -5721.67023737     A.U. after   19 cycles
 SCF Done:  E(UB3LYP) =  -5721.67022688     A.U. after   19 cycles
 SCF Done:  E(UB3LYP) =  -5721.67023907     A.U. after   18 cycles
 SCF Done:  E(UB3LYP) =  -5721.67024142     A.U. after   16 cycles
 Optimization completed.
    -- Stationary point found.
 Normal termination of Gaussian 16 at Tue Dec 26 21:00:28 2023.

 ----------------------------------------------------------------------
 #P Geom=AllCheck Guess=TCheck SCRF=Check GenChk UB3LYP/6-311++G(d,p) F
 req
 ----------------------------------------------------------------------

 Structure from the checkpoint file:  "234-an.chk"
 -------
 Reduced
 -------
 Charge = -2 Multiplicity = 1

                          Input orientation:
 ---------------------------------------------------------------------
 Center     Atomic      Atomic             Coordinates (Angstroms)
 Number     Number       Type             X           Y           Z
 ---------------------------------------------------------------------
      1          6           0        5.716339   -5.234011    1.128547
      2          6           0        6.650266   -5.106599    0.127653
      3          6           0        6.525390   -4.062602   -0.831596
      4          6           0        4.616788   -4.351639    1.242311
      5          6           0        4.490069   -3.285735    0.262264
      6          6           0        5.467294   -3.185956   -0.750540
      7          6           0        3.668066   -4.540650    2.320054
      8          6           0        2.606395   -3.586507    2.326090
      9          6           0        2.494443   -2.557688    1.370450
     10          6           0        3.395425   -2.328044    0.294806
     11          8           0        3.773270   -5.488190    3.197613
     12          8           0        3.271010   -1.376131   -0.569690
     13          1           0        5.785788   -6.019028    1.873782
     14          1           0        5.341741   -2.379624   -1.465364
     15         35           0        8.127975   -6.382195    0.071279
     16         35           0        7.816310   -3.829809   -2.276809
     17          6           0        1.577875   -3.719786    3.420858
     18          1           0        1.652548   -1.867118    1.443354
     19          1           0        2.044273   -3.659119    4.414465
     20          1           0        1.088912   -4.704013    3.390500
     21          1           0        0.809793   -2.940487    3.341613
 ---------------------------------------------------------------------

 SCF Done:  E(UB3LYP) =  -5721.67024142     A.U. after    1 cycles

 Alpha  occ. eigenvalues -- -482.61433-482.61424 -62.26716 -62.26706 -56.08721
 Alpha  occ. eigenvalues --  -56.08711 -56.08380 -56.08370 -56.08369 -56.08360
 Alpha  occ. eigenvalues --  -18.76974 -18.76866  -9.99365  -9.99231  -9.93401
 Alpha  occ. eigenvalues --   -9.93368  -9.93188  -9.92864  -9.92320  -9.90792
 Alpha  occ. eigenvalues --   -9.90746  -9.89782  -9.88565  -8.47674  -8.47664
 Alpha  occ. eigenvalues --   -6.30716  -6.30706  -6.29576  -6.29565  -6.29553
 Alpha  occ. eigenvalues --   -6.29544  -2.41826  -2.41816  -2.41500  -2.41490
 Alpha  occ. eigenvalues --   -2.41484  -2.41475  -2.40578  -2.40577  -2.40568
 Alpha  occ. eigenvalues --   -2.40567  -0.68548  -0.68076  -0.63628  -0.57804
 Alpha  occ. eigenvalues --   -0.56844  -0.53509  -0.49676  -0.48674  -0.43726
 Alpha  occ. eigenvalues --   -0.39707  -0.36298  -0.33473  -0.29407  -0.24773
 Alpha  occ. eigenvalues --   -0.23074  -0.21347  -0.19063  -0.18548  -0.17126
 Alpha  occ. eigenvalues --   -0.15993  -0.15891  -0.15238  -0.12931  -0.11949
 Alpha  occ. eigenvalues --   -0.10900  -0.10786  -0.09876  -0.09236  -0.08805
 Alpha  occ. eigenvalues --   -0.07084  -0.06905  -0.06559  -0.06115  -0.00398
 Alpha  occ. eigenvalues --    0.01574   0.02731   0.05006   0.05415   0.13040
 Alpha virt. eigenvalues --    0.15917   0.17163   0.17692   0.19515   0.19894
 Alpha virt. eigenvalues --    0.20820   0.21201   0.21501   0.21671   0.22225
 Alpha virt. eigenvalues --    0.22235   0.22362   0.23018   0.24146   0.24906

  Beta  occ. eigenvalues -- -482.61433-482.61424 -62.26716 -62.26706 -56.08721
  Beta  occ. eigenvalues --  -56.08711 -56.08380 -56.08370 -56.08369 -56.08360
  Beta  occ. eigenvalues --  -18.76974 -18.76866  -9.99365  -9.99231  -9.93401
  Beta  occ. eigenvalues --   -9.93368  -9.93188  -9.92864  -9.92320  -9.90792
  Beta  occ. eigenvalues --   -9.90746  -9.89782  -9.88565  -8.47674  -8.47664
  Beta  occ. eigenvalues --   -6.30716  -6.30706  -6.29576  -6.29565  -6.29553
  Beta  occ. eigenvalues --   -6.29544  -2.41826  -2.41816  -2.41500  -2.41490
  Beta  occ. eigenvalues --   -2.41484  -2.41475  -2.40578  -2.40577  -2.40568
  Beta  occ. eigenvalues --   -2.40567  -0.68548  -0.68076  -0.63628  -0.57804
  Beta  occ. eigenvalues --   -0.56844  -0.53509  -0.49676  -0.48674  -0.43726
  Beta  occ. eigenvalues --   -0.39707  -0.36298  -0.33473  -0.29407  -0.24773
  Beta  occ. eigenvalues --   -0.23074  -0.21347  -0.19063  -0.18548  -0.17126
  Beta  occ. eigenvalues --   -0.15993  -0.15891  -0.15238  -0.12931  -0.11949
  Beta  occ. eigenvalues --   -0.10900  -0.10786  -0.09876  -0.09236  -0.08805
  Beta  occ. eigenvalues --   -0.07084  -0.06905  -0.06559  -0.06115  -0.00398
  Beta  occ. eigenvalues --    0.01574   0.02731   0.05006   0.05415   0.13040
  Beta virt. eigenvalues --    0.15917   0.17163   0.17692   0.19515   0.19894
  Beta virt. eigenvalues --    0.20820   0.21201   0.21501   0.21671   0.22225
  Beta virt. eigenvalues --    0.22235   0.22362   0.23018   0.24146   0.24906

 Mulliken charges and spin densities:
               1          2
     1  C   -0.020731   0.000000
     2  C   -0.027854   0.000000
     3  C   -0.035983   0.000000
     4  C    0.316306   0.000000
     5  C    0.526666  -0.000000
     6  C   -0.062235   0.000000
     7  C   -0.933522  -0.000000
     8  C    1.132873  -0.000000
     9  C   -0.324452   0.000000
    10  C   -1.151250  -0.000000
    11  O   -0.538873   0.000000
    12  O   -0.554362   0.000000
    13  H    0.196134  -0.000000
    14  H    0.192070  -0.000000
    15  Br  -0.339480  -0.000000
    16  Br  -0.345070   0.000000
    17  C   -0.393835  -0.000000
    18  H    0.033684   0.000000
    19  H    0.116786  -0.000000
    20  H    0.115381  -0.000000
    21  H    0.097746   0.000000
 Sum of Mulliken charges =  -2.00000   0.00000

 Dipole moment (field-independent basis, Debye):
    X=            -43.4270    Y=             36.7245    Z=             -7.5615  Tot=             57.3740
 Quadrupole moment (field-independent basis, Debye-Ang):
   XX=           -362.8987   YY=           -300.3692   ZZ=           -169.3390
   XY=            184.7185   XZ=            -13.6349   YZ=             48.7775

  Exact polarizability: 315.571 -61.185 210.194-103.777 -19.382 252.718
 Approx polarizability: 477.519-109.951 341.019-150.169 -48.850 384.390

 ******    1 imaginary frequencies (negative Signs) ******

                      1                      2                      3
                      A                      A                      A
 Frequencies --    -81.5828                62.2275                82.0732
 Red. masses --     13.5161                 3.6880                 1.1269
 Frc consts  --      0.0530                 0.0084                 0.0045
 IR Inten    --      0.2441                 4.6273                 0.6130

                      4                      5                      6
                      A                      A                      A
 Frequencies --    119.5415               122.7304               131.4082
 Red. masses --     52.2159                 8.5265                11.0530
 Frc consts  --      0.4396                 0.0757                 0.1125
 IR Inten    --      2.1910                 1.6759                 0.9631

                      7                      8                      9
                      A                      A                      A
 Frequencies --    133.4065               190.1890               211.2670
 Red. masses --     10.6730                 4.8380                15.7696
 Frc consts  --      0.1119                 0.1031                 0.4147
 IR Inten    --      5.3254                 1.3900                 2.5798

                     10                     11                     12
                      A                      A                      A
 Frequencies --    226.6886               285.0726               288.5388
 Red. masses --     17.2233                 6.4733                 3.2549
 Frc consts  --      0.5215                 0.3099                 0.1597
 IR Inten    --      0.4088                 3.6675                 0.7082

                     13                     14                     15
                      A                      A                      A
 Frequencies --    335.2306               379.4378               389.7481
 Red. masses --      7.2043                 9.3071                 7.5516
 Frc consts  --      0.4770                 0.7895                 0.6759
 IR Inten    --      1.2926                 1.6714                 6.8808

                     16                     17                     18
                      A                      A                      A
 Frequencies --    411.1632               440.4064               460.7829
 Red. masses --      3.8130                 4.1883                 8.6754
 Frc consts  --      0.3798                 0.4786                 1.0853
 IR Inten    --      1.9022                 1.7698                 2.5218

                     19                     20                     21
                      A                      A                      A
 Frequencies --    502.3768               554.6661               570.6763
 Red. masses --      7.8337                 4.0421                 7.2019
 Frc consts  --      1.1649                 0.7327                 1.3819
 IR Inten    --      4.3117                 1.5492                51.0664

                     22                     23                     24
                      A                      A                      A
 Frequencies --    650.4998               666.5385               681.8928
 Red. masses --      4.7063                 6.3854                 3.4590
 Frc consts  --      1.1733                 1.6714                 0.9476
 IR Inten    --     17.3710                47.1887                 0.4194

                     25                     26                     27
                      A                      A                      A
 Frequencies --    738.6837               761.3533               820.5930
 Red. masses --      6.7383                 4.4623                 5.8951
 Frc consts  --      2.1663                 1.5240                 2.3388
 IR Inten    --     79.1338                 6.0919                47.6185

                     28                     29                     30
                      A                      A                      A
 Frequencies --    831.4077               893.7340               925.1026
 Red. masses --      1.7093                 1.3769                 1.3852
 Frc consts  --      0.6961                 0.6480                 0.6985
 IR Inten    --     35.7428                 0.0320                17.9962

                     31                     32                     33
                      A                      A                      A
 Frequencies --    952.1855              1000.6819              1035.7685
 Red. masses --      4.4681                 1.7279                 1.4671
 Frc consts  --      2.3868                 1.0195                 0.9273
 IR Inten    --     71.7279                82.1728                 1.3985

                     34                     35                     36
                      A                      A                      A
 Frequencies --   1059.8211              1105.0074              1150.2479
 Red. masses --      1.8718                 4.4314                 5.2541
 Frc consts  --      1.2387                 3.1880                 4.0957
 IR Inten    --      3.1672                45.7397                40.4888

                     37                     38                     39
                      A                      A                      A
 Frequencies --   1185.8125              1201.7035              1233.9130
 Red. masses --      5.8358                 1.3524                 1.9521
 Frc consts  --      4.8349                 1.1507                 1.7512
 IR Inten    --    232.5370                52.4375               131.9202

                     40                     41                     42
                      A                      A                      A
 Frequencies --   1332.1769              1338.5078              1363.3923
 Red. masses --      5.8881                 4.4615                 1.6644
 Frc consts  --      6.1568                 4.7095                 1.8228
 IR Inten    --    142.2789               154.5330               237.1936

                     43                     44                     45
                      A                      A                      A
 Frequencies --   1395.2309              1407.1765              1420.0785
 Red. masses --      3.9277                 3.6756                 5.0814
 Frc consts  --      4.5049                 4.2882                 6.0375
 IR Inten    --     33.1630               551.2488                16.7538

                     46                     47                     48
                      A                      A                      A
 Frequencies --   1450.2952              1450.7707              1486.3670
 Red. masses --      4.4178                 1.0560                 1.3332
 Frc consts  --      5.4748                 1.3095                 1.7354
 IR Inten    --    145.1361                 1.1679                19.8077

                     49                     50                     51
                      A                      A                      A
 Frequencies --   1491.1614              1514.2345              1587.3218
 Red. masses --      6.7330                 5.0922                 7.1924
 Frc consts  --      8.8208                 6.8793                10.6772
 IR Inten    --    110.4651               245.0613                40.9859

                     52                     53                     54
                      A                      A                      A
 Frequencies --   2961.4042              2980.3394              3030.3480
 Red. masses --      1.0343                 1.0981                 1.1001
 Frc consts  --      5.3443                 5.7467                 5.9521
 IR Inten    --    340.6777               193.6638                39.9956

                     55                     56                     57
                      A                      A                      A
 Frequencies --   3081.0903              3168.7651              3171.4749
 Red. masses --      1.0863                 1.0886                 1.0889
 Frc consts  --      6.0757                 6.4402                 6.4529
 IR Inten    --    134.2260                 4.4656                22.0688

 - Thermochemistry -
 -------------------
 Temperature   298.150 Kelvin.  Pressure   1.00000 Atm.
 Atom     1 has atomic number  6 and mass  12.00000

 Molecular mass:   327.87345 amu.
 Principal axes and moments of inertia in atomic units:
                           1         2         3
     Eigenvalues --  3237.996928463.36493**********
           X            0.82443  -0.15667   0.54385
           Y           -0.25379   0.75656   0.60266
           Z           -0.50588  -0.63487   0.58397
 This molecule is an asymmetric top.
 Rotational symmetry number  1.
 Warning -- assumption of classical behavior for rotation
           may cause significant error
 Rotational temperatures (Kelvin)      0.02675     0.01023     0.00741
 Rotational constants (GHZ):           0.55736     0.21324     0.15438
    1 imaginary frequencies ignored.
 Zero-point vibrational energy     349445.4 (Joules/Mol)
                                   83.51946 (Kcal/Mol)
 Warning -- explicit consideration of  20 degrees of freedom as
           vibrations may cause significant error
 Vibrational temperatures:     89.53   118.09   171.99   176.58   189.07
          (Kelvin)            191.94   273.64   303.97   326.15   410.16
                              415.14   482.32   545.93   560.76   591.57
                              633.65   662.96   722.81   798.04   821.08
                              935.92   959.00   981.09  1062.80  1095.42
                             1180.65  1196.21  1285.88  1331.02  1369.98
                             1439.76  1490.24  1524.85  1589.86  1654.95
                             1706.12  1728.98  1775.33  1916.71  1925.81
                             1961.62  2007.43  2024.61  2043.18  2086.65
                             2087.34  2138.55  2145.45  2178.65  2283.80
                             4260.80  4288.04  4359.99  4433.00  4559.15
                             4563.04

 Zero-point correction=                           0.133097 (Hartree/Particle)
 Thermal correction to Energy=                    0.146332
 Thermal correction to Enthalpy=                  0.147276
 Thermal correction to Gibbs Free Energy=         0.091588
 Sum of electronic and zero-point Energies=          -5721.537145
 Sum of electronic and thermal Energies=             -5721.523909
 Sum of electronic and thermal Enthalpies=           -5721.522965
 Sum of electronic and thermal Free Energies=        -5721.578654

                     E (Thermal)             CV                S
                      KCal/Mol        Cal/Mol-Kelvin    Cal/Mol-Kelvin
 Total                   91.825             48.808            117.207
 Electronic               0.000              0.000              0.000
 Translational            0.889              2.981             43.258
 Rotational               0.889              2.981             34.126
 Vibrational             90.047             42.846             39.823
 Vibration     1          0.597              1.972              4.385
 Vibration     2          0.600              1.961              3.841
 Vibration     3          0.609              1.933              3.108
 Vibration     4          0.610              1.930              3.057
 Vibration     5          0.612              1.922              2.925
 Vibration     6          0.613              1.920              2.896
 Vibration     7          0.634              1.853              2.226
 Vibration     8          0.643              1.824              2.033
 Vibration     9          0.650              1.800              1.905
 Vibration    10          0.683              1.701              1.503
 Vibration    11          0.685              1.695              1.483
 Vibration    12          0.716              1.605              1.235
 Vibration    13          0.749              1.514              1.041
 Vibration    14          0.758              1.492              1.001
 Vibration    15          0.775              1.446              0.923
 Vibration    16          0.800              1.382              0.825
 Vibration    17          0.819              1.337              0.764
 Vibration    18          0.858              1.245              0.652
 Vibration    19          0.910              1.129              0.535
 Vibration    20          0.927              1.095              0.503

                           ! Non-Optimized Parameters !
 Normal termination of Gaussian 16 at Tue Dec 26 21:34:48 2023.
