 Q-Chem 5.4, Q-Chem, Inc., Pleasanton, CA (2021)
 Q-Chem 5.4.0 for Intel X86 EM64T Linux

User input:
--------------------------------------------------------------
$molecule
-1 2
N                 -2.5760950000      0.5058950000      2.3186170000
C                 -2.4270760000      0.2785920000      0.9635040000
C                 -3.5557650000      0.1778940000      0.1453250000
C                 -3.4342790000     -0.1182270000     -1.2174540000
C                 -2.1908760000     -0.3219110000     -1.7842160000
C                 -1.0256090000     -0.2144360000     -1.0002590000
C                  0.2648720000     -0.4261800000     -1.6674460000
O                  0.3467160000     -0.7160120000     -2.8852340000
C                  1.4543080000     -0.2761960000     -0.8354590000
C                  2.7266690000     -0.4646160000     -1.4116970000
C                  3.8725270000     -0.3239140000     -0.6638310000
Cl                 5.4401870000     -0.5716300000     -1.4360790000
C                  3.7821750000      0.0170890000      0.7077960000
Cl                 5.2339360000      0.2043630000      1.6943450000
C                  2.5490730000      0.2059510000      1.2884550000
C                  1.3627830000      0.0640360000      0.5407150000
C                  0.0794430000      0.2730190000      1.2069280000
O                  0.0522800000      0.5980280000      2.4327670000
C                 -1.1191120000      0.1012710000      0.3938190000
H                 -1.7061140000      0.7433130000      2.7963830000
H                 -3.4281600000      0.9576190000      2.6100300000
H                 -4.5377770000      0.3155620000      0.5901480000
H                 -4.3300830000     -0.1935100000     -1.8271860000
H                 -2.0708800000     -0.5605470000     -2.8330880000
H                  2.7746260000     -0.7222290000     -2.4620990000
H                  2.4622300000      0.4667770000      2.3352180000
$end
$rem
MAX_SCF_CYCLES=200
BASIS  =  6-311++G(d,p)
GUI  =  2
JOB_TYPE  =  SP
METHOD  =  B3LYP
SOLVENT_METHOD = PCM
$end
$pcm
theory = CPCM
$end
$solvent
dielectric 37.219
opticaldielectric 1.43
$end

--------------------------------------------------------------

             Standard Nuclear Orientation (Angstroms)
    I     Atom           X                Y                Z
 ----------------------------------------------------------------
    1      N      -2.5760950000     0.5058950000     2.3186170000
    2      C      -2.4270760000     0.2785920000     0.9635040000
    3      C      -3.5557650000     0.1778940000     0.1453250000
    4      C      -3.4342790000    -0.1182270000    -1.2174540000
    5      C      -2.1908760000    -0.3219110000    -1.7842160000
    6      C      -1.0256090000    -0.2144360000    -1.0002590000
    7      C       0.2648720000    -0.4261800000    -1.6674460000
    8      O       0.3467160000    -0.7160120000    -2.8852340000
    9      C       1.4543080000    -0.2761960000    -0.8354590000
   10      C       2.7266690000    -0.4646160000    -1.4116970000
   11      C       3.8725270000    -0.3239140000    -0.6638310000
   12      Cl      5.4401870000    -0.5716300000    -1.4360790000
   13      C       3.7821750000     0.0170890000     0.7077960000
   14      Cl      5.2339360000     0.2043630000     1.6943450000
   15      C       2.5490730000     0.2059510000     1.2884550000
   16      C       1.3627830000     0.0640360000     0.5407150000
   17      C       0.0794430000     0.2730190000     1.2069280000
   18      O       0.0522800000     0.5980280000     2.4327670000
   19      C      -1.1191120000     0.1012710000     0.3938190000
   20      H      -1.7061140000     0.7433130000     2.7963830000
   21      H      -3.4281600000     0.9576190000     2.6100300000
   22      H      -4.5377770000     0.3155620000     0.5901480000
   23      H      -4.3300830000    -0.1935100000    -1.8271860000
   24      H      -2.0708800000    -0.5605470000    -2.8330880000
   25      H       2.7746260000    -0.7222290000    -2.4620990000
   26      H       2.4622300000     0.4667770000     2.3352180000
 ----------------------------------------------------------------

    8   -1663.7245391766      7.84e-06  Convergence criterion met
 Total energy in the final basis set =    -1663.7245391766

                    Orbital Energies (a.u.)
 --------------------------------------------------------------

 Alpha MOs
 -- Occupied --
********-101.5620 -19.0848 -19.0800 -14.3055 -10.2482 -10.2475 -10.2358
-10.2296 -10.2190 -10.1886 -10.1884 -10.1845 -10.1834 -10.1778 -10.1763
-10.1723 -10.1635 -10.1592  -9.4767  -9.4766  -7.2412  -7.2412  -7.2317
 -7.2316  -7.2311  -7.2309  -1.0123  -1.0079  -0.9152  -0.9142  -0.8613
 -0.8526  -0.8348  -0.7796  -0.7597  -0.7352  -0.7314  -0.6701  -0.6440
 -0.6242  -0.5999  -0.5645  -0.5458  -0.5310  -0.5009  -0.4904  -0.4801
 -0.4724  -0.4523  -0.4472  -0.4419  -0.4359  -0.4221  -0.4187  -0.4099
 -0.4065  -0.3981  -0.3892  -0.3720  -0.3690  -0.3565  -0.3535  -0.3505
 -0.3355  -0.3262  -0.3160  -0.3118  -0.2689  -0.2648  -0.2547  -0.2496
 -0.2441  -0.2141  -0.1452

 Beta MOs
 -- Occupied --
********-101.5620 -19.0802 -19.0749 -14.3053 -10.2476 -10.2468 -10.2340
-10.2276 -10.2190 -10.1887 -10.1883 -10.1834 -10.1825 -10.1777 -10.1757
-10.1720 -10.1625 -10.1586  -9.4767  -9.4765  -7.2412  -7.2412  -7.2316
 -7.2315  -7.2311  -7.2309  -1.0040  -0.9988  -0.9143  -0.9132  -0.8607
 -0.8498  -0.8337  -0.7764  -0.7576  -0.7333  -0.7291  -0.6631  -0.6427
 -0.6218  -0.5988  -0.5623  -0.5437  -0.5296  -0.4999  -0.4891  -0.4781
 -0.4708  -0.4512  -0.4460  -0.4414  -0.4273  -0.4201  -0.4148  -0.4049
 -0.4036  -0.3966  -0.3714  -0.3688  -0.3621  -0.3550  -0.3511  -0.3488
 -0.3352  -0.3189  -0.3158  -0.3051  -0.2584  -0.2525  -0.2504  -0.2446
 -0.2396  -0.2060

          Ground-State Mulliken Net Atomic Charges

     Atom                 Charge (a.u.)    Spin (a.u.)
  --------------------------------------------------------
      1 N                    -0.427331       0.010585
      2 C                     0.155505       0.026907
      3 C                    -0.283931       0.088760
      4 C                    -0.517632       0.021734
      5 C                    -0.033751       0.069290
      6 C                     0.414205       0.014804
      7 C                    -0.707687       0.101023
      8 O                    -0.466393       0.195323
      9 C                    -0.488448       0.046905
     10 C                    -0.468436       0.029362
     11 C                     0.458044       0.029761
     12 Cl                    0.532313       0.002593
     13 C                     0.377335       0.050608
     14 Cl                    0.531123       0.003580
     15 C                    -0.253948       0.024888
     16 C                    -0.256536       0.073390
     17 C                    -0.925841       0.081867
     18 O                    -0.452388       0.175303
     19 C                     0.210469      -0.028776
     20 H                     0.320353      -0.002863
     21 H                     0.284750      -0.000575
     22 H                     0.185670      -0.006204
     23 H                     0.202742      -0.002066
     24 H                     0.160444      -0.004326
     25 H                     0.219644      -0.001682
     26 H                     0.229721      -0.000193
  --------------------------------------------------------
  Sum of atomic charges =    -1.000000

                    Cartesian Multipole Moments
 -----------------------------------------------------------------
    Charge (ESU x 10^10)
                -4.8032
    Dipole Moment (Debye)
         X      -6.3487      Y       1.8244      Z       2.6276
       Tot       7.1091
    Quadrupole Moments (Debye-Ang)
        XX    -146.0920     XY      -2.8800     YY    -130.4396
        XZ      -2.2912     YZ      -3.4817     ZZ    -154.9189

 Total job time:  91.70s(wall), 405.98s(cpu)
        *  Thank you very much for using Q-Chem.  Have a nice day.  *
