 Q-Chem 5.4, Q-Chem, Inc., Pleasanton, CA (2021)
 Q-Chem 5.4.0 for Intel X86 EM64T Linux

User input:
--------------------------------------------------------------
$molecule
0 1
O                 -1.0643100000      1.7113320000     -1.8264110000
C                 -0.8214280000      0.8625770000     -0.9958230000
C                 -1.8668120000     -0.0363400000     -0.4614390000
C                 -1.5953970000     -0.9729070000      0.4555610000
C                 -0.2324550000     -1.1697490000      0.9941430000
O                  0.0161500000     -2.0170270000      1.8245570000
C                  0.8548660000     -0.2664040000      0.4667940000
C                  0.5793130000      0.6844520000     -0.4642640000
C                  1.5774480000      1.5560660000     -0.9866370000
N                  2.3820590000      2.2653260000     -1.4137470000
C                  2.1633530000     -0.4656660000      0.9930910000
N                  3.2218550000     -0.6315180000      1.4231370000
H                 -2.8616230000      0.1174410000     -0.8636800000
H                 -2.3530190000     -1.6375820000      0.8547180000
$end
$rem
MAX_SCF_CYCLES=200
BASIS  =  6-311++G(d,p)
GUI  =  2
JOB_TYPE  =  SP
METHOD  =  B3LYP
SOLVENT_METHOD = PCM
$end
$pcm
theory = CPCM
$end
$solvent
dielectric 37.219
opticaldielectric 1.43
$end

--------------------------------------------------------------

             Standard Nuclear Orientation (Angstroms)
    I     Atom           X                Y                Z
 ----------------------------------------------------------------
    1      O      -1.0643100000     1.7113320000    -1.8264110000
    2      C      -0.8214280000     0.8625770000    -0.9958230000
    3      C      -1.8668120000    -0.0363400000    -0.4614390000
    4      C      -1.5953970000    -0.9729070000     0.4555610000
    5      C      -0.2324550000    -1.1697490000     0.9941430000
    6      O       0.0161500000    -2.0170270000     1.8245570000
    7      C       0.8548660000    -0.2664040000     0.4667940000
    8      C       0.5793130000     0.6844520000    -0.4642640000
    9      C       1.5774480000     1.5560660000    -0.9866370000
   10      N       2.3820590000     2.2653260000    -1.4137470000
   11      C       2.1633530000    -0.4656660000     0.9930910000
   12      N       3.2218550000    -0.6315180000     1.4231370000
   13      H      -2.8616230000     0.1174410000    -0.8636800000
   14      H      -2.3530190000    -1.6375820000     0.8547180000
 ----------------------------------------------------------------

    8    -566.0927367216      6.97e-06  Convergence criterion met
 Total energy in the final basis set =     -566.0927367216

                    Orbital Energies (a.u.)
 --------------------------------------------------------------

 Alpha MOs
 -- Occupied --
-19.1720 -19.1720 -14.3624 -14.3623 -10.3221 -10.3221 -10.2918 -10.2911
-10.2584 -10.2584 -10.2331 -10.2323  -1.1068  -1.1049  -0.9646  -0.9553
 -0.9092  -0.8430  -0.7733  -0.7051  -0.6753  -0.5998  -0.5740  -0.5600
 -0.5128  -0.4929  -0.4913  -0.4678  -0.4533  -0.4453  -0.4225  -0.4176
 -0.4165  -0.3984  -0.3889  -0.3817  -0.3355  -0.3230  -0.3229  -0.3135

          Ground-State Mulliken Net Atomic Charges

     Atom                 Charge (a.u.)
  ----------------------------------------
      1 O                    -0.224897
      2 C                    -0.834567
      3 C                     0.191818
      4 C                     0.191454
      5 C                    -0.832852
      6 O                    -0.224793
      7 C                     1.791271
      8 C                     1.782077
      9 C                    -0.997722
     10 N                    -0.204849
     11 C                    -1.000378
     12 N                    -0.204373
     13 H                     0.283870
     14 H                     0.283944
  ----------------------------------------
  Sum of atomic charges =     0.000000

                    Cartesian Multipole Moments
 -----------------------------------------------------------------
    Charge (ESU x 10^10)
                 0.0000
    Dipole Moment (Debye)
         X      -7.5359      Y      -2.1969      Z      -0.0116
       Tot       7.8496
    Quadrupole Moments (Debye-Ang)
        XX     -79.3828     XY       0.2477     YY     -80.2586
        XZ      -4.2081     YZ      14.4376     ZZ     -78.4795

 Total job time:  15.57s(wall), 84.78s(cpu)
        *  Thank you very much for using Q-Chem.  Have a nice day.  *
