 Q-Chem 5.4, Q-Chem, Inc., Pleasanton, CA (2021)
 Q-Chem 5.4.0 for Intel X86 EM64T Linux

User input:
--------------------------------------------------------------
$molecule
0 1
O                 -4.3298700000      0.9556830000     -1.5405240000
C                 -3.1797850000      0.5540840000     -0.9449530000
C                 -1.9149240000      0.9696140000     -1.3719420000
C                 -0.7658400000      0.5308590000     -0.7294360000
C                  0.5575470000      0.9970770000     -1.2158980000
O                  0.6607200000      1.7569250000     -2.1671940000
C                  1.7662890000      0.4974440000     -0.4917240000
C                  3.0314580000      0.9106500000     -0.9154550000
C                  4.1715700000      0.4599800000     -0.2582910000
C                  4.0575560000     -0.4088050000      0.8296510000
C                  2.8029800000     -0.8263720000      1.2597050000
C                  1.6525470000     -0.3777640000      0.6043660000
C                  0.3208460000     -0.8335600000      1.0767910000
O                  0.2230290000     -1.6060190000      2.0441840000
C                 -0.8620850000     -0.3486890000      0.3734570000
C                 -2.1395470000     -0.7626120000      0.7973750000
O                 -2.3418010000     -1.5972460000      1.8353670000
C                 -3.2987670000     -0.3160850000      0.1442660000
O                 -4.5189820000     -0.7197540000      0.5596860000
H                 -4.1269570000      1.5483350000     -2.2727490000
H                 -1.8123660000      1.6440550000     -2.2154290000
H                  3.0974740000      1.5843400000     -1.7607810000
H                  5.1506360000      0.7843950000     -0.5920530000
H                  4.9475300000     -0.7586120000      1.3401200000
H                  2.6918330000     -1.4993260000      2.1006690000
H                 -1.4465250000     -1.8272030000      2.1946970000
H                 -4.3945640000     -1.3113950000      1.3160950000
$end

$rem
BASIS  =  6-311++G(d,p)
GUI  =  2
JOB_TYPE  =  SP
METHOD  =  B3LYP
SCF_CONVERGENCE  = 8
SOLVENT_METHOD = sm12
$end

$smx
solvent dimethylformamide
charges CM5
$end

--------------------------------------------------------------

             Standard Nuclear Orientation (Angstroms)
    I     Atom           X                Y                Z
 ----------------------------------------------------------------
    1      O      -4.3298700000     0.9556830000    -1.5405240000
    2      C      -3.1797850000     0.5540840000    -0.9449530000
    3      C      -1.9149240000     0.9696140000    -1.3719420000
    4      C      -0.7658400000     0.5308590000    -0.7294360000
    5      C       0.5575470000     0.9970770000    -1.2158980000
    6      O       0.6607200000     1.7569250000    -2.1671940000
    7      C       1.7662890000     0.4974440000    -0.4917240000
    8      C       3.0314580000     0.9106500000    -0.9154550000
    9      C       4.1715700000     0.4599800000    -0.2582910000
   10      C       4.0575560000    -0.4088050000     0.8296510000
   11      C       2.8029800000    -0.8263720000     1.2597050000
   12      C       1.6525470000    -0.3777640000     0.6043660000
   13      C       0.3208460000    -0.8335600000     1.0767910000
   14      O       0.2230290000    -1.6060190000     2.0441840000
   15      C      -0.8620850000    -0.3486890000     0.3734570000
   16      C      -2.1395470000    -0.7626120000     0.7973750000
   17      O      -2.3418010000    -1.5972460000     1.8353670000
   18      C      -3.2987670000    -0.3160850000     0.1442660000
   19      O      -4.5189820000    -0.7197540000     0.5596860000
   20      H      -4.1269570000     1.5483350000    -2.2727490000
   21      H      -1.8123660000     1.6440550000    -2.2154290000
   22      H       3.0974740000     1.5843400000    -1.7607810000
   23      H       5.1506360000     0.7843950000    -0.5920530000
   24      H       4.9475300000    -0.7586120000     1.3401200000
   25      H       2.6918330000    -1.4993260000     2.1006690000
   26      H      -1.4465250000    -1.8272030000     2.1946970000
   27      H      -4.3945640000    -1.3113950000     1.3160950000
 ----------------------------------------------------------------

   15    -914.7089195016      4.56e-09  Convergence criterion met
 Total energy in the final basis set =     -914.7387158898

                    Orbital Energies (a.u.)
 --------------------------------------------------------------

 Alpha MOs
 -- Occupied --
-19.1795 -19.1769 -19.1741 -19.1403 -19.1274 -10.2902 -10.2813 -10.2714
-10.2696 -10.2619 -10.2122 -10.2110 -10.2101 -10.2096 -10.2017 -10.1987
-10.1984 -10.1977 -10.1974  -1.1114  -1.0947  -1.0794  -1.0623  -1.0612
 -0.8964  -0.8820  -0.8144  -0.7814  -0.7757  -0.7725  -0.6983  -0.6898
 -0.6592  -0.6384  -0.6046  -0.5944  -0.5842  -0.5583  -0.5371  -0.5291
 -0.5134  -0.4974  -0.4799  -0.4770  -0.4621  -0.4583  -0.4539  -0.4513
 -0.4489  -0.4365  -0.4292  -0.4113  -0.4022  -0.3983  -0.3949  -0.3903
 -0.3813  -0.3781  -0.3688  -0.3413  -0.2966  -0.2863  -0.2791  -0.2782
 -0.2564  -0.2421

          Ground-State Mulliken Net Atomic Charges

     Atom                 Charge (a.u.)
  ----------------------------------------
      1 O                    -0.231877
      2 C                    -0.017136
      3 C                     0.569446
      4 C                     0.551428
      5 C                    -1.292502
      6 O                    -0.264267
      7 C                    -0.501798
      8 C                     0.209013
      9 C                     0.432361
     10 C                     0.377994
     11 C                     0.325250
     12 C                    -0.174921
     13 C                    -0.887291
     14 O                    -0.298596
     15 C                     0.375501
     16 C                    -0.169967
     17 O                    -0.358147
     18 C                    -0.634346
     19 O                    -0.277979
     20 H                     0.336674
     21 H                     0.233387
     22 H                     0.185001
     23 H                     0.322000
     24 H                     0.324893
     25 H                     0.213236
     26 H                     0.348091
     27 H                     0.304551
  ----------------------------------------
  Sum of atomic charges =     0.000000

                    Cartesian Multipole Moments
 -----------------------------------------------------------------
    Charge (ESU x 10^10)
                 0.0000
    Dipole Moment (Debye)
         X       3.0562      Y       0.3386      Z      -0.1902
       Tot       3.0808
    Quadrupole Moments (Debye-Ang)
        XX     -96.4919     XY      -4.0245     YY    -109.7996
        XZ       6.1525     YZ      -1.1087     ZZ    -108.5528

 Total job time:  593.07s(wall), 4628.60s(cpu)
        *  Thank you very much for using Q-Chem.  Have a nice day.  *
