 Q-Chem 5.4, Q-Chem, Inc., Pleasanton, CA (2021)
 Q-Chem 5.4.0 for Intel X86 EM64T Linux

User input:
--------------------------------------------------------------
$molecule
-1 2
C                 -0.9703480000      3.9908370000     -0.1174870000
C                 -2.2149470000      3.3922560000     -0.1896520000
C                 -2.3216410000      1.9870310000     -0.2068890000
C                  0.2063400000      3.2145970000     -0.0574410000
C                  0.0980500000      1.7964640000     -0.0753200000
C                 -1.1775850000      1.2087000000     -0.1528800000
C                  1.5077700000      3.8665530000     -0.0032190000
C                  2.6692440000      2.9985320000      0.0710980000
C                  2.5528670000      1.6168610000      0.1079380000
C                  1.2906930000      0.9320930000     -0.0131560000
O                  1.6590220000      5.1248260000     -0.0388340000
O                  1.2072530000     -0.3200170000     -0.0625930000
N                  3.8985250000      3.6620400000      0.1503620000
S                  3.9872940000      0.5464660000      0.2483440000
H                 -0.8612180000      5.0693320000     -0.1064990000
H                 -3.1109810000      4.0047540000     -0.2337250000
H                 -3.2988520000      1.5166830000     -0.2639320000
H                 -1.2277270000      0.1258550000     -0.1678220000
H                  3.7498120000      4.6507570000     -0.0374280000
H                  4.6293350000      3.2537820000     -0.4196680000
H                  4.7522460000      1.4487600000      0.9023820000
$end

$rem
BASIS  =  6-311++G(d,p)
GUI  =  2
JOB_TYPE  =  SP
METHOD  =  B3LYP
SCF_CONVERGENCE  = 8
SOLVENT_METHOD = sm12
$end

$smx
solvent dimethylformamide
charges CM5
$end

--------------------------------------------------------------

             Standard Nuclear Orientation (Angstroms)
    I     Atom           X                Y                Z
 ----------------------------------------------------------------
    1      C      -0.9703480000     3.9908370000    -0.1174870000
    2      C      -2.2149470000     3.3922560000    -0.1896520000
    3      C      -2.3216410000     1.9870310000    -0.2068890000
    4      C       0.2063400000     3.2145970000    -0.0574410000
    5      C       0.0980500000     1.7964640000    -0.0753200000
    6      C      -1.1775850000     1.2087000000    -0.1528800000
    7      C       1.5077700000     3.8665530000    -0.0032190000
    8      C       2.6692440000     2.9985320000     0.0710980000
    9      C       2.5528670000     1.6168610000     0.1079380000
   10      C       1.2906930000     0.9320930000    -0.0131560000
   11      O       1.6590220000     5.1248260000    -0.0388340000
   12      O       1.2072530000    -0.3200170000    -0.0625930000
   13      N       3.8985250000     3.6620400000     0.1503620000
   14      S       3.9872940000     0.5464660000     0.2483440000
   15      H      -0.8612180000     5.0693320000    -0.1064990000
   16      H      -3.1109810000     4.0047540000    -0.2337250000
   17      H      -3.2988520000     1.5166830000    -0.2639320000
   18      H      -1.2277270000     0.1258550000    -0.1678220000
   19      H       3.7498120000     4.6507570000    -0.0374280000
   20      H       4.6293350000     3.2537820000    -0.4196680000
   21      H       4.7522460000     1.4487600000     0.9023820000
 ----------------------------------------------------------------

   18    -988.9321528969      7.78e-09  Convergence criterion met
 Total energy in the final basis set =     -989.0174123005

                    Orbital Energies (a.u.)
 --------------------------------------------------------------

 Alpha MOs
 -- Occupied --
-88.8534 -19.0819 -19.0761 -14.3208 -10.2293 -10.2247 -10.2129 -10.1943
-10.1831 -10.1821 -10.1814 -10.1808 -10.1797 -10.1796  -7.9391  -5.9027
 -5.8992  -5.8934  -1.0071  -1.0027  -0.9168  -0.8652  -0.8103  -0.7696
 -0.7590  -0.7128  -0.6715  -0.6208  -0.6081  -0.5692  -0.5454  -0.5156
 -0.4834  -0.4789  -0.4591  -0.4413  -0.4336  -0.4256  -0.4157  -0.4051
 -0.4018  -0.3840  -0.3730  -0.3600  -0.3534  -0.3423  -0.3247  -0.2809
 -0.2695  -0.2651  -0.2525  -0.2417  -0.2138  -0.1518

 Beta MOs
 -- Occupied --
-88.8534 -19.0751 -19.0706 -14.3203 -10.2281 -10.2225 -10.2117 -10.1937
-10.1828 -10.1814 -10.1809 -10.1800 -10.1795 -10.1794  -7.9391  -5.9027
 -5.8992  -5.8933  -0.9963  -0.9926  -0.9142  -0.8631  -0.8071  -0.7672
 -0.7570  -0.7103  -0.6638  -0.6191  -0.6054  -0.5664  -0.5441  -0.5133
 -0.4822  -0.4756  -0.4585  -0.4383  -0.4308  -0.4168  -0.4116  -0.4006
 -0.3976  -0.3707  -0.3607  -0.3567  -0.3512  -0.3398  -0.3108  -0.2761
 -0.2570  -0.2519  -0.2465  -0.2363  -0.2055

          Ground-State Mulliken Net Atomic Charges

     Atom                 Charge (a.u.)    Spin (a.u.)
  --------------------------------------------------------
      1 C                     0.016027       0.056680
      2 C                     0.884390       0.014279
      3 C                     0.838218       0.060576
      4 C                    -0.729970       0.040459
      5 C                    -0.920465       0.066893
      6 C                    -0.051724       0.002559
      7 C                    -1.870046       0.119345
      8 C                     0.349880       0.089207
      9 C                     2.246526       0.023136
     10 C                    -2.623898       0.048214
     11 O                    -0.354942       0.253447
     12 O                    -0.302902       0.202907
     13 N                    -0.147391       0.026020
     14 S                    -0.071701       0.008393
     15 H                     0.153808      -0.003599
     16 H                     0.359966      -0.001456
     17 H                     0.347996      -0.004461
     18 H                     0.137180      -0.000430
     19 H                     0.306546      -0.002446
     20 H                     0.327976       0.000879
     21 H                     0.104528      -0.000603
  --------------------------------------------------------
  Sum of atomic charges =    -1.000000

                    Cartesian Multipole Moments
 -----------------------------------------------------------------
    Charge (ESU x 10^10)
                -4.8032
    Dipole Moment (Debye)
         X      -6.1025      Y      -9.4677      Z      -0.5022
       Tot      11.2751
    Quadrupole Moments (Debye-Ang)
        XX    -100.6193     XY      -8.4150     YY    -144.5145
        XZ      -2.4420     YZ      -2.2205     ZZ     -96.1392

 Total job time:  388.13s(wall), 2944.51s(cpu)
        *  Thank you very much for using Q-Chem.  Have a nice day.  *
