 Gaussian 16, Revision A.03,
 Gaussian 16:  ES64L-G16RevA.03 25-Dec-2016

 ----------------------------------------------------------------------
 #P UB3LYP/6-311++G(d,p) nosym opt freq SCRF=(PCM,Solvent=n,n-DiMethylF
 ormamide)
 ----------------------------------------------------------------------

 -------
 Radical
 -------
 Symbolic Z-matrix:
 Charge = -1 Multiplicity = 2

 SCF Done:  E(UB3LYP) =  -1148.71949772     A.U. after   20 cycles
 SCF Done:  E(UB3LYP) =  -1148.71971410     A.U. after   14 cycles
 SCF Done:  E(UB3LYP) =  -1148.71974400     A.U. after   13 cycles
 SCF Done:  E(UB3LYP) =  -1148.71974328     A.U. after   11 cycles
 SCF Done:  E(UB3LYP) =  -1148.71974575     A.U. after   10 cycles
 Optimization completed.
    -- Stationary point found.
 Normal termination of Gaussian 16 at Sat Feb 10 16:12:05 2024.

 ----------------------------------------------------------------------
 #P Geom=AllCheck Guess=TCheck SCRF=Check GenChk UB3LYP/6-311++G(d,p) F
 req
 ----------------------------------------------------------------------

 Structure from the checkpoint file:  "118-rad.chk"
 -------
 Radical
 -------
 Charge = -1 Multiplicity = 2

                          Input orientation:
 ---------------------------------------------------------------------
 Center     Atomic      Atomic             Coordinates (Angstroms)
 Number     Number       Type             X           Y           Z
 ---------------------------------------------------------------------
      1         17           0        5.190356   -1.485954   -0.002625
      2          6           0        3.638320   -0.645065   -0.149292
      3          6           0        3.644723    0.723557   -0.482068
      4          6           0        2.436486    1.379030   -0.594762
      5          6           0        1.207276    0.714156   -0.386592
      6          6           0       -0.044251    1.454688   -0.516320
      7          8           0       -0.060745    2.682391   -0.808089
      8          6           0       -1.276249    0.699790   -0.290608
      9          6           0       -2.523481    1.354919   -0.404138
     10          6           0       -3.709702    0.679610   -0.196407
     11          6           0       -3.689202   -0.691580    0.136607
     12          6           0       -2.483849   -1.354569    0.251997
     13          6           0       -1.255412   -0.686222    0.043303
     14          6           0       -0.002678   -1.427038    0.173612
     15          8           0        0.019620   -2.655915    0.464765
     16          6           0        1.226189   -0.671782   -0.052953
     17          6           0        2.469474   -1.335607    0.061831
     18          1           0        4.580752    1.242753   -0.644140
     19          1           0        2.411706    2.431385   -0.849426
     20          1           0       -2.522960    2.407409   -0.660460
     21          1           0       -4.656661    1.200323   -0.288326
     22          1           0       -4.620574   -1.222509    0.301158
     23          1           0       -2.453104   -2.406881    0.506807
     24          1           0        2.473965   -2.386888    0.317261
 ---------------------------------------------------------------------

 SCF Done:  E(UB3LYP) =  -1148.71974575     A.U. after    1 cycles

 Alpha  occ. eigenvalues -- -101.55635 -19.07881 -19.07864 -10.23739 -10.22815
 Alpha  occ. eigenvalues --  -10.22736 -10.18492 -10.18250 -10.18201 -10.18069
 Alpha  occ. eigenvalues --  -10.17872 -10.17675 -10.17621 -10.17485 -10.17434
 Alpha  occ. eigenvalues --  -10.17235 -10.17224  -9.47094  -7.23525  -7.22596
 Alpha  occ. eigenvalues --   -7.22559  -1.00384  -1.00110  -0.89249  -0.86025
 Alpha  occ. eigenvalues --   -0.84031  -0.78419  -0.75945  -0.75252  -0.73592
 Alpha  occ. eigenvalues --   -0.67142  -0.64332  -0.61776  -0.59588  -0.56189
 Alpha  occ. eigenvalues --   -0.53813  -0.52718  -0.48014  -0.47265  -0.46522
 Alpha  occ. eigenvalues --   -0.45877  -0.43592  -0.42784  -0.42619  -0.41691
 Alpha  occ. eigenvalues --   -0.41540  -0.40883  -0.39143  -0.38838  -0.38244
 Alpha  occ. eigenvalues --   -0.35869  -0.35566  -0.35324  -0.33808  -0.32611
 Alpha  occ. eigenvalues --   -0.32080  -0.27077  -0.26338  -0.25863  -0.24957
 Alpha  occ. eigenvalues --   -0.24894  -0.24122  -0.14659
 Alpha virt. eigenvalues --   -0.05987  -0.02719  -0.00987  -0.00319   0.00565
 Alpha virt. eigenvalues --    0.00867   0.01432   0.02276   0.02716   0.03967
 Alpha virt. eigenvalues --    0.04444   0.04590   0.04593   0.05190   0.06124

  Beta  occ. eigenvalues -- -101.55633 -19.07330 -19.07289 -10.23686 -10.22650
  Beta  occ. eigenvalues --  -10.22556 -10.18437 -10.18232 -10.18119 -10.18078
  Beta  occ. eigenvalues --  -10.17786 -10.17609 -10.17548 -10.17445 -10.17390
  Beta  occ. eigenvalues --  -10.17234 -10.17215  -9.47092  -7.23527  -7.22589
  Beta  occ. eigenvalues --   -7.22558  -0.99409  -0.99098  -0.89136  -0.85798
  Beta  occ. eigenvalues --   -0.83899  -0.78066  -0.75725  -0.75068  -0.73408
  Beta  occ. eigenvalues --   -0.66396  -0.64165  -0.61520  -0.59520  -0.55949
  Beta  occ. eigenvalues --   -0.53594  -0.52558  -0.47740  -0.47150  -0.46354
  Beta  occ. eigenvalues --   -0.45797  -0.43557  -0.42575  -0.41631  -0.41537
  Beta  occ. eigenvalues --   -0.40983  -0.40611  -0.38681  -0.38676  -0.35918
  Beta  occ. eigenvalues --   -0.35803  -0.35189  -0.34982  -0.33658  -0.32064
  Beta  occ. eigenvalues --   -0.31733  -0.26087  -0.25028  -0.24827  -0.24436
  Beta  occ. eigenvalues --   -0.24333  -0.23599
  Beta virt. eigenvalues --   -0.08731  -0.05072  -0.01677  -0.00754  -0.00302
  Beta virt. eigenvalues --    0.00564   0.00904   0.01448   0.02287   0.02720
  Beta virt. eigenvalues --    0.04315   0.04449   0.04610   0.05014   0.05201

 Mulliken charges and spin densities:
               1          2
     1  Cl   0.446911   0.002526
     2  C    0.590724   0.031136
     3  C   -0.501461   0.046142
     4  C    0.017185   0.019307
     5  C    0.067409   0.042337
     6  C   -0.629030   0.091866
     7  O   -0.457375   0.204627
     8  C    0.145297   0.026087
     9  C    0.114328   0.024876
    10  C   -0.442714   0.037557
    11  C   -0.438834   0.029267
    12  C    0.094660   0.032110
    13  C    0.227917   0.025993
    14  C   -0.649445   0.102888
    15  O   -0.460495   0.213697
    16  C   -0.096725   0.059953
    17  C   -0.297615   0.024753
    18  H    0.202943  -0.003557
    19  H    0.176720  -0.000921
    20  H    0.168775  -0.001367
    21  H    0.182563  -0.003047
    22  H    0.183120  -0.002508
    23  H    0.166065  -0.001900
    24  H    0.189077  -0.001820
 Sum of Mulliken charges =  -1.00000   1.00000

 Dipole moment (field-independent basis, Debye):
    X=             -2.6750    Y=              1.2064    Z=              0.6196  Tot=              2.9991
 Quadrupole moment (field-independent basis, Debye-Ang):
   XX=           -116.6408   YY=           -139.3734   ZZ=           -112.8787
   XY=              7.2063   XZ=             -1.1019   YZ=              6.1618

  Exact polarizability: 491.002 -16.688 339.643  -9.379 -49.409 143.772
 Approx polarizability: 493.595 -13.288 408.137  -9.583 -61.280 166.602

                      1                      2                      3
                      A                      A                      A
 Frequencies --     46.9014                91.2713               129.7609
 Red. masses --      9.0370                 6.0785                 4.9863
 Frc consts  --      0.0117                 0.0298                 0.0495
 IR Inten    --      7.2666                 7.3320                 1.5704

                      4                      5                      6
                      A                      A                      A
 Frequencies --    152.6466               157.2971               197.5615
 Red. masses --     11.0100                 6.6935                 6.1418
 Frc consts  --      0.1512                 0.0976                 0.1412
 IR Inten    --      1.7852                 3.7322                 0.5454

                      7                      8                      9
                      A                      A                      A
 Frequencies --    263.1422               285.9471               295.6922
 Red. masses --      7.0406                 6.3255                11.4796
 Frc consts  --      0.2872                 0.3047                 0.5914
 IR Inten    --      7.1613                 0.5784                 0.5852

                     10                     11                     12
                      A                      A                      A
 Frequencies --    353.5132               378.0328               418.7207
 Red. masses --      6.9318                10.8390                 3.5298
 Frc consts  --      0.5104                 0.9126                 0.3646
 IR Inten    --      5.3142                19.5514                 3.0049

                     13                     14                     15
                      A                      A                      A
 Frequencies --    422.3046               436.7150               465.0458
 Red. masses --      7.1545                 5.5187                 3.0813
 Frc consts  --      0.7518                 0.6201                 0.3926
 IR Inten    --      9.0800                 2.7235                 0.0135

                     16                     17                     18
                      A                      A                      A
 Frequencies --    478.7707               516.6585               528.7635
 Red. masses --     11.2184                 8.7854                 4.5864
 Frc consts  --      1.5151                 1.3817                 0.7555
 IR Inten    --     10.9553                24.7797                 7.9686

                     19                     20                     21
                      A                      A                      A
 Frequencies --    635.6386               642.1961               648.0410
 Red. masses --      6.9601                 4.3246                 7.0232
 Frc consts  --      1.6569                 1.0508                 1.7378
 IR Inten    --     30.9899                 8.1105                30.7943

                     22                     23                     24
                      A                      A                      A
 Frequencies --    694.1622               704.9455               706.8911
 Red. masses --      6.5222                 7.4188                 2.5700
 Frc consts  --      1.8517                 2.1722                 0.7566
 IR Inten    --      3.6599                45.0130               119.2890

                     25                     26                     27
                      A                      A                      A
 Frequencies --    727.4346               787.7994               796.0850
 Red. masses --      4.4695                 1.6146                 2.9876
 Frc consts  --      1.3935                 0.5904                 1.1156
 IR Inten    --      0.2805                13.6964                13.2124

                     28                     29                     30
                      A                      A                      A
 Frequencies --    822.7891               829.4096               887.2418
 Red. masses --      6.7140                 1.8574                 1.4737
 Frc consts  --      2.6780                 0.7528                 0.6835
 IR Inten    --     65.2786                40.1524                 0.1870

                     31                     32                     33
                      A                      A                      A
 Frequencies --    915.2335               933.2098               957.8901
 Red. masses --      1.4435                 6.4745                 6.5656
 Frc consts  --      0.7124                 3.3221                 3.5494
 IR Inten    --     20.1714                53.4705                37.2764

                     34                     35                     36
                      A                      A                      A
 Frequencies --    986.7463               990.9986              1003.4336
 Red. masses --      1.3225                 1.3678                 1.2925
 Frc consts  --      0.7587                 0.7914                 0.7667
 IR Inten    --      0.2501                 3.8670                 0.0020

                     37                     38                     39
                      A                      A                      A
 Frequencies --   1039.2665              1073.3809              1112.1241
 Red. masses --      2.0014                 1.9915                 2.2878
 Frc consts  --      1.2736                 1.3519                 1.6672
 IR Inten    --     34.6775                25.1740                56.2102

                     40                     41                     42
                      A                      A                      A
 Frequencies --   1122.4703              1151.2673              1178.2481
 Red. masses --      1.8540                 1.3686                 3.3072
 Frc consts  --      1.3763                 1.0688                 2.7051
 IR Inten    --     36.1131                12.3552                18.6600

                     43                     44                     45
                      A                      A                      A
 Frequencies --   1192.0545              1214.7216              1225.6887
 Red. masses --      2.1112                 1.5880                 2.6858
 Frc consts  --      1.7676                 1.3806                 2.3773
 IR Inten    --      4.6865                 3.1664                31.0945

                     46                     47                     48
                      A                      A                      A
 Frequencies --   1252.5551              1330.0967              1357.7850
 Red. masses --      1.9620                 2.3712                11.2246
 Frc consts  --      1.8136                 2.4717                12.1923
 IR Inten    --    290.9840               109.5407                 6.6557

                     49                     50                     51
                      A                      A                      A
 Frequencies --   1359.7502              1400.4915              1452.3593
 Red. masses --      8.7724                 3.2173                 2.7512
 Frc consts  --      9.5563                 3.7179                 3.4191
 IR Inten    --     12.6414              1050.4825               355.7447

                     52                     53                     54
                      A                      A                      A
 Frequencies --   1473.1158              1484.0855              1498.9450
 Red. masses --      3.5049                 3.4006                 3.9755
 Frc consts  --      4.4812                 4.4129                 5.2628
 IR Inten    --    297.4269                83.3325               991.6795

                     55                     56                     57
                      A                      A                      A
 Frequencies --   1521.1752              1553.7445              1603.8371
 Red. masses --      6.8884                 5.7498                 7.4292
 Frc consts  --      9.3913                 8.1783                11.2594
 IR Inten    --     20.7457                80.6532                52.0441

                     58                     59                     60
                      A                      A                      A
 Frequencies --   1610.7628              1629.1301              3160.6494
 Red. masses --      7.4802                 6.0259                 1.0861
 Frc consts  --     11.4347                 9.4229                 6.3925
 IR Inten    --     49.7885                 6.0457                12.6802

                     61                     62                     63
                      A                      A                      A
 Frequencies --   3174.5091              3188.3774              3190.5378
 Red. masses --      1.0903                 1.0871                 1.0922
 Frc consts  --      6.4738                 6.5112                 6.5504
 IR Inten    --     20.8934                 1.3499                18.7337

                     64                     65                     66
                      A                      A                      A
 Frequencies --   3194.4979              3202.1369              3205.9098
 Red. masses --      1.0940                 1.0949                 1.0910
 Frc consts  --      6.5780                 6.6143                 6.6063
 IR Inten    --     43.5357                10.8564                11.8407

 - Thermochemistry -
 -------------------
 Temperature   298.150 Kelvin.  Pressure   1.00000 Atm.
 Atom     1 has atomic number 17 and mass  34.96885

 Molecular mass:   242.01346 amu.
 Principal axes and moments of inertia in atomic units:
                           1         2         3
     Eigenvalues --  1780.881707004.439588785.31112
           X            0.98768   0.15226   0.03609
           Y           -0.15647   0.95961   0.23379
           Z            0.00097  -0.23656   0.97162
 This molecule is an asymmetric top.
 Rotational symmetry number  1.
 Warning -- assumption of classical behavior for rotation
           may cause significant error
 Rotational temperatures (Kelvin)      0.04864     0.01237     0.00986
 Rotational constants (GHZ):           1.01340     0.25766     0.20543
 Zero-point vibrational energy     439284.1 (Joules/Mol)
                                  104.99142 (Kcal/Mol)
 Warning -- explicit consideration of  18 degrees of freedom as
           vibrations may cause significant error
 Vibrational temperatures:     67.48   131.32   186.70   219.62   226.32
          (Kelvin)            284.25   378.60   411.41   425.44   508.63
                              543.90   602.45   607.60   628.34   669.10
                              688.84   743.36   760.77   914.54   923.98
                              932.39   998.74  1014.26  1017.06  1046.62
                             1133.47  1145.39  1183.81  1193.34  1276.54
                             1316.82  1342.68  1378.19  1419.71  1425.83
                             1443.72  1495.27  1544.36  1600.10  1614.98
                             1656.42  1695.24  1715.10  1747.71  1763.49
                             1802.15  1913.71  1953.55  1956.38  2014.99
                             2089.62  2119.49  2135.27  2156.65  2188.63
                             2235.49  2307.56  2317.53  2343.95  4547.47
                             4567.41  4587.36  4590.47  4596.17  4607.16
                             4612.59

 Zero-point correction=                           0.167314 (Hartree/Particle)
 Thermal correction to Energy=                    0.179785
 Thermal correction to Enthalpy=                  0.180729
 Thermal correction to Gibbs Free Energy=         0.127330
 Sum of electronic and zero-point Energies=          -1148.552431
 Sum of electronic and thermal Energies=             -1148.539961
 Sum of electronic and thermal Enthalpies=           -1148.539016
 Sum of electronic and thermal Free Energies=        -1148.592416

                     E (Thermal)             CV                S
                      KCal/Mol        Cal/Mol-Kelvin    Cal/Mol-Kelvin
 Total                  112.817             50.080            112.389
 Electronic               0.000              0.000              1.377
 Translational            0.889              2.981             42.353
 Rotational               0.889              2.981             33.060
 Vibrational            111.039             44.118             35.599
 Vibration     1          0.595              1.979              4.944
 Vibration     2          0.602              1.955              3.633
 Vibration     3          0.612              1.924              2.950
 Vibration     4          0.619              1.900              2.639
 Vibration     5          0.621              1.894              2.582
 Vibration     6          0.637              1.843              2.156
 Vibration     7          0.670              1.740              1.641
 Vibration     8          0.684              1.700              1.498
 Vibration     9          0.690              1.682              1.441
 Vibration    10          0.730              1.568              1.150
 Vibration    11          0.748              1.517              1.047
 Vibration    12          0.782              1.430              0.896
 Vibration    13          0.785              1.422              0.884
 Vibration    14          0.797              1.390              0.837
 Vibration    15          0.822              1.328              0.752
 Vibration    16          0.835              1.297              0.713
 Vibration    17          0.872              1.213              0.618
 Vibration    18          0.884              1.186              0.590

 Optimization completed.
    -- Stationary point found.
 Normal termination of Gaussian 16 at Sat Feb 10 17:04:11 2024.
