 Gaussian 16, Revision A.03,
 Gaussian 16:  ES64L-G16RevA.03 25-Dec-2016

 ----------------------------------------------------------------------
 #P UB3LYP/6-311++G(d,p) nosym opt freq SCRF=(PCM,Solvent=n,n-DiMethylF
 ormamide)
 ----------------------------------------------------------------------

 --------
 Oxidized
 --------
 Symbolic Z-matrix:
 Charge =  0 Multiplicity = 1

 SCF Done:  E(UB3LYP) =  -845.404948422     A.U. after   16 cycles
 SCF Done:  E(UB3LYP) =  -845.405100706     A.U. after   14 cycles
 SCF Done:  E(UB3LYP) =  -845.405163891     A.U. after   13 cycles
 SCF Done:  E(UB3LYP) =  -845.405336674     A.U. after   13 cycles
 SCF Done:  E(UB3LYP) =  -845.405318459     A.U. after   13 cycles
 SCF Done:  E(UB3LYP) =  -845.405358501     A.U. after   12 cycles
 SCF Done:  E(UB3LYP) =  -845.405374234     A.U. after   12 cycles
 SCF Done:  E(UB3LYP) =  -845.405382415     A.U. after   11 cycles
 SCF Done:  E(UB3LYP) =  -845.405385658     A.U. after   10 cycles
 SCF Done:  E(UB3LYP) =  -845.405388024     A.U. after   10 cycles
 SCF Done:  E(UB3LYP) =  -845.405540399     A.U. after   10 cycles
 SCF Done:  E(UB3LYP) =  -845.405540641     A.U. after    9 cycles
 SCF Done:  E(UB3LYP) =  -845.405540865     A.U. after   10 cycles
 SCF Done:  E(UB3LYP) =  -845.405541147     A.U. after   10 cycles
 SCF Done:  E(UB3LYP) =  -845.405541687     A.U. after   11 cycles
 SCF Done:  E(UB3LYP) =  -845.405541931     A.U. after   10 cycles
 SCF Done:  E(UB3LYP) =  -845.405542142     A.U. after   10 cycles
 SCF Done:  E(UB3LYP) =  -845.405542227     A.U. after    9 cycles
 SCF Done:  E(UB3LYP) =  -845.405542255     A.U. after    9 cycles
 Optimization completed.
    -- Stationary point found.
 Normal termination of Gaussian 16 at Sat Feb 10 14:29:42 2024.

 ----------------------------------------------------------------------
 #P Geom=AllCheck Guess=TCheck SCRF=Check GenChk UB3LYP/6-311++G(d,p) F
 req
 ----------------------------------------------------------------------

 Structure from the checkpoint file:  "091.chk"
 --------
 Oxidized
 --------
 Charge =  0 Multiplicity = 1

                          Input orientation:
 ---------------------------------------------------------------------
 Center     Atomic      Atomic             Coordinates (Angstroms)
 Number     Number       Type             X           Y           Z
 ---------------------------------------------------------------------
      1          6           0       -0.910282    2.580769    0.163938
      2          6           0        0.506519    2.795899   -0.277860
      3          6           0        1.211484    1.768716   -0.796750
      4          6           0        0.569382    0.433533   -0.964951
      5          6           0       -0.837132    0.206152   -0.476082
      6          6           0       -1.518118    1.231273    0.099598
      7          8           0       -1.577781    3.524223    0.575329
      8          8           0        1.178662   -0.485445   -1.487573
      9          8           0       -2.815108    1.110799    0.509067
     10          8           0       -1.223692   -1.051376   -0.699589
     11          6           0       -3.046007    1.212573    1.930247
     12          6           0       -2.537777   -1.542995   -0.361652
     13          6           0        2.638859    1.845311   -1.255897
     14          6           0        1.048641    4.196210   -0.083809
     15          6           0        1.693390    4.367397    1.275181
     16          6           0        2.894465    4.890450    1.558009
     17          6           0        3.868421    5.429628    0.541362
     18          6           0        3.368384    4.991886    2.988155
     19          1           0       -2.705140    2.174405    2.312989
     20          1           0       -2.538888    0.396387    2.452893
     21          1           0       -4.122418    1.121373    2.063648
     22          1           0       -2.538223   -2.574735   -0.706869
     23          1           0       -3.308736   -0.970951   -0.873847
     24          1           0       -2.698116   -1.512193    0.715723
     25          1           0        3.099850    2.795326   -0.999413
     26          1           0        2.702372    1.704839   -2.339277
     27          1           0        3.224560    1.041836   -0.802892
     28          1           0        0.206056    4.888782   -0.165569
     29          1           0        1.741011    4.439218   -0.887928
     30          1           0        1.082108    4.028719    2.109407
     31          1           0        3.519790    5.344496   -0.487591
     32          1           0        4.830293    4.910384    0.620304
     33          1           0        4.070994    6.488771    0.737436
     34          1           0        2.633017    4.594001    3.690189
     35          1           0        3.573030    6.034417    3.258082
     36          1           0        4.307851    4.443869    3.125650
 ---------------------------------------------------------------------

 SCF Done:  E(UB3LYP) =  -845.405542255     A.U. after    1 cycles

 Alpha  occ. eigenvalues --  -19.18204 -19.15883 -19.14069 -19.13423 -10.28804
 Alpha  occ. eigenvalues --  -10.28231 -10.26947 -10.25085 -10.22950 -10.22271
 Alpha  occ. eigenvalues --  -10.21374 -10.21293 -10.18357 -10.18340 -10.17574
 Alpha  occ. eigenvalues --  -10.16988 -10.16570 -10.16366  -1.10493  -1.08061
 Alpha  occ. eigenvalues --   -1.06656  -1.05393  -0.86626  -0.82399  -0.80549
 Alpha  occ. eigenvalues --   -0.76067  -0.74664  -0.72188  -0.69611  -0.69162
 Alpha  occ. eigenvalues --   -0.66896  -0.64905  -0.59791  -0.59342  -0.55746
 Alpha  occ. eigenvalues --   -0.53549  -0.52415  -0.51625  -0.49780  -0.47708
 Alpha  occ. eigenvalues --   -0.47294  -0.46624  -0.46423  -0.45667  -0.45013
 Alpha  occ. eigenvalues --   -0.44536  -0.44032  -0.43637  -0.41740  -0.41595
 Alpha  occ. eigenvalues --   -0.41322  -0.40879  -0.39612  -0.38731  -0.38413
 Alpha  occ. eigenvalues --   -0.37582  -0.37440  -0.36537  -0.36181  -0.35779
 Alpha  occ. eigenvalues --   -0.34191  -0.31317  -0.28978  -0.28803  -0.27696
 Alpha  occ. eigenvalues --   -0.24898  -0.24291
 Alpha virt. eigenvalues --   -0.12621  -0.01282  -0.01162  -0.00292  -0.00117
 Alpha virt. eigenvalues --    0.00379   0.01055   0.01320   0.01557   0.01845
 Alpha virt. eigenvalues --    0.02736   0.03003   0.03466   0.03752   0.03900

  Beta  occ. eigenvalues --  -19.18204 -19.15883 -19.14069 -19.13423 -10.28804
  Beta  occ. eigenvalues --  -10.28231 -10.26947 -10.25085 -10.22950 -10.22271
  Beta  occ. eigenvalues --  -10.21374 -10.21293 -10.18357 -10.18340 -10.17574
  Beta  occ. eigenvalues --  -10.16988 -10.16570 -10.16366  -1.10493  -1.08061
  Beta  occ. eigenvalues --   -1.06656  -1.05393  -0.86626  -0.82399  -0.80549
  Beta  occ. eigenvalues --   -0.76067  -0.74664  -0.72188  -0.69611  -0.69162
  Beta  occ. eigenvalues --   -0.66896  -0.64905  -0.59791  -0.59342  -0.55746
  Beta  occ. eigenvalues --   -0.53549  -0.52415  -0.51625  -0.49780  -0.47708
  Beta  occ. eigenvalues --   -0.47294  -0.46624  -0.46423  -0.45667  -0.45013
  Beta  occ. eigenvalues --   -0.44536  -0.44032  -0.43637  -0.41740  -0.41595
  Beta  occ. eigenvalues --   -0.41322  -0.40879  -0.39612  -0.38731  -0.38413
  Beta  occ. eigenvalues --   -0.37582  -0.37440  -0.36537  -0.36181  -0.35779
  Beta  occ. eigenvalues --   -0.34191  -0.31317  -0.28978  -0.28803  -0.27696
  Beta  occ. eigenvalues --   -0.24898  -0.24291
  Beta virt. eigenvalues --   -0.12621  -0.01282  -0.01162  -0.00292  -0.00117
  Beta virt. eigenvalues --    0.00379   0.01055   0.01320   0.01557   0.01845
  Beta virt. eigenvalues --    0.02736   0.03003   0.03466   0.03752   0.03900

 Mulliken charges and spin densities:
               1          2
     1  C   -0.598862  -0.000000
     2  C    0.876105   0.000000
     3  C    0.626412   0.000000
     4  C   -0.598900  -0.000000
     5  C   -0.000414  -0.000000
     6  C   -0.288855   0.000000
     7  O   -0.293005  -0.000000
     8  O   -0.274693  -0.000000
     9  O   -0.201297  -0.000000
    10  O   -0.203730   0.000000
    11  C   -0.306785   0.000000
    12  C   -0.278846   0.000000
    13  C   -0.668682  -0.000000
    14  C    0.633927  -0.000000
    15  C   -0.756703  -0.000000
    16  C    0.509747   0.000000
    17  C   -0.638833  -0.000000
    18  C   -0.623880  -0.000000
    19  H    0.162001  -0.000000
    20  H    0.154291   0.000000
    21  H    0.181533   0.000000
    22  H    0.197048  -0.000000
    23  H    0.198379   0.000000
    24  H    0.188108   0.000000
    25  H    0.102309   0.000000
    26  H    0.202813  -0.000000
    27  H    0.190376  -0.000000
    28  H    0.230505   0.000000
    29  H    0.177807   0.000000
    30  H    0.200899  -0.000000
    31  H    0.132707   0.000000
    32  H    0.154453   0.000000
    33  H    0.157084   0.000000
    34  H    0.155018   0.000000
    35  H    0.148725  -0.000000
    36  H    0.153238   0.000000
 Sum of Mulliken charges =  -0.00000   0.00000

 Dipole moment (field-independent basis, Debye):
    X=              0.3079    Y=              0.1922    Z=              2.3327  Tot=              2.3607
 Quadrupole moment (field-independent basis, Debye-Ang):
   XX=            -97.6344   YY=           -110.8825   ZZ=           -104.6226
   XY=             22.8666   XZ=             -1.4818   YZ=             -4.6477

  Exact polarizability: 266.751   3.255 286.210 -25.518  49.898 205.547
 Approx polarizability: 294.872 -38.559 341.455 -37.075  68.023 229.919

                      1                      2                      3
                      A                      A                      A
 Frequencies --     19.1950                21.8788                36.0197
 Red. masses --      3.0887                 3.5669                 3.4265
 Frc consts  --      0.0007                 0.0010                 0.0026
 IR Inten    --      4.6380                 0.8025                 0.3702

                      4                      5                      6
                      A                      A                      A
 Frequencies --     43.7582                54.8158                75.1261
 Red. masses --      2.4725                 2.3607                 1.7783
 Frc consts  --      0.0028                 0.0042                 0.0059
 IR Inten    --      0.1564                 3.9883                 6.3020

                      7                      8                      9
                      A                      A                      A
 Frequencies --     90.4418                97.1873               110.4797
 Red. masses --      2.3610                 3.5925                 3.2597
 Frc consts  --      0.0114                 0.0200                 0.0234
 IR Inten    --      7.3277                 1.6918                 0.2715

                     10                     11                     12
                      A                      A                      A
 Frequencies --    129.7650               143.1785               176.6753
 Red. masses --      1.3430                 1.0636                 1.9671
 Frc consts  --      0.0133                 0.0128                 0.0362
 IR Inten    --      1.7363                 0.9894                 5.0478

                     13                     14                     15
                      A                      A                      A
 Frequencies --    185.1158               200.2880               226.8725
 Red. masses --      1.9660                 2.9443                 1.1954
 Frc consts  --      0.0397                 0.0696                 0.0363
 IR Inten    --      1.5507                 2.3332                 1.7724

                     16                     17                     18
                      A                      A                      A
 Frequencies --    232.1154               247.1214               281.9716
 Red. masses --      3.5243                 2.3863                 3.4692
 Frc consts  --      0.1119                 0.0859                 0.1625
 IR Inten    --     11.2979                 3.9768                 2.1504

                     19                     20                     21
                      A                      A                      A
 Frequencies --    326.5550               341.6833               347.3293
 Red. masses --      3.3245                 4.8601                 5.8848
 Frc consts  --      0.2089                 0.3343                 0.4183
 IR Inten    --      3.6560                 2.8460                 2.7901

                     22                     23                     24
                      A                      A                      A
 Frequencies --    369.0115               383.4943               394.3082
 Red. masses --      2.4281                 4.6378                 3.4830
 Frc consts  --      0.1948                 0.4019                 0.3191
 IR Inten    --      2.4506                14.9493                 3.1023

                     25                     26                     27
                      A                      A                      A
 Frequencies --    429.2477               442.1303               449.6955
 Red. masses --      5.1517                 4.8841                 5.3512
 Frc consts  --      0.5593                 0.5625                 0.6376
 IR Inten    --     21.1674                28.5150                 4.6607

                     28                     29                     30
                      A                      A                      A
 Frequencies --    456.3168               486.1887               533.2271
 Red. masses --      2.7672                 5.2267                 3.4943
 Frc consts  --      0.3395                 0.7279                 0.5854
 IR Inten    --      7.2396                 7.5397                10.7380

                     31                     32                     33
                      A                      A                      A
 Frequencies --    570.3369               637.5154               647.8337
 Red. masses --      6.3362                 5.5031                 6.4547
 Frc consts  --      1.2143                 1.3178                 1.5961
 IR Inten    --     11.0967                17.7069                 9.5170

                     34                     35                     36
                      A                      A                      A
 Frequencies --    715.3633               757.5455               787.9268
 Red. masses --      3.0655                 6.2844                 3.6439
 Frc consts  --      0.9243                 2.1249                 1.3329
 IR Inten    --     19.8481                24.5561                 0.6033

                     37                     38                     39
                      A                      A                      A
 Frequencies --    803.8137               844.4955               875.4651
 Red. masses --      2.9691                 2.5491                 2.7558
 Frc consts  --      1.1303                 1.0711                 1.2444
 IR Inten    --     15.0687                22.4410                12.5470

                     40                     41                     42
                      A                      A                      A
 Frequencies --    932.2069               944.7469               954.9490
 Red. masses --      3.6900                 2.6046                 5.0774
 Frc consts  --      1.8893                 1.3697                 2.7281
 IR Inten    --     57.1790                71.3001                26.9629

                     43                     44                     45
                      A                      A                      A
 Frequencies --    960.4212              1008.7078              1014.1688
 Red. masses --      1.4399                 1.4440                 2.2913
 Frc consts  --      0.7826                 0.8657                 1.3885
 IR Inten    --      1.1813                18.3834                44.5257

                     46                     47                     48
                      A                      A                      A
 Frequencies --   1041.3110              1047.7858              1084.6327
 Red. masses --      2.2665                 1.9375                 2.6629
 Frc consts  --      1.4480                 1.2533                 1.8458
 IR Inten    --    110.3447                53.0930                46.0482

                     49                     50                     51
                      A                      A                      A
 Frequencies --   1098.8372              1116.1679              1118.5885
 Red. masses --      1.6746                 1.9575                 3.1893
 Frc consts  --      1.1913                 1.4368                 2.3512
 IR Inten    --      0.1266                43.2129                91.2348

                     52                     53                     54
                      A                      A                      A
 Frequencies --   1156.1932              1161.6352              1163.3188
 Red. masses --      1.7032                 1.9447                 1.2665
 Frc consts  --      1.3414                 1.5461                 1.0098
 IR Inten    --    156.8013               124.0766                 2.8833

                     55                     56                     57
                      A                      A                      A
 Frequencies --   1197.8147              1212.4699              1221.8515
 Red. masses --      1.7193                 1.6700                 2.0426
 Frc consts  --      1.4534                 1.4465                 1.7966
 IR Inten    --      7.1798                83.3435               156.9731

                     58                     59                     60
                      A                      A                      A
 Frequencies --   1256.0267              1265.8766              1310.7278
 Red. masses --      1.9521                 3.1070                 1.8451
 Frc consts  --      1.8145                 2.9334                 1.8676
 IR Inten    --    273.2909               604.1031                 5.8406

                     61                     62                     63
                      A                      A                      A
 Frequencies --   1317.6667              1336.1446              1381.9161
 Red. masses --      5.7143                 3.0400                 1.2977
 Frc consts  --      5.8455                 3.1976                 1.4601
 IR Inten    --     38.0099                 2.2080                10.5401

                     64                     65                     66
                      A                      A                      A
 Frequencies --   1405.1269              1408.1420              1413.3800
 Red. masses --      1.3331                 1.2878                 1.2587
 Frc consts  --      1.5507                 1.5045                 1.4814
 IR Inten    --     10.3010                24.0619                 4.7137

                     67                     68                     69
                      A                      A                      A
 Frequencies --   1459.3943              1463.0310              1463.7747
 Red. masses --      1.0911                 1.1551                 1.0452
 Frc consts  --      1.3691                 1.4567                 1.3194
 IR Inten    --     20.3697                24.0195                 1.5919

                     70                     71                     72
                      A                      A                      A
 Frequencies --   1465.2615              1477.0050              1477.2485
 Red. masses --      1.0538                 1.0665                 1.0590
 Frc consts  --      1.3331                 1.3708                 1.3616
 IR Inten    --     13.3238                 8.4301                 7.2186

                     73                     74                     75
                      A                      A                      A
 Frequencies --   1478.2871              1481.0524              1482.7661
 Red. masses --      1.0731                 1.0437                 1.0709
 Frc consts  --      1.3817                 1.3488                 1.3873
 IR Inten    --     29.1531                19.0265                14.9600

                     76                     77                     78
                      A                      A                      A
 Frequencies --   1483.8519              1489.6259              1492.5583
 Red. masses --      1.1046                 1.0916                 1.0808
 Frc consts  --      1.4330                 1.4271                 1.4185
 IR Inten    --     22.5721                20.0939                11.8151

                     79                     80                     81
                      A                      A                      A
 Frequencies --   1497.2310              1636.1041              1672.2853
 Red. masses --      1.0518                 9.1501                11.6876
 Frc consts  --      1.3892                14.4311                19.2573
 IR Inten    --     28.2083               657.5944               739.4618

                     82                     83                     84
                      A                      A                      A
 Frequencies --   1695.3744              1701.1322              1715.5104
 Red. masses --      9.1663                12.5576                 6.3653
 Frc consts  --     15.5231                21.4109                11.0371
 IR Inten    --     21.2858               342.3471                 6.9915

                     85                     86                     87
                      A                      A                      A
 Frequencies --   3005.7410              3013.9530              3027.9565
 Red. masses --      1.0379                 1.0408                 1.0363
 Frc consts  --      5.5249                 5.5706                 5.5983
 IR Inten    --     46.1710                71.2973                75.2051

                     88                     89                     90
                      A                      A                      A
 Frequencies --   3039.5546              3047.7161              3048.2326
 Red. masses --      1.0430                 1.0865                 1.0797
 Frc consts  --      5.6777                 5.9463                 5.9106
 IR Inten    --     14.2272                37.9525                 6.0808

                     91                     92                     93
                      A                      A                      A
 Frequencies --   3051.9546              3058.6740              3086.7254
 Red. masses --      1.0990                 1.0284                 1.0967
 Frc consts  --      6.0312                 5.6689                 6.1566
 IR Inten    --     42.8922                57.5463                12.1358

                     94                     95                     96
                      A                      A                      A
 Frequencies --   3097.2705              3108.9440              3111.2129
 Red. masses --      1.0996                 1.0951                 1.0983
 Frc consts  --      6.2153                 6.2365                 6.2636
 IR Inten    --     37.7574                10.2508                36.7508

                     97                     98                     99
                      A                      A                      A
 Frequencies --   3118.3677              3126.5850              3142.4246
 Red. masses --      1.0915                 1.0904                 1.1071
 Frc consts  --      6.2537                 6.2802                 6.4412
 IR Inten    --     18.8756                57.4936                29.6430

                    100                    101                    102
                      A                      A                      A
 Frequencies --   3146.9845              3157.1438              3158.0288
 Red. masses --      1.1063                 1.1084                 1.0968
 Frc consts  --      6.4551                 6.5094                 6.4446
 IR Inten    --     22.3239                18.3796                13.7887

 - Thermochemistry -
 -------------------
 Temperature   298.150 Kelvin.  Pressure   1.00000 Atm.
 Atom     1 has atomic number  6 and mass  12.00000

 Molecular mass:   250.12051 amu.
 Principal axes and moments of inertia in atomic units:
                           1         2         3
     Eigenvalues --  2608.077987473.258349167.69876
           X            0.68226   0.65547   0.32385
           Y            0.70632  -0.47656  -0.52345
           Z            0.18877  -0.58587   0.78811
 This molecule is an asymmetric top.
 Rotational symmetry number  1.
 Warning -- assumption of classical behavior for rotation
           may cause significant error
 Rotational temperatures (Kelvin)      0.03321     0.01159     0.00945
 Rotational constants (GHZ):           0.69198     0.24149     0.19686
 Zero-point vibrational energy     769684.9 (Joules/Mol)
                                  183.95911 (Kcal/Mol)
 Warning -- explicit consideration of  31 degrees of freedom as
           vibrations may cause significant error
 Vibrational temperatures:     27.62    31.48    51.82    62.96    78.87
          (Kelvin)            108.09   130.13   139.83   158.96   186.70
                              206.00   254.20   266.34   288.17   326.42
                              333.96   355.55   405.69   469.84   491.61
                              499.73   530.93   551.76   567.32   617.59
                              636.13   647.01   656.54   699.52   767.19
                              820.59   917.24   932.09  1029.25  1089.94
                             1133.65  1156.51  1215.04  1259.60  1341.24
                             1359.28  1373.96  1381.83  1451.31  1459.16
                             1498.21  1507.53  1560.54  1580.98  1605.92
                             1609.40  1663.50  1671.33  1673.76  1723.39
                             1744.47  1757.97  1807.14  1821.31  1885.84
                             1895.83  1922.41  1988.27  2021.66  2026.00
                             2033.54  2099.74  2104.98  2106.05  2108.18
                             2125.08  2125.43  2126.93  2130.90  2133.37
                             2134.93  2143.24  2147.46  2154.18  2353.99
                             2406.05  2439.27  2447.55  2468.24  4324.59
                             4336.41  4356.55  4373.24  4384.98  4385.73
                             4391.08  4400.75  4441.11  4456.28  4473.08
                             4476.34  4486.64  4498.46  4521.25  4527.81
                             4542.43  4543.70

 Zero-point correction=                           0.293157 (Hartree/Particle)
 Thermal correction to Energy=                    0.313595
 Thermal correction to Enthalpy=                  0.314539
 Thermal correction to Gibbs Free Energy=         0.241440
 Sum of electronic and zero-point Energies=           -845.112385
 Sum of electronic and thermal Energies=              -845.091948
 Sum of electronic and thermal Enthalpies=            -845.091003
 Sum of electronic and thermal Free Energies=         -845.164102

                     E (Thermal)             CV                S
                      KCal/Mol        Cal/Mol-Kelvin    Cal/Mol-Kelvin
 Total                  196.784             72.319            153.850
 Electronic               0.000              0.000              0.000
 Translational            0.889              2.981             42.451
 Rotational               0.889              2.981             33.546
 Vibrational            195.006             66.357             77.853
 Vibration     1          0.593              1.986              6.716
 Vibration     2          0.593              1.985              6.456
 Vibration     3          0.594              1.982              5.467
 Vibration     4          0.595              1.980              5.081
 Vibration     5          0.596              1.976              4.636
 Vibration     6          0.599              1.966              4.014
 Vibration     7          0.602              1.956              3.650
 Vibration     8          0.603              1.951              3.510
 Vibration     9          0.606              1.941              3.260
 Vibration    10          0.612              1.924              2.950
 Vibration    11          0.616              1.910              2.761
 Vibration    12          0.628              1.871              2.363
 Vibration    13          0.631              1.860              2.276
 Vibration    14          0.638              1.839              2.130
 Vibration    15          0.651              1.800              1.904
 Vibration    16          0.653              1.792              1.863
 Vibration    17          0.661              1.768              1.751
 Vibration    18          0.681              1.707              1.522
 Vibration    19          0.710              1.622              1.277
 Vibration    20          0.721              1.592              1.204
 Vibration    21          0.725              1.581              1.178
 Vibration    22          0.741              1.536              1.084
 Vibration    23          0.753              1.505              1.025
 Vibration    24          0.761              1.482              0.984
 Vibration    25          0.791              1.407              0.861
 Vibration    26          0.802              1.378              0.820
 Vibration    27          0.809              1.362              0.797
 Vibration    28          0.815              1.347              0.777
 Vibration    29          0.842              1.281              0.694
 Vibration    30          0.888              1.177              0.580
 Vibration    31          0.926              1.095              0.504

 Optimization completed on the basis of negligible forces.
    -- Stationary point found.
 Normal termination of Gaussian 16 at Sat Feb 10 15:55:07 2024.
