 Gaussian 16, Revision A.03,
 Gaussian 16:  ES64L-G16RevA.03 25-Dec-2016

 ----------------------------------------------------------------
 #P UB3LYP/6-311++G(d,p) SCRF=(PCM,Solvent=n,n-DiMethylFormamide)
 ----------------------------------------------------------------

 ------------------
 Quinone PCM in DMF
 ------------------
 Symbolic Z-matrix:
 Charge =  0 Multiplicity = 1

                         Standard orientation:
 ---------------------------------------------------------------------
 Center     Atomic      Atomic             Coordinates (Angstroms)
 Number     Number       Type             X           Y           Z
 ---------------------------------------------------------------------
      1          8           0        2.658767    1.078327   -0.000138
      2          6           0        1.778850    0.070186   -0.000012
      3          6           0        2.278249   -1.243459    0.000079
      4          6           0        1.407211   -2.318670    0.000098
      5          6           0        0.019816   -2.123932    0.000033
      6          6           0       -0.489538   -0.834096   -0.000024
      7          6           0       -1.968598   -0.626925   -0.000050
      8          8           0       -2.759721   -1.555710   -0.000162
      9          6           0       -2.458502    0.774081    0.000050
     10          6           0       -1.621891    1.820653    0.000143
     11          6           0       -0.154389    1.646223    0.000052
     12          8           0        0.580619    2.643149   -0.000027
     13          6           0        0.380925    0.282882    0.000015
     14          1           0        2.146171    1.920896   -0.000275
     15          1           0        3.352430   -1.382638    0.000081
     16          1           0        1.806473   -3.326582    0.000153
     17          1           0       -0.666981   -2.960460    0.000038
     18          1           0       -3.536336    0.893879    0.000081
     19          1           0       -1.971876    2.847124    0.000237
 ---------------------------------------------------------------------

 SCF Done:  E(UB3LYP) =  -610.526452773     A.U. after   14 cycles

 The electronic state is 1-A.
 Alpha  occ. eigenvalues --  -19.16992 -19.14927 -19.14094 -10.29500 -10.28967
 Alpha  occ. eigenvalues --  -10.27273 -10.21773 -10.21662 -10.21532 -10.21196
 Alpha  occ. eigenvalues --  -10.20629 -10.19972 -10.19913  -1.09841  -1.07334
 Alpha  occ. eigenvalues --   -1.06965  -0.89395  -0.84632  -0.78599  -0.77701
 Alpha  occ. eigenvalues --   -0.70921  -0.66539  -0.65499  -0.61128  -0.55060
 Alpha  occ. eigenvalues --   -0.54692  -0.54125  -0.51397  -0.48726  -0.47207
 Alpha  occ. eigenvalues --   -0.46968  -0.46759  -0.44202  -0.43585  -0.43265
 Alpha  occ. eigenvalues --   -0.41952  -0.41147  -0.39746  -0.38350  -0.36318
 Alpha  occ. eigenvalues --   -0.31635  -0.30031  -0.28872  -0.28476  -0.25638
 Alpha virt. eigenvalues --   -0.13521  -0.05383  -0.04119  -0.00423   0.00623
 Alpha virt. eigenvalues --    0.01003   0.02159   0.02203   0.02952   0.04327
 Alpha virt. eigenvalues --    0.04368   0.05191   0.05313   0.06328   0.07223

  Beta  occ. eigenvalues --  -19.16992 -19.14927 -19.14094 -10.29500 -10.28967
  Beta  occ. eigenvalues --  -10.27273 -10.21773 -10.21662 -10.21532 -10.21196
  Beta  occ. eigenvalues --  -10.20629 -10.19972 -10.19913  -1.09841  -1.07334
  Beta  occ. eigenvalues --   -1.06965  -0.89395  -0.84632  -0.78599  -0.77701
  Beta  occ. eigenvalues --   -0.70921  -0.66539  -0.65499  -0.61128  -0.55060
  Beta  occ. eigenvalues --   -0.54692  -0.54125  -0.51397  -0.48726  -0.47207
  Beta  occ. eigenvalues --   -0.46968  -0.46759  -0.44202  -0.43585  -0.43265
  Beta  occ. eigenvalues --   -0.41952  -0.41147  -0.39746  -0.38350  -0.36318
  Beta  occ. eigenvalues --   -0.31635  -0.30031  -0.28872  -0.28476  -0.25638
  Beta virt. eigenvalues --   -0.13521  -0.05383  -0.04119  -0.00423   0.00623
  Beta virt. eigenvalues --    0.01003   0.02159   0.02203   0.02952   0.04327
  Beta virt. eigenvalues --    0.04368   0.05191   0.05313   0.06328   0.07223

 Mulliken charges and spin densities:
               1          2
     1  O   -0.307799  -0.000000
     2  C   -0.063321   0.000000
     3  C   -0.077287   0.000000
     4  C   -0.329082   0.000000
     5  C   -0.022673  -0.000000
     6  C    0.423522  -0.000000
     7  C   -0.412008   0.000000
     8  O   -0.296187   0.000000
     9  C   -0.018631   0.000000
    10  C   -0.128692  -0.000000
    11  C   -0.415627  -0.000000
    12  O   -0.343846   0.000000
    13  C    0.541147   0.000000
    14  H    0.347154   0.000000
    15  H    0.219278  -0.000000
    16  H    0.220781   0.000000
    17  H    0.184532   0.000000
    18  H    0.238459   0.000000
    19  H    0.240281   0.000000
 Sum of Mulliken charges =  -0.00000   0.00000

 Dipole moment (field-independent basis, Debye):
    X=              0.1479    Y=             -0.5996    Z=              0.0004  Tot=              0.6176
 Quadrupole moment (field-independent basis, Debye-Ang):
   XX=            -78.1112   YY=            -74.3525   ZZ=            -75.4120
   XY=            -17.1326   XZ=             -0.0013   YZ=             -0.0009

 Normal termination of Gaussian 16 at Sun Jan 21 08:07:42 2024.
