 Q-Chem 5.4, Q-Chem, Inc., Pleasanton, CA (2021)
 Q-Chem 5.4.0 for Intel X86 EM64T Linux

User input:
--------------------------------------------------------------
$molecule
-2 1
O                 -1.1366480000      1.7761080000     -1.9042420000
C                 -0.8080010000      0.9048890000     -1.0296560000
C                 -1.7955550000     -0.0047080000     -0.4712000000
C                 -1.5180000000     -0.9616000000      0.4659320000
C                 -0.1982340000     -1.1972670000      1.0291380000
O                 -0.0092320000     -2.1105940000      1.9020900000
C                  0.8086520000     -0.3193220000      0.5030180000
C                  0.5115400000      0.7050170000     -0.5002180000
C                  1.5396670000      1.5441300000     -0.9858920000
N                  2.3861590000      2.2389770000     -1.3895730000
C                  2.1254040000     -0.4751520000      0.9918400000
N                  3.2117490000     -0.6073470000      1.3976610000
H                 -2.8096010000      0.1182470000     -0.8514050000
H                 -2.3078990000     -1.6113780000      0.8425060000
$end

$rem
BASIS  =  6-311++G(d,p)
GUI  =  2
JOB_TYPE  =  SP
METHOD  =  B3LYP
SCF_CONVERGENCE  = 8
SOLVENT_METHOD = sm12
$end

$smx
solvent dimethylformamide
charges CM5
$end

--------------------------------------------------------------

             Standard Nuclear Orientation (Angstroms)
    I     Atom           X                Y                Z
 ----------------------------------------------------------------
    1      O      -1.1366480000     1.7761080000    -1.9042420000
    2      C      -0.8080010000     0.9048890000    -1.0296560000
    3      C      -1.7955550000    -0.0047080000    -0.4712000000
    4      C      -1.5180000000    -0.9616000000     0.4659320000
    5      C      -0.1982340000    -1.1972670000     1.0291380000
    6      O      -0.0092320000    -2.1105940000     1.9020900000
    7      C       0.8086520000    -0.3193220000     0.5030180000
    8      C       0.5115400000     0.7050170000    -0.5002180000
    9      C       1.5396670000     1.5441300000    -0.9858920000
   10      N       2.3861590000     2.2389770000    -1.3895730000
   11      C       2.1254040000    -0.4751520000     0.9918400000
   12      N       3.2117490000    -0.6073470000     1.3976610000
   13      H      -2.8096010000     0.1182470000    -0.8514050000
   14      H      -2.3078990000    -1.6113780000     0.8425060000
 ----------------------------------------------------------------

   15    -566.1413811824      7.64e-09  Convergence criterion met
 Total energy in the final basis set =     -566.4191341013

                    Orbital Energies (a.u.)
 --------------------------------------------------------------

 Alpha MOs
 -- Occupied --
-19.0582 -19.0582 -14.3135 -14.3135 -10.2269 -10.2269 -10.2198 -10.2198
-10.1895 -10.1892 -10.1827 -10.1820  -0.9789  -0.9753  -0.9150  -0.9102
 -0.8318  -0.7732  -0.7165  -0.6480  -0.6109  -0.5155  -0.5063  -0.4845
 -0.4482  -0.4191  -0.4017  -0.3895  -0.3891  -0.3798  -0.3771  -0.3766
 -0.3623  -0.3419  -0.3411  -0.3396  -0.2658  -0.2576  -0.2303  -0.2303
 -0.1655

          Ground-State Mulliken Net Atomic Charges

     Atom                 Charge (a.u.)
  ----------------------------------------
      1 O                    -0.380180
      2 C                    -0.878856
      3 C                     1.562821
      4 C                     1.564303
      5 C                    -0.877829
      6 O                    -0.380128
      7 C                     0.937217
      8 C                     0.931375
      9 C                    -2.264094
     10 N                    -0.342267
     11 C                    -2.260685
     12 N                    -0.342060
     13 H                     0.365177
     14 H                     0.365208
  ----------------------------------------
  Sum of atomic charges =    -2.000000

                    Cartesian Multipole Moments
 -----------------------------------------------------------------
    Charge (ESU x 10^10)
                -9.6064
    Dipole Moment (Debye)
         X      -9.8943      Y      -2.8844      Z      -0.0142
       Tot      10.3062
    Quadrupole Moments (Debye-Ang)
        XX    -119.3470     XY      -2.6270     YY    -111.2715
        XZ      -9.2904     YZ      31.8125     ZZ    -106.4287

 Total job time:  169.78s(wall), 1018.18s(cpu)
        *  Thank you very much for using Q-Chem.  Have a nice day.  *
