 Q-Chem 5.4, Q-Chem, Inc., Pleasanton, CA (2021)
 Q-Chem 5.4.0 for Intel X86 EM64T Linux

User input:
--------------------------------------------------------------
$molecule
-1 2
C                 17.1211550000      1.3035430000     -0.3411720000
C                 16.5245970000      0.2878280000      0.5177010000
C                 16.0645380000      0.5988180000      1.7798930000
C                 16.1273050000      1.9511960000      2.3118350000
C                 16.6793720000      2.9729140000      1.4338710000
C                 17.1485410000      2.6654720000      0.1768410000
O                 17.5923600000      1.0282890000     -1.4834810000
O                 15.7214290000      2.2290400000      3.4792870000
C                 17.1514410000      3.9218740000     -1.8391150000
C                 15.6162510000      4.9251240000      2.2704320000
C                 16.4658470000     -1.1144060000     -0.0399230000
H                 17.7373680000      4.7288280000     -2.2855930000
H                 16.1124470000      4.2607160000     -1.7196220000
H                 17.1837300000      3.0354700000     -2.4752360000
H                 15.9097630000      5.9222260000      2.6073050000
H                 15.1072250000      4.3900130000      3.0741970000
H                 14.9474710000      5.0250550000      1.4036040000
C                 15.4681600000     -0.4461050000      2.7085350000
C                 13.9680680000     -0.5275310000      2.5784780000
C                 13.1883890000     -1.5960300000      2.3580020000
C                 11.6865270000     -1.4272880000      2.2336430000
C                 11.1522020000     -1.5998200000      0.7880730000
C                  9.6560010000     -1.4850190000      0.7103160000
C                  8.9122840000     -0.5522910000      0.0977960000
C                  7.3994690000     -0.6163260000      0.1714860000
C                  6.7583150000      0.5042800000      1.0283240000
C                  5.2565870000      0.4414870000      1.0205300000
C                  4.4170560000      0.2243510000      2.0431050000
C                  2.9205300000      0.1983480000      1.8060030000
C                 13.6936160000     -3.0131470000      2.2244530000
C                  9.4753420000      0.6000520000     -0.6982910000
C                  4.8543340000     -0.0092860000      3.4692740000
C                  2.1524980000      1.3736130000      2.4616590000
C                  0.6698510000      1.2827080000      2.2305670000
C                 -0.1324940000      2.1228650000      1.5612680000
C                 -1.6123510000      1.8207270000      1.4337840000
C                 -2.0646580000      1.4589010000     -0.0034510000
C                 -3.5456090000      1.2148060000     -0.0901830000
C                 -4.1964050000      0.0890520000     -0.4168390000
C                 -5.7118420000      0.0636490000     -0.4281190000
C                 -6.3424100000     -0.8095980000      0.6858440000
C                 -7.8430890000     -0.8433690000      0.5995710000
C                 -8.7484640000     -0.3982170000      1.4825430000
C                -10.2284810000     -0.5204110000      1.1794200000
C                -10.9412630000      0.8334390000      0.9345030000
C                -12.4130400000      0.6626900000      0.6786120000
C                -13.1159170000      0.9573500000     -0.4243970000
C                  0.3272400000      3.4023170000      0.9053090000
C                 -3.5231250000     -1.2051050000     -0.8044890000
C                 -8.4079720000      0.2289800000      2.8126080000
C                -12.5302350000      1.5749240000     -1.6710050000
C                -14.6062570000      0.6853240000     -0.4712700000
C                -15.0149920000     -0.4502230000     -1.4424520000
C                -16.5050380000     -0.6437770000     -1.4981900000
C                -17.2262030000     -1.7244880000     -1.1675770000
C                -16.6401160000     -3.0147540000     -0.6471480000
C                -18.7350140000     -1.7029560000     -1.3064620000
C                -19.2836400000     -2.6333730000     -2.4170200000
C                -20.7855980000     -2.6143650000     -2.4859400000
C                -21.5754980000     -2.2086020000     -3.4901450000
C                -21.0707920000     -1.6666540000     -4.8059280000
C                -23.0826960000     -2.2765280000     -3.3505170000
H                 15.6956810000     -0.1285520000      3.7324550000
H                 15.9367080000     -1.4177260000      2.5425750000
H                 13.4777150000      0.4388740000      2.6820630000
H                 11.4005950000     -0.4332590000      2.5898470000
H                 11.1744310000     -2.1533750000      2.8822300000
H                 11.4462640000     -2.5891430000      0.4160390000
H                 11.6494340000     -0.8696010000      0.1467980000
H                  9.1171230000     -2.2662400000      1.2488510000
H                  7.0924930000     -1.5835410000      0.5808510000
H                  6.9811060000     -0.5584300000     -0.8433000000
H                  7.0675910000      1.4784370000      0.6305320000
H                  7.1612100000      0.4469260000      2.0417730000
H                  4.8079140000      0.5788300000      0.0358870000
H                  2.5070610000     -0.7435050000      2.1930660000
H                  2.7200220000      0.2090900000      0.7306040000
H                 14.7778890000     -3.0793330000      2.3078660000
H                 13.4098060000     -3.4562450000      1.2624660000
H                 13.2573490000     -3.6520770000      3.0039520000
H                 10.5622240000      0.5799170000     -0.7625190000
H                  9.1916910000      1.5636630000     -0.2610350000
H                  9.0766660000      0.5901140000     -1.7202730000
H                  5.9332880000     -0.1234210000      3.5670060000
H                  4.3829430000     -0.9147990000      3.8692030000
H                  4.5504250000      0.8165460000      4.1223410000
H                  2.5635070000      2.3134860000      2.0865350000
H                  2.3396080000      1.3625070000      3.5423890000
H                  0.2035350000      0.3969850000      2.6635770000
H                 -2.1920540000      2.6911160000      1.7710430000
H                 -1.8760680000      0.9933540000      2.0990130000
H                 -1.4917190000      0.5933610000     -0.3431090000
H                 -1.8070250000      2.2851190000     -0.6772800000
H                 -4.1571940000      2.0822670000      0.1603970000
H                 -6.0613720000     -0.3096470000     -1.4005850000
H                 -6.0962010000      1.0829630000     -0.3289860000
H                 -6.0012590000     -0.4405700000      1.6555500000
H                 -5.9639700000     -1.8349120000      0.5932740000
H                 -8.2278570000     -1.2844100000     -0.3205520000
H                -10.7295050000     -1.0302050000      2.0138250000
H                -10.3707570000     -1.1517350000      0.2975600000
H                -10.4443930000      1.3462840000      0.1080500000
H                -10.8117180000      1.4705030000      1.8179380000
H                -12.9646330000      0.2286300000      1.5131680000
H                  1.3850110000      3.6065760000      1.0666170000
H                 -0.2427780000      4.2555080000      1.2922710000
H                  0.1575340000      3.3784380000     -0.1765590000
H                 -2.4367570000     -1.1289790000     -0.8302930000
H                 -3.8609950000     -1.5282820000     -1.7963740000
H                 -3.7806760000     -2.0112920000     -0.1092620000
H                 -7.3374010000      0.2466960000      3.0135000000
H                 -8.8939440000     -0.3196600000      3.6281680000
H                 -8.7715840000      1.2605090000      2.8704970000
H                -11.4672600000      1.7949520000     -1.5789340000
H                -13.0476840000      2.5113740000     -1.9111060000
H                -12.6571570000      0.9175040000     -2.5377300000
H                -15.1335420000      1.6022350000     -0.7684340000
H                -14.9643570000      0.4309640000      0.5304960000
H                -14.4990970000     -1.3675600000     -1.1501330000
H                -14.6581550000     -0.2047480000     -2.4503390000
H                -17.0567420000      0.2295360000     -1.8475610000
H                -15.5720240000     -2.9447750000     -0.4435490000
H                -16.7869710000     -3.8351650000     -1.3582490000
H                -17.1405930000     -3.3126660000      0.2814490000
H                -19.0699200000     -0.6821050000     -1.5118320000
H                -19.1918660000     -1.9963880000     -0.3513760000
H                -18.9572540000     -3.6612180000     -2.2163380000
H                -18.8322330000     -2.3495230000     -3.3704220000
H                -21.2798930000     -2.9713050000     -1.5818830000
H                -19.9937810000     -1.5017510000     -4.8128000000
H                -21.5584090000     -0.7124300000     -5.0362430000
H                -21.3056680000     -2.3458790000     -5.6330130000
H                -23.3401140000     -2.5206280000     -2.3150100000
C                -23.7626930000     -3.3055610000     -4.2882170000
H                -23.5152940000     -1.2886050000     -3.5558840000
C                -25.2414360000     -3.4131510000     -4.0374330000
C                -26.2557210000     -3.1237780000     -4.8635650000
C                -27.6884070000     -3.2927420000     -4.4184000000
C                -26.1013080000     -2.6208040000     -6.2770400000
H                -23.2967910000     -4.2836290000     -4.1113060000
H                -23.5582480000     -3.0506750000     -5.3298340000
H                -25.5025590000     -3.7648510000     -3.0391610000
H                -27.7540340000     -3.6586200000     -3.3917600000
H                -28.2205550000     -3.9989850000     -5.0671340000
H                -28.2331190000     -2.3427990000     -4.4782060000
H                -25.0625380000     -2.4857660000     -6.5769390000
H                -26.6151150000     -1.6600890000     -6.3998470000
H                -26.5687140000     -3.3154350000     -6.9851790000
O                 17.7408990000      3.6615690000     -0.5684530000
O                 16.8213180000      4.2628500000      1.8976760000
H                 17.1252650000     -1.7994370000      0.5089890000
H                 16.7929870000     -1.0982830000     -1.0799660000
H                 15.4538550000     -1.5292380000      0.0115340000
$end

$rem
BASIS  =  6-311++G(d,p)
GUI  =  2
JOB_TYPE  =  SP
METHOD  =  B3LYP
SCF_CONVERGENCE  = 8
SOLVENT_METHOD = sm12
$end

$smx
solvent dimethylformamide
charges CM5
$end

--------------------------------------------------------------

             Standard Nuclear Orientation (Angstroms)
    I     Atom           X                Y                Z
 ----------------------------------------------------------------
    1      C      17.1211550000     1.3035430000    -0.3411720000
    2      C      16.5245970000     0.2878280000     0.5177010000
    3      C      16.0645380000     0.5988180000     1.7798930000
    4      C      16.1273050000     1.9511960000     2.3118350000
    5      C      16.6793720000     2.9729140000     1.4338710000
    6      C      17.1485410000     2.6654720000     0.1768410000
    7      O      17.5923600000     1.0282890000    -1.4834810000
    8      O      15.7214290000     2.2290400000     3.4792870000
    9      C      17.1514410000     3.9218740000    -1.8391150000
   10      C      15.6162510000     4.9251240000     2.2704320000
   11      C      16.4658470000    -1.1144060000    -0.0399230000
   12      H      17.7373680000     4.7288280000    -2.2855930000
   13      H      16.1124470000     4.2607160000    -1.7196220000
   14      H      17.1837300000     3.0354700000    -2.4752360000
   15      H      15.9097630000     5.9222260000     2.6073050000
   16      H      15.1072250000     4.3900130000     3.0741970000
   17      H      14.9474710000     5.0250550000     1.4036040000
   18      C      15.4681600000    -0.4461050000     2.7085350000
   19      C      13.9680680000    -0.5275310000     2.5784780000
   20      C      13.1883890000    -1.5960300000     2.3580020000
   21      C      11.6865270000    -1.4272880000     2.2336430000
   22      C      11.1522020000    -1.5998200000     0.7880730000
   23      C       9.6560010000    -1.4850190000     0.7103160000
   24      C       8.9122840000    -0.5522910000     0.0977960000
   25      C       7.3994690000    -0.6163260000     0.1714860000
   26      C       6.7583150000     0.5042800000     1.0283240000
   27      C       5.2565870000     0.4414870000     1.0205300000
   28      C       4.4170560000     0.2243510000     2.0431050000
   29      C       2.9205300000     0.1983480000     1.8060030000
   30      C      13.6936160000    -3.0131470000     2.2244530000
   31      C       9.4753420000     0.6000520000    -0.6982910000
   32      C       4.8543340000    -0.0092860000     3.4692740000
   33      C       2.1524980000     1.3736130000     2.4616590000
   34      C       0.6698510000     1.2827080000     2.2305670000
   35      C      -0.1324940000     2.1228650000     1.5612680000
   36      C      -1.6123510000     1.8207270000     1.4337840000
   37      C      -2.0646580000     1.4589010000    -0.0034510000
   38      C      -3.5456090000     1.2148060000    -0.0901830000
   39      C      -4.1964050000     0.0890520000    -0.4168390000
   40      C      -5.7118420000     0.0636490000    -0.4281190000
   41      C      -6.3424100000    -0.8095980000     0.6858440000
   42      C      -7.8430890000    -0.8433690000     0.5995710000
   43      C      -8.7484640000    -0.3982170000     1.4825430000
   44      C     -10.2284810000    -0.5204110000     1.1794200000
   45      C     -10.9412630000     0.8334390000     0.9345030000
   46      C     -12.4130400000     0.6626900000     0.6786120000
   47      C     -13.1159170000     0.9573500000    -0.4243970000
   48      C       0.3272400000     3.4023170000     0.9053090000
   49      C      -3.5231250000    -1.2051050000    -0.8044890000
   50      C      -8.4079720000     0.2289800000     2.8126080000
   51      C     -12.5302350000     1.5749240000    -1.6710050000
   52      C     -14.6062570000     0.6853240000    -0.4712700000
   53      C     -15.0149920000    -0.4502230000    -1.4424520000
   54      C     -16.5050380000    -0.6437770000    -1.4981900000
   55      C     -17.2262030000    -1.7244880000    -1.1675770000
   56      C     -16.6401160000    -3.0147540000    -0.6471480000
   57      C     -18.7350140000    -1.7029560000    -1.3064620000
   58      C     -19.2836400000    -2.6333730000    -2.4170200000
   59      C     -20.7855980000    -2.6143650000    -2.4859400000
   60      C     -21.5754980000    -2.2086020000    -3.4901450000
   61      C     -21.0707920000    -1.6666540000    -4.8059280000
   62      C     -23.0826960000    -2.2765280000    -3.3505170000
   63      H      15.6956810000    -0.1285520000     3.7324550000
   64      H      15.9367080000    -1.4177260000     2.5425750000
   65      H      13.4777150000     0.4388740000     2.6820630000
   66      H      11.4005950000    -0.4332590000     2.5898470000
   67      H      11.1744310000    -2.1533750000     2.8822300000
   68      H      11.4462640000    -2.5891430000     0.4160390000
   69      H      11.6494340000    -0.8696010000     0.1467980000
   70      H       9.1171230000    -2.2662400000     1.2488510000
   71      H       7.0924930000    -1.5835410000     0.5808510000
   72      H       6.9811060000    -0.5584300000    -0.8433000000
   73      H       7.0675910000     1.4784370000     0.6305320000
   74      H       7.1612100000     0.4469260000     2.0417730000
   75      H       4.8079140000     0.5788300000     0.0358870000
   76      H       2.5070610000    -0.7435050000     2.1930660000
   77      H       2.7200220000     0.2090900000     0.7306040000
   78      H      14.7778890000    -3.0793330000     2.3078660000
   79      H      13.4098060000    -3.4562450000     1.2624660000
   80      H      13.2573490000    -3.6520770000     3.0039520000
   81      H      10.5622240000     0.5799170000    -0.7625190000
   82      H       9.1916910000     1.5636630000    -0.2610350000
   83      H       9.0766660000     0.5901140000    -1.7202730000
   84      H       5.9332880000    -0.1234210000     3.5670060000
   85      H       4.3829430000    -0.9147990000     3.8692030000
   86      H       4.5504250000     0.8165460000     4.1223410000
   87      H       2.5635070000     2.3134860000     2.0865350000
   88      H       2.3396080000     1.3625070000     3.5423890000
   89      H       0.2035350000     0.3969850000     2.6635770000
   90      H      -2.1920540000     2.6911160000     1.7710430000
   91      H      -1.8760680000     0.9933540000     2.0990130000
   92      H      -1.4917190000     0.5933610000    -0.3431090000
   93      H      -1.8070250000     2.2851190000    -0.6772800000
   94      H      -4.1571940000     2.0822670000     0.1603970000
   95      H      -6.0613720000    -0.3096470000    -1.4005850000
   96      H      -6.0962010000     1.0829630000    -0.3289860000
   97      H      -6.0012590000    -0.4405700000     1.6555500000
   98      H      -5.9639700000    -1.8349120000     0.5932740000
   99      H      -8.2278570000    -1.2844100000    -0.3205520000
  100      H     -10.7295050000    -1.0302050000     2.0138250000
  101      H     -10.3707570000    -1.1517350000     0.2975600000
  102      H     -10.4443930000     1.3462840000     0.1080500000
  103      H     -10.8117180000     1.4705030000     1.8179380000
  104      H     -12.9646330000     0.2286300000     1.5131680000
  105      H       1.3850110000     3.6065760000     1.0666170000
  106      H      -0.2427780000     4.2555080000     1.2922710000
  107      H       0.1575340000     3.3784380000    -0.1765590000
  108      H      -2.4367570000    -1.1289790000    -0.8302930000
  109      H      -3.8609950000    -1.5282820000    -1.7963740000
  110      H      -3.7806760000    -2.0112920000    -0.1092620000
  111      H      -7.3374010000     0.2466960000     3.0135000000
  112      H      -8.8939440000    -0.3196600000     3.6281680000
  113      H      -8.7715840000     1.2605090000     2.8704970000
  114      H     -11.4672600000     1.7949520000    -1.5789340000
  115      H     -13.0476840000     2.5113740000    -1.9111060000
  116      H     -12.6571570000     0.9175040000    -2.5377300000
  117      H     -15.1335420000     1.6022350000    -0.7684340000
  118      H     -14.9643570000     0.4309640000     0.5304960000
  119      H     -14.4990970000    -1.3675600000    -1.1501330000
  120      H     -14.6581550000    -0.2047480000    -2.4503390000
  121      H     -17.0567420000     0.2295360000    -1.8475610000
  122      H     -15.5720240000    -2.9447750000    -0.4435490000
  123      H     -16.7869710000    -3.8351650000    -1.3582490000
  124      H     -17.1405930000    -3.3126660000     0.2814490000
  125      H     -19.0699200000    -0.6821050000    -1.5118320000
  126      H     -19.1918660000    -1.9963880000    -0.3513760000
  127      H     -18.9572540000    -3.6612180000    -2.2163380000
  128      H     -18.8322330000    -2.3495230000    -3.3704220000
  129      H     -21.2798930000    -2.9713050000    -1.5818830000
  130      H     -19.9937810000    -1.5017510000    -4.8128000000
  131      H     -21.5584090000    -0.7124300000    -5.0362430000
  132      H     -21.3056680000    -2.3458790000    -5.6330130000
  133      H     -23.3401140000    -2.5206280000    -2.3150100000
  134      C     -23.7626930000    -3.3055610000    -4.2882170000
  135      H     -23.5152940000    -1.2886050000    -3.5558840000
  136      C     -25.2414360000    -3.4131510000    -4.0374330000
  137      C     -26.2557210000    -3.1237780000    -4.8635650000
  138      C     -27.6884070000    -3.2927420000    -4.4184000000
  139      C     -26.1013080000    -2.6208040000    -6.2770400000
  140      H     -23.2967910000    -4.2836290000    -4.1113060000
  141      H     -23.5582480000    -3.0506750000    -5.3298340000
  142      H     -25.5025590000    -3.7648510000    -3.0391610000
  143      H     -27.7540340000    -3.6586200000    -3.3917600000
  144      H     -28.2205550000    -3.9989850000    -5.0671340000
  145      H     -28.2331190000    -2.3427990000    -4.4782060000
  146      H     -25.0625380000    -2.4857660000    -6.5769390000
  147      H     -26.6151150000    -1.6600890000    -6.3998470000
  148      H     -26.5687140000    -3.3154350000    -6.9851790000
  149      O      17.7408990000     3.6615690000    -0.5684530000
  150      O      16.8213180000     4.2628500000     1.8976760000
  151      H      17.1252650000    -1.7994370000     0.5089890000
  152      H      16.7929870000    -1.0982830000    -1.0799660000
  153      H      15.4538550000    -1.5292380000     0.0115340000
 ----------------------------------------------------------------

   15   -2603.9842166570      6.48e-09  Convergence criterion met
 Total energy in the final basis set =    -2604.0898256598

                    Orbital Energies (a.u.)
 --------------------------------------------------------------

 Alpha MOs
 -- Occupied --
-19.1307 -19.1306 -19.0697 -19.0693 -10.2150 -10.2143 -10.2108 -10.2102
-10.2071 -10.2071 -10.1790 -10.1767 -10.1763 -10.1760 -10.1759 -10.1759
-10.1759 -10.1759 -10.1758 -10.1745 -10.1713 -10.1710 -10.1709 -10.1704
-10.1701 -10.1701 -10.1700 -10.1700 -10.1699 -10.1698 -10.1698 -10.1698
-10.1694 -10.1693 -10.1693 -10.1693 -10.1692 -10.1690 -10.1677 -10.1674
-10.1653 -10.1650 -10.1644 -10.1638 -10.1638 -10.1633 -10.1632 -10.1631
-10.1630 -10.1627 -10.1626 -10.1626 -10.1626 -10.1625 -10.1625 -10.1625
-10.1625 -10.1625 -10.1624 -10.1624 -10.1624 -10.1623 -10.1600  -1.0554
 -1.0371  -0.9898  -0.9873  -0.8344  -0.8336  -0.8323  -0.8303  -0.8278
 -0.8245  -0.8207  -0.8165  -0.8122  -0.8082  -0.8054  -0.7814  -0.7777
 -0.7725  -0.7661  -0.7588  -0.7512  -0.7436  -0.7366  -0.7308  -0.7261
 -0.7228  -0.7042  -0.6999  -0.6940  -0.6903  -0.6902  -0.6897  -0.6887
 -0.6873  -0.6851  -0.6818  -0.6773  -0.6719  -0.6680  -0.6498  -0.6434
 -0.6427  -0.6345  -0.6254  -0.6159  -0.6071  -0.5994  -0.5927  -0.5876
 -0.5850  -0.5629  -0.5585  -0.5270  -0.5259  -0.5250  -0.5238  -0.5226
 -0.5206  -0.5184  -0.5162  -0.5144  -0.5133  -0.5106  -0.4942  -0.4859
 -0.4820  -0.4817  -0.4808  -0.4805  -0.4793  -0.4787  -0.4763  -0.4722
 -0.4667  -0.4649  -0.4635  -0.4519  -0.4492  -0.4470  -0.4436  -0.4428
 -0.4413  -0.4398  -0.4386  -0.4372  -0.4367  -0.4355  -0.4329  -0.4325
 -0.4324  -0.4282  -0.4245  -0.4224  -0.4190  -0.4169  -0.4152  -0.4141
 -0.4132  -0.4114  -0.4106  -0.4098  -0.4081  -0.4051  -0.4045  -0.4045
 -0.4024  -0.4003  -0.4000  -0.3966  -0.3941  -0.3926  -0.3919  -0.3881
 -0.3856  -0.3778  -0.3759  -0.3755  -0.3753  -0.3748  -0.3746  -0.3740
 -0.3733  -0.3731  -0.3722  -0.3719  -0.3718  -0.3714  -0.3690  -0.3686
 -0.3668  -0.3661  -0.3648  -0.3635  -0.3613  -0.3600  -0.3585  -0.3574
 -0.3573  -0.3536  -0.3511  -0.3472  -0.3467  -0.3439  -0.3404  -0.3399
 -0.3386  -0.3375  -0.3365  -0.3332  -0.3331  -0.3316  -0.3309  -0.3309
 -0.3294  -0.3261  -0.3217  -0.3171  -0.3133  -0.3109  -0.2943  -0.2775
 -0.2631  -0.2547  -0.2536  -0.2505  -0.2468  -0.2434  -0.2399  -0.2363
 -0.2349  -0.2323  -0.2292  -0.2260  -0.2250  -0.2181  -0.1536

 Beta MOs
 -- Occupied --
-19.1305 -19.1304 -19.0627 -19.0624 -10.2135 -10.2128 -10.2100 -10.2093
-10.2071 -10.2070 -10.1790 -10.1767 -10.1763 -10.1760 -10.1759 -10.1759
-10.1759 -10.1759 -10.1758 -10.1745 -10.1713 -10.1710 -10.1709 -10.1704
-10.1701 -10.1701 -10.1700 -10.1700 -10.1699 -10.1698 -10.1698 -10.1698
-10.1694 -10.1693 -10.1693 -10.1693 -10.1692 -10.1690 -10.1678 -10.1662
-10.1650 -10.1644 -10.1642 -10.1638 -10.1637 -10.1633 -10.1632 -10.1631
-10.1630 -10.1627 -10.1626 -10.1626 -10.1626 -10.1625 -10.1625 -10.1625
-10.1625 -10.1625 -10.1624 -10.1624 -10.1624 -10.1623 -10.1601  -1.0545
 -1.0360  -0.9780  -0.9755  -0.8341  -0.8334  -0.8318  -0.8297  -0.8270
 -0.8238  -0.8201  -0.8159  -0.8117  -0.8079  -0.8053  -0.7811  -0.7772
 -0.7720  -0.7658  -0.7586  -0.7509  -0.7433  -0.7362  -0.7303  -0.7258
 -0.7227  -0.7020  -0.6986  -0.6940  -0.6903  -0.6902  -0.6897  -0.6887
 -0.6872  -0.6850  -0.6817  -0.6771  -0.6716  -0.6670  -0.6494  -0.6424
 -0.6375  -0.6337  -0.6250  -0.6157  -0.6070  -0.5993  -0.5927  -0.5876
 -0.5850  -0.5602  -0.5554  -0.5270  -0.5259  -0.5250  -0.5237  -0.5224
 -0.5204  -0.5183  -0.5161  -0.5143  -0.5133  -0.5098  -0.4925  -0.4843
 -0.4819  -0.4817  -0.4808  -0.4805  -0.4793  -0.4786  -0.4763  -0.4721
 -0.4663  -0.4645  -0.4607  -0.4519  -0.4492  -0.4469  -0.4435  -0.4418
 -0.4410  -0.4394  -0.4383  -0.4369  -0.4357  -0.4349  -0.4325  -0.4324
 -0.4311  -0.4266  -0.4242  -0.4222  -0.4187  -0.4168  -0.4152  -0.4139
 -0.4124  -0.4110  -0.4101  -0.4097  -0.4072  -0.4051  -0.4045  -0.4043
 -0.4024  -0.4000  -0.3965  -0.3940  -0.3933  -0.3926  -0.3909  -0.3856
 -0.3842  -0.3759  -0.3755  -0.3753  -0.3749  -0.3747  -0.3742  -0.3733
 -0.3732  -0.3722  -0.3719  -0.3718  -0.3714  -0.3697  -0.3686  -0.3682
 -0.3665  -0.3659  -0.3635  -0.3615  -0.3600  -0.3591  -0.3574  -0.3553
 -0.3521  -0.3507  -0.3467  -0.3441  -0.3423  -0.3405  -0.3401  -0.3393
 -0.3385  -0.3374  -0.3365  -0.3331  -0.3317  -0.3309  -0.3309  -0.3294
 -0.3276  -0.3257  -0.3215  -0.3170  -0.3132  -0.3109  -0.2898  -0.2753
 -0.2547  -0.2536  -0.2506  -0.2471  -0.2438  -0.2403  -0.2367  -0.2336
 -0.2310  -0.2293  -0.2275  -0.2255  -0.2210  -0.2122

          Ground-State Mulliken Net Atomic Charges

     Atom                 Charge (a.u.)    Spin (a.u.)
  --------------------------------------------------------
      1 C                    -1.465095       0.068818
      2 C                     0.215576       0.087227
      3 C                     0.136610       0.093811
      4 C                    -0.928983       0.078315
      5 C                    -0.409526       0.075856
      6 C                    -0.862490       0.060862
      7 O                    -0.349563       0.257176
      8 O                    -0.318054       0.254344
      9 C                    -0.039403       0.003155
     10 C                    -0.021030       0.001649
     11 C                     0.009067       0.003971
     12 H                     0.235740       0.000274
     13 H                     0.115108      -0.000180
     14 H                     0.127562      -0.000759
     15 H                     0.238062       0.000138
     16 H                     0.117587      -0.000868
     17 H                     0.116374       0.000105
     18 C                    -0.371738       0.010138
     19 C                    -0.826840      -0.000810
     20 C                    -0.011063       0.002524
     21 C                     1.155709      -0.001052
     22 C                    -0.758471       0.000053
     23 C                    -0.932593       0.000115
     24 C                     0.917559       0.000169
     25 C                     0.216726      -0.000135
     26 C                    -0.555336       0.000252
     27 C                    -0.812341      -0.000070
     28 C                     0.657051      -0.000082
     29 C                     0.106052       0.000007
     30 C                     0.166144      -0.002120
     31 C                    -0.568455      -0.000010
     32 C                    -0.438248      -0.000019
     33 C                    -0.430133      -0.000010
     34 C                    -0.720115      -0.000001
     35 C                     0.423341       0.000003
     36 C                    -0.010366       0.000001
     37 C                    -0.283829      -0.000001
     38 C                    -0.626569      -0.000000
     39 C                     0.315879       0.000001
     40 C                    -0.093479       0.000000
     41 C                    -0.258848      -0.000000
     42 C                    -0.665653       0.000000
     43 C                     0.350751       0.000000
     44 C                    -0.135930      -0.000000
     45 C                    -0.165094       0.000000
     46 C                    -0.619873       0.000000
     47 C                     0.354212      -0.000000
     48 C                    -0.469680       0.000001
     49 C                    -0.501027       0.000000
     50 C                    -0.479747      -0.000000
     51 C                    -0.497961      -0.000000
     52 C                    -0.310504      -0.000000
     53 C                    -0.254134      -0.000000
     54 C                    -0.574935      -0.000000
     55 C                     0.445323       0.000000
     56 C                    -0.486582       0.000000
     57 C                    -0.304149      -0.000000
     58 C                    -0.272607       0.000000
     59 C                    -0.331260       0.000000
     60 C                     0.405158       0.000000
     61 C                    -0.502387      -0.000000
     62 C                    -0.607418      -0.000000
     63 H                     0.170469       0.002523
     64 H                     0.017438       0.000228
     65 H                     0.105893      -0.001693
     66 H                     0.152492      -0.000297
     67 H                     0.237848      -0.000024
     68 H                     0.177041       0.000022
     69 H                    -0.133759      -0.000364
     70 H                     0.160396      -0.000007
     71 H                     0.231828       0.000002
     72 H                     0.164351      -0.000003
     73 H                     0.138934      -0.000006
     74 H                     0.041202       0.000038
     75 H                     0.172856       0.000008
     76 H                     0.171021       0.000001
     77 H                     0.193000       0.000002
     78 H                     0.284919      -0.000055
     79 H                     0.189242       0.000141
     80 H                     0.211444      -0.000046
     81 H                     0.163191       0.000113
     82 H                     0.168837       0.000005
     83 H                     0.201127       0.000010
     84 H                     0.160231      -0.000013
     85 H                     0.186727       0.000001
     86 H                     0.190609       0.000000
     87 H                     0.062667      -0.000001
     88 H                     0.141448       0.000000
     89 H                     0.160483      -0.000001
     90 H                     0.143286       0.000000
     91 H                     0.190687       0.000000
     92 H                     0.062008      -0.000001
     93 H                     0.130072       0.000000
     94 H                     0.175740      -0.000000
     95 H                     0.141819       0.000000
     96 H                     0.173356      -0.000000
     97 H                     0.062207       0.000000
     98 H                     0.129078      -0.000000
     99 H                     0.172667       0.000000
    100 H                     0.137352      -0.000000
    101 H                     0.168573       0.000000
    102 H                     0.068273       0.000000
    103 H                     0.125501      -0.000000
    104 H                     0.189618       0.000000
    105 H                     0.157369       0.000000
    106 H                     0.182144       0.000000
    107 H                     0.180562      -0.000000
    108 H                     0.159039      -0.000000
    109 H                     0.179055       0.000000
    110 H                     0.182251       0.000000
    111 H                     0.162999       0.000000
    112 H                     0.178116      -0.000000
    113 H                     0.183672       0.000000
    114 H                     0.162697       0.000000
    115 H                     0.175817      -0.000000
    116 H                     0.184324       0.000000
    117 H                     0.142441      -0.000000
    118 H                     0.158406      -0.000000
    119 H                     0.084393      -0.000000
    120 H                     0.128162      -0.000000
    121 H                     0.197447      -0.000000
    122 H                     0.156244      -0.000000
    123 H                     0.190597      -0.000000
    124 H                     0.174766       0.000000
    125 H                     0.145551      -0.000000
    126 H                     0.157451       0.000000
    127 H                     0.139114       0.000000
    128 H                     0.100236      -0.000000
    129 H                     0.198634      -0.000000
    130 H                     0.145310      -0.000000
    131 H                     0.170364       0.000000
    132 H                     0.198494      -0.000000
    133 H                     0.155632      -0.000000
    134 C                    -0.262210      -0.000000
    135 H                     0.158467       0.000000
    136 C                    -0.277401       0.000000
    137 C                     0.062019      -0.000000
    138 C                    -0.426514      -0.000000
    139 C                    -0.442084       0.000000
    140 H                     0.162569       0.000000
    141 H                     0.064854       0.000000
    142 H                     0.147623      -0.000000
    143 H                     0.184136       0.000000
    144 H                     0.164008       0.000000
    145 H                     0.172128       0.000000
    146 H                     0.169666      -0.000000
    147 H                     0.167033      -0.000000
    148 H                     0.165998       0.000000
    149 O                    -0.124956       0.000214
    150 O                    -0.124800       0.000161
    151 H                     0.211297       0.005315
    152 H                     0.163186      -0.002435
    153 H                     0.187435       0.003318
  --------------------------------------------------------
  Sum of atomic charges =    -1.000001

                    Cartesian Multipole Moments
 -----------------------------------------------------------------
    Charge (ESU x 10^10)
                -4.8032
    Dipole Moment (Debye)
         X     -81.2497      Y      -8.3804      Z      -5.9106
       Tot      81.8943
    Quadrupole Moments (Debye-Ang)
        XX   -1787.2168     XY    -151.9984     YY    -424.1416
        XZ     -64.4024     YZ     -20.2004     ZZ    -427.3561

 Total job time:  44416.66s(wall), 110695.83s(cpu)
        *  Thank you very much for using Q-Chem.  Have a nice day.  *
