 Gaussian 16, Revision A.03,
 Gaussian 16:  ES64L-G16RevA.03 25-Dec-2016

 --------------------------------------
 #P UB3LYP/6-311++G(d,p) nosym opt freq
 --------------------------------------

 -------
 Radical
 -------
 Symbolic Z-matrix:
 Charge = -1 Multiplicity = 2

 SCF Done:  E(UB3LYP) =  -613.961486314     A.U. after   23 cycles
 SCF Done:  E(UB3LYP) =  -613.983184252     A.U. after   20 cycles
 SCF Done:  E(UB3LYP) =  -613.985076082     A.U. after   18 cycles
 SCF Done:  E(UB3LYP) =  -613.985214794     A.U. after   14 cycles
 SCF Done:  E(UB3LYP) =  -613.985255177     A.U. after   14 cycles
 SCF Done:  E(UB3LYP) =  -613.985295239     A.U. after   13 cycles
 SCF Done:  E(UB3LYP) =  -613.985357732     A.U. after   14 cycles
 SCF Done:  E(UB3LYP) =  -613.985471235     A.U. after   14 cycles
 SCF Done:  E(UB3LYP) =  -613.985522532     A.U. after   14 cycles
 SCF Done:  E(UB3LYP) =  -613.985608522     A.U. after   13 cycles
 SCF Done:  E(UB3LYP) =  -613.985638464     A.U. after   14 cycles
 SCF Done:  E(UB3LYP) =  -613.985644261     A.U. after   12 cycles
 SCF Done:  E(UB3LYP) =  -613.985646452     A.U. after   12 cycles
 SCF Done:  E(UB3LYP) =  -613.985646738     A.U. after   11 cycles
 SCF Done:  E(UB3LYP) =  -613.985646869     A.U. after   10 cycles
 SCF Done:  E(UB3LYP) =  -613.985647017     A.U. after   10 cycles
 SCF Done:  E(UB3LYP) =  -613.985647035     A.U. after    8 cycles
 SCF Done:  E(UB3LYP) =  -613.985647064     A.U. after    8 cycles
 Optimization completed.
    -- Stationary point found.
 Normal termination of Gaussian 16 at Tue Dec 26 21:16:07 2023.

 ----------------------------------------------------------------------
 #P Geom=AllCheck Guess=TCheck SCRF=Check GenChk UB3LYP/6-311++G(d,p) F
 req
 ----------------------------------------------------------------------

 Structure from the checkpoint file:  "241-rad.chk"
 -------
 Radical
 -------
 Charge = -1 Multiplicity = 2

                          Input orientation:
 ---------------------------------------------------------------------
 Center     Atomic      Atomic             Coordinates (Angstroms)
 Number     Number       Type             X           Y           Z
 ---------------------------------------------------------------------
      1          6           0       -2.414851    1.908210   -0.023017
      2          6           0       -1.269379    0.925760   -0.004973
      3          6           0       -1.502688   -0.437888    0.136579
      4          6           0       -2.907558   -0.971308    0.275739
      5          6           0       -0.428874   -1.409695    0.158302
      6          8           0       -0.635119   -2.649564    0.286606
      7          6           0        0.936846   -0.881252    0.022076
      8          6           0        2.033830   -1.765901    0.034344
      9          6           0        3.329717   -1.297789   -0.091876
     10          6           0        3.566094    0.083943   -0.235516
     11          6           0        2.501480    0.967558   -0.249705
     12          6           0        1.174770    0.509540   -0.122382
     13          6           0        0.064435    1.473799   -0.141032
     14          8           0        0.282019    2.711675   -0.269916
     15          1           0       -3.113715    1.702547   -0.843892
     16          1           0       -3.000159    1.866901    0.904501
     17          1           0       -2.021632    2.917903   -0.143353
     18          1           0       -2.872831   -2.056412    0.375324
     19          1           0       -3.526543   -0.717570   -0.594359
     20          1           0       -3.415718   -0.553402    1.154199
     21          1           0        1.820713   -2.822931    0.146278
     22          1           0        4.164304   -1.993204   -0.080418
     23          1           0        4.582882    0.453475   -0.334821
     24          1           0        2.651977    2.035607   -0.358689
 ---------------------------------------------------------------------

 SCF Done:  E(UB3LYP) =  -613.985647064     A.U. after    1 cycles

 Alpha  occ. eigenvalues --  -18.93517 -18.93517 -10.08241 -10.08240 -10.05143
 Alpha  occ. eigenvalues --  -10.05095 -10.04336 -10.04335 -10.04088 -10.04043
 Alpha  occ. eigenvalues --  -10.03723 -10.03668 -10.03501 -10.03501  -0.85989
 Alpha  occ. eigenvalues --   -0.85708  -0.72891  -0.68738  -0.63142  -0.62169
 Alpha  occ. eigenvalues --   -0.59969  -0.54954  -0.52357  -0.47441  -0.46002
 Alpha  occ. eigenvalues --   -0.42253  -0.38462  -0.36392  -0.33479  -0.32515
 Alpha  occ. eigenvalues --   -0.31131  -0.29774  -0.28622  -0.27529  -0.27517
 Alpha  occ. eigenvalues --   -0.26789  -0.26130  -0.25949  -0.25322  -0.23225
 Alpha  occ. eigenvalues --   -0.23156  -0.21795  -0.21216  -0.20521  -0.13400
 Alpha  occ. eigenvalues --   -0.12755  -0.11243  -0.10635  -0.09603  -0.01439
 Alpha virt. eigenvalues --    0.08590   0.08935   0.09581   0.10524   0.11140
 Alpha virt. eigenvalues --    0.11199   0.12159   0.12280   0.13921   0.14132
 Alpha virt. eigenvalues --    0.15078   0.15289   0.16161   0.16489   0.17487

  Beta  occ. eigenvalues --  -18.92858 -18.92857 -10.08108 -10.08107 -10.05105
  Beta  occ. eigenvalues --  -10.05057 -10.04344 -10.04343 -10.04020 -10.03973
  Beta  occ. eigenvalues --  -10.03584 -10.03534 -10.03511 -10.03505  -0.84866
  Beta  occ. eigenvalues --   -0.84548  -0.72698  -0.68311  -0.62928  -0.62017
  Beta  occ. eigenvalues --   -0.59688  -0.54767  -0.51680  -0.47354  -0.45629
  Beta  occ. eigenvalues --   -0.42011  -0.38259  -0.36162  -0.33254  -0.32394
  Beta  occ. eigenvalues --   -0.30667  -0.29742  -0.28328  -0.27244  -0.27087
  Beta  occ. eigenvalues --   -0.26065  -0.25925  -0.25813  -0.24937  -0.23129
  Beta  occ. eigenvalues --   -0.21042  -0.20683  -0.20608  -0.20280  -0.12130
  Beta  occ. eigenvalues --   -0.11312  -0.10022  -0.09773  -0.08999
  Beta virt. eigenvalues --    0.05212   0.08583   0.08940   0.10171   0.10517
  Beta virt. eigenvalues --    0.11201   0.12165   0.12253   0.12280   0.13913
  Beta virt. eigenvalues --    0.14129   0.15147   0.15304   0.16200   0.16484

 Mulliken charges and spin densities:
               1          2
     1  C   -0.497186   0.000200
     2  C    0.986511   0.123472
     3  C    0.987021   0.123525
     4  C   -0.497478   0.000190
     5  C   -1.439383   0.058023
     6  O   -0.392693   0.242668
     7  C    0.691321   0.028849
     8  C   -0.151754   0.015169
     9  C   -0.403829   0.028125
    10  C   -0.403856   0.028119
    11  C   -0.151692   0.015183
    12  C    0.689830   0.028787
    13  C   -1.439154   0.058067
    14  O   -0.392693   0.242678
    15  H    0.115642   0.004797
    16  H    0.115758   0.004824
    17  H    0.198272  -0.001776
    18  H    0.198247  -0.001775
    19  H    0.115743   0.004822
    20  H    0.115682   0.004801
    21  H    0.157925  -0.001843
    22  H    0.119923  -0.002531
    23  H    0.119916  -0.002530
    24  H    0.157928  -0.001842
 Sum of Mulliken charges =  -1.00000   1.00000

 Dipole moment (field-independent basis, Debye):
    X=             -0.5747    Y=              0.1012    Z=              0.0275  Tot=              0.5842
 Quadrupole moment (field-independent basis, Debye-Ang):
   XX=            -95.0279   YY=           -119.2497   ZZ=            -88.8658
   XY=             -4.2392   XZ=              0.8088   YZ=              3.1236

  Exact polarizability: 234.187  -7.267 197.161  -8.545  -9.510  91.169
 Approx polarizability: 333.591   3.470 358.828 -12.623 -20.463 143.611

                      1                      2                      3
                      A                      A                      A
 Frequencies --     72.1364                79.1877               114.6379
 Red. masses --      5.2734                 1.0745                 2.8673
 Frc consts  --      0.0162                 0.0040                 0.0222
 IR Inten    --      9.1756                 0.0255                 0.0000

                      4                      5                      6
                      A                      A                      A
 Frequencies --    132.0260               147.0586               177.6910
 Red. masses --      1.0932                 4.3408                 4.7481
 Frc consts  --      0.0112                 0.0553                 0.0883
 IR Inten    --      0.2017                 0.0000                 1.3958

                      7                      8                      9
                      A                      A                      A
 Frequencies --    254.2263               284.2499               315.6052
 Red. masses --      4.3196                 3.7352                 2.5958
 Frc consts  --      0.1645                 0.1778                 0.1523
 IR Inten    --      4.1842                 0.1829                 0.6890

                     10                     11                     12
                      A                      A                      A
 Frequencies --    343.1153               387.4464               415.2985
 Red. masses --      4.2288                 9.3869                 5.8055
 Frc consts  --      0.2933                 0.8302                 0.5899
 IR Inten    --      0.3363                 8.8120                 0.0000

                     13                     14                     15
                      A                      A                      A
 Frequencies --    428.1815               429.7103               445.6153
 Red. masses --      6.6291                 5.9728                 3.3012
 Frc consts  --      0.7161                 0.6498                 0.3862
 IR Inten    --      5.5802                 0.3387                 0.8681

                     16                     17                     18
                      A                      A                      A
 Frequencies --    518.3788               523.8835               612.8643
 Red. masses --      9.2799                 3.8288                 5.3378
 Frc consts  --      1.4692                 0.6191                 1.1812
 IR Inten    --      0.0131                 0.0000                18.7213

                     19                     20                     21
                      A                      A                      A
 Frequencies --    670.3019               682.4359               683.7017
 Red. masses --      6.1139                 4.8399                 4.5507
 Frc consts  --      1.6185                 1.3280                 1.2533
 IR Inten    --      0.9872                 0.0008                 1.6134

                     22                     23                     24
                      A                      A                      A
 Frequencies --    696.4154               777.0487               793.5814
 Red. masses --      2.4739                 1.7360                 4.3795
 Frc consts  --      0.7069                 0.6176                 1.6250
 IR Inten    --     52.7978                28.6603                 0.0000

                     25                     26                     27
                      A                      A                      A
 Frequencies --    828.1986               871.4912               902.1728
 Red. masses --      3.5582                 1.4948                 3.5902
 Frc consts  --      1.4380                 0.6689                 1.7217
 IR Inten    --      5.2486                 0.0000                 2.2519

                     28                     29                     30
                      A                      A                      A
 Frequencies --    978.4564               980.9250               985.2119
 Red. masses --      1.3649                 1.2525                 3.8786
 Frc consts  --      0.7699                 0.7101                 2.2181
 IR Inten    --      3.2364                 0.0046                 1.2903

                     31                     32                     33
                      A                      A                      A
 Frequencies --   1009.6982              1027.1697              1040.4554
 Red. masses --      1.7154                 1.4107                 1.9112
 Frc consts  --      1.0304                 0.8769                 1.2190
 IR Inten    --     28.8358                 0.0212                10.6477

                     34                     35                     36
                      A                      A                      A
 Frequencies --   1054.9056              1100.4858              1117.7207
 Red. masses --      1.5200                 2.4116                 2.0897
 Frc consts  --      0.9966                 1.7208                 1.5382
 IR Inten    --      0.0003                 0.0078                30.3651

                     37                     38                     39
                      A                      A                      A
 Frequencies --   1144.8568              1182.2951              1210.1099
 Red. masses --      1.4411                 2.7528                 2.0698
 Frc consts  --      1.1129                 2.2671                 1.7858
 IR Inten    --      4.9243                 1.9520                 0.1804

                     40                     41                     42
                      A                      A                      A
 Frequencies --   1236.3908              1274.2371              1356.7472
 Red. masses --      3.9603                 2.0697                10.3771
 Frc consts  --      3.5669                 1.9799                11.2545
 IR Inten    --     30.5073                31.7653                 9.3679

                     43                     44                     45
                      A                      A                      A
 Frequencies --   1366.3719              1386.3042              1403.5496
 Red. masses --      1.3752                 1.2755                 2.7029
 Frc consts  --      1.5127                 1.4443                 3.1371
 IR Inten    --     21.9091                 1.9753                66.5933

                     46                     47                     48
                      A                      A                      A
 Frequencies --   1459.9356              1467.7466              1476.9615
 Red. masses --      2.0427                 2.0864                 1.4142
 Frc consts  --      2.5653                 2.6482                 1.8177
 IR Inten    --    130.0495                27.9382                18.8934

                     49                     50                     51
                      A                      A                      A
 Frequencies --   1489.8930              1491.1576              1506.7915
 Red. masses --      1.5116                 1.0489                 1.0481
 Frc consts  --      1.9769                 1.3742                 1.4020
 IR Inten    --      0.8476                 0.0008                12.5743

                     52                     53                     54
                      A                      A                      A
 Frequencies --   1510.3725              1521.1445              1542.6528
 Red. masses --      4.2525                 5.8454                 5.3140
 Frc consts  --      5.7156                 7.9690                 7.4509
 IR Inten    --      2.9998               463.4219                34.0074

                     55                     56                     57
                      A                      A                      A
 Frequencies --   1612.3794              1625.2643              2986.9836
 Red. masses --      8.2469                 5.9820                 1.0416
 Frc consts  --     12.6321                 9.3098                 5.4757
 IR Inten    --      2.0369                 6.1445                 8.3899

                     58                     59                     60
                      A                      A                      A
 Frequencies --   2989.6224              3019.3655              3020.0830
 Red. masses --      1.0404                 1.0988                 1.0987
 Frc consts  --      5.4790                 5.9021                 5.9045
 IR Inten    --    215.7276                94.0847                 0.5060

                     61                     62                     63
                      A                      A                      A
 Frequencies --   3110.8205              3111.2546              3129.3353
 Red. masses --      1.0941                 1.0941                 1.0845
 Frc consts  --      6.2381                 6.2402                 6.2573
 IR Inten    --      2.0541                15.4004                17.1152

                     64                     65                     66
                      A                      A                      A
 Frequencies --   3149.0815              3180.1150              3182.5634
 Red. masses --      1.0913                 1.0911                 1.0926
 Frc consts  --      6.3765                 6.5014                 6.5203
 IR Inten    --     55.1016                12.0662                26.4494

 - Thermochemistry -
 -------------------
 Temperature   298.150 Kelvin.  Pressure   1.00000 Atm.
 Atom     1 has atomic number  6 and mass  12.00000

 Molecular mass:   186.06808 amu.
 Principal axes and moments of inertia in atomic units:
                           1         2         3
     Eigenvalues --  1652.171442753.569784383.45084
           X            0.98378   0.16779   0.06343
           Y           -0.17319   0.98055   0.09231
           Z           -0.04671  -0.10180   0.99371
 This molecule is an asymmetric top.
 Rotational symmetry number  1.
 Warning -- assumption of classical behavior for rotation
           may cause significant error
 Rotational temperatures (Kelvin)      0.05242     0.03146     0.01976
 Rotational constants (GHZ):           1.09234     0.65542     0.41172
 Zero-point vibrational energy     484643.6 (Joules/Mol)
                                  115.83259 (Kcal/Mol)
 Warning -- explicit consideration of  18 degrees of freedom as
           vibrations may cause significant error
 Vibrational temperatures:    103.79   113.93   164.94   189.96   211.58
          (Kelvin)            255.66   365.77   408.97   454.09   493.67
                              557.45   597.52   616.06   618.26   641.14
                              745.83   753.75   881.78   964.41   981.87
                              983.69  1001.99  1118.00  1141.79  1191.59
                             1253.88  1298.03  1407.78  1411.33  1417.50
                             1452.73  1477.87  1496.98  1517.77  1583.35
                             1608.15  1647.19  1701.06  1741.08  1778.89
                             1833.34  1952.06  1965.90  1994.58  2019.39
                             2100.52  2111.76  2125.02  2143.62  2145.44
                             2167.94  2173.09  2188.59  2219.53  2319.85
                             2338.39  4297.60  4301.40  4344.19  4345.23
                             4475.78  4476.40  4502.42  4530.83  4575.48
                             4579.00

 Zero-point correction=                           0.184591 (Hartree/Particle)
 Thermal correction to Energy=                    0.196616
 Thermal correction to Enthalpy=                  0.197561
 Thermal correction to Gibbs Free Energy=         0.145913
 Sum of electronic and zero-point Energies=           -613.801056
 Sum of electronic and thermal Energies=              -613.789031
 Sum of electronic and thermal Enthalpies=            -613.788087
 Sum of electronic and thermal Free Energies=         -613.839734

                     E (Thermal)             CV                S
                      KCal/Mol        Cal/Mol-Kelvin    Cal/Mol-Kelvin
 Total                  123.379             46.542            108.701
 Electronic               0.000              0.000              1.377
 Translational            0.889              2.981             41.569
 Rotational               0.889              2.981             31.367
 Vibrational            121.601             40.580             34.387
 Vibration     1          0.598              1.967              4.094
 Vibration     2          0.600              1.963              3.911
 Vibration     3          0.608              1.937              3.189
 Vibration     4          0.612              1.921              2.916
 Vibration     5          0.617              1.906              2.710
 Vibration     6          0.628              1.870              2.353
 Vibration     7          0.665              1.756              1.701
 Vibration     8          0.683              1.703              1.508
 Vibration     9          0.703              1.644              1.333
 Vibration    10          0.722              1.589              1.198
 Vibration    11          0.756              1.497              1.010
 Vibration    12          0.779              1.437              0.908
 Vibration    13          0.790              1.409              0.865
 Vibration    14          0.791              1.406              0.860
 Vibration    15          0.805              1.371              0.809
 Vibration    16          0.873              1.209              0.614
 Vibration    17          0.879              1.197              0.601
 Vibration    18          0.972              1.005              0.428

                           ! Non-Optimized Parameters !
 Normal termination of Gaussian 16 at Tue Dec 26 21:49:50 2023.
