 Gaussian 16, Revision A.03,
 Gaussian 16:  ES64L-G16RevA.03 25-Dec-2016

 ----------------------------------------------------------------
 #P UB3LYP/6-311++G(d,p) SCRF=(PCM,Solvent=n,n-DiMethylFormamide)
 ----------------------------------------------------------------

 -------
 Reduced
 -------
 Symbolic Z-matrix:
 Charge = -2 Multiplicity = 1

                         Standard orientation:
 ---------------------------------------------------------------------
 Center     Atomic      Atomic             Coordinates (Angstroms)
 Number     Number       Type             X           Y           Z
 ---------------------------------------------------------------------
      1          6           0       -5.298049    0.219631   -0.832016
      2          6           0       -5.977246   -0.979202   -0.926960
      3          6           0       -5.349665   -2.183131   -0.520563
      4          6           0       -3.972182    0.283233   -0.332479
      5          6           0       -3.331453   -0.942276    0.079594
      6          6           0       -4.052953   -2.145351   -0.030734
      7          6           0       -3.278838    1.533583   -0.235524
      8          6           0       -1.946602    1.470578    0.282280
      9          6           0       -1.294641    0.312698    0.693917
     10          6           0       -1.960560   -0.961721    0.605857
     11          8           0       -3.747874    2.696964   -0.569505
     12          8           0       -1.398825   -2.047164    0.969075
     13          1           0       -5.759071    1.153640   -1.137299
     14          1           0       -6.993989   -1.000166   -1.314290
     15          1           0       -5.881676   -3.128718   -0.594205
     16          1           0       -3.543885   -3.049971    0.286748
     17          8           0       -1.340660    2.703924    0.349829
     18          6           0        0.107583    0.361015    1.246300
     19          6           0        1.207773    0.108569    0.194421
     20          6           0        2.623826    0.141347    0.783949
     21          6           0        3.743375   -0.085932   -0.241078
     22          6           0        5.154387   -0.044384    0.361138
     23          1           0       -2.069530    3.270982   -0.002863
     24          1           0        0.192860   -0.413220    2.017578
     25          1           0        0.285731    1.337007    1.712995
     26          1           0        1.123557    0.863036   -0.597422
     27          1           0        1.022184   -0.866340   -0.269323
     28          1           0        2.700524   -0.619156    1.573267
     29          1           0        2.785567    1.109621    1.279049
     30          1           0        3.666606    0.671917   -1.032284
     31          1           0        3.588878   -1.054362   -0.734951
     32          1           0        5.231296   -0.805302    1.149682
     33          1           0        5.303357    0.922681    0.860673
     34          6           0        6.282208   -0.260797   -0.656882
     35          1           0        6.208321    0.498756   -1.446409
     36          1           0        6.140148   -1.228422   -1.156015
     37          6           0        7.688464   -0.212806   -0.044725
     38          6           0        8.815913   -0.421789   -1.060531
     39          1           0        7.764205   -0.974154    0.742471
     40          1           0        7.828761    0.752863    0.458194
     41          1           0        8.734429   -1.396608   -1.555112
     42          1           0        9.803944   -0.380054   -0.589335
     43          1           0        8.798610    0.346580   -1.842116
 ---------------------------------------------------------------------

 SCF Done:  E(UB3LYP) =  -925.362597746     A.U. after   17 cycles

 The electronic state is 1-A.
 Alpha  occ. eigenvalues --  -19.10808 -19.02165 -19.01381 -10.17164 -10.16849
 Alpha  occ. eigenvalues --  -10.15971 -10.15670 -10.15663 -10.15578 -10.15402
 Alpha  occ. eigenvalues --  -10.15370 -10.15079 -10.14535 -10.14473 -10.14147
 Alpha  occ. eigenvalues --  -10.14111 -10.14047 -10.13840 -10.13137 -10.12743
 Alpha  occ. eigenvalues --  -10.11922  -1.02228  -0.93686  -0.92773  -0.82029
 Alpha  occ. eigenvalues --   -0.80322  -0.78268  -0.76284  -0.73847  -0.71786
 Alpha  occ. eigenvalues --   -0.70916  -0.67758  -0.64112  -0.62017  -0.59242
 Alpha  occ. eigenvalues --   -0.57808  -0.57087  -0.56529  -0.55000  -0.53068
 Alpha  occ. eigenvalues --   -0.49896  -0.47650  -0.46714  -0.45523  -0.44198
 Alpha  occ. eigenvalues --   -0.42923  -0.42598  -0.41855  -0.41314  -0.41206
 Alpha  occ. eigenvalues --   -0.39758  -0.39015  -0.38926  -0.37960  -0.37179
 Alpha  occ. eigenvalues --   -0.36602  -0.35792  -0.34863  -0.34637  -0.34587
 Alpha  occ. eigenvalues --   -0.34437  -0.33741  -0.32573  -0.32296  -0.31768
 Alpha  occ. eigenvalues --   -0.31643  -0.31455  -0.30781  -0.30710  -0.29985
 Alpha  occ. eigenvalues --   -0.29368  -0.28984  -0.22604  -0.22033  -0.21020
 Alpha  occ. eigenvalues --   -0.19194  -0.18775  -0.10230
 Alpha virt. eigenvalues --   -0.00250  -0.00096   0.00173   0.00881   0.01148
 Alpha virt. eigenvalues --    0.01309   0.01834   0.02066   0.02375   0.02756
 Alpha virt. eigenvalues --    0.03064   0.03674   0.04261   0.04540   0.04802

  Beta  occ. eigenvalues --  -19.10808 -19.02165 -19.01381 -10.17164 -10.16849
  Beta  occ. eigenvalues --  -10.15971 -10.15670 -10.15663 -10.15578 -10.15402
  Beta  occ. eigenvalues --  -10.15370 -10.15079 -10.14535 -10.14473 -10.14147
  Beta  occ. eigenvalues --  -10.14111 -10.14047 -10.13840 -10.13137 -10.12743
  Beta  occ. eigenvalues --  -10.11922  -1.02228  -0.93686  -0.92773  -0.82029
  Beta  occ. eigenvalues --   -0.80322  -0.78268  -0.76284  -0.73847  -0.71786
  Beta  occ. eigenvalues --   -0.70916  -0.67758  -0.64112  -0.62017  -0.59242
  Beta  occ. eigenvalues --   -0.57808  -0.57087  -0.56529  -0.55000  -0.53068
  Beta  occ. eigenvalues --   -0.49896  -0.47650  -0.46714  -0.45523  -0.44198
  Beta  occ. eigenvalues --   -0.42923  -0.42598  -0.41855  -0.41314  -0.41206
  Beta  occ. eigenvalues --   -0.39758  -0.39015  -0.38926  -0.37960  -0.37179
  Beta  occ. eigenvalues --   -0.36602  -0.35792  -0.34863  -0.34637  -0.34587
  Beta  occ. eigenvalues --   -0.34437  -0.33741  -0.32573  -0.32296  -0.31768
  Beta  occ. eigenvalues --   -0.31643  -0.31455  -0.30781  -0.30710  -0.29985
  Beta  occ. eigenvalues --   -0.29368  -0.28984  -0.22604  -0.22033  -0.21020
  Beta  occ. eigenvalues --   -0.19194  -0.18775  -0.10230
  Beta virt. eigenvalues --   -0.00250  -0.00096   0.00173   0.00881   0.01148
  Beta virt. eigenvalues --    0.01309   0.01834   0.02066   0.02375   0.02756
  Beta virt. eigenvalues --    0.03064   0.03674   0.04261   0.04540   0.04802

 Mulliken charges and spin densities:
               1          2
     1  C   -0.077127   0.000000
     2  C   -0.385509   0.000000
     3  C   -0.506388  -0.000000
     4  C    0.503853   0.000000
     5  C   -0.092166  -0.000000
     6  C    0.017351  -0.000000
     7  C   -1.011694  -0.000000
     8  C   -0.643401  -0.000000
     9  C    2.031998   0.000000
    10  C   -0.763876   0.000000
    11  O   -0.730760   0.000000
    12  O   -0.641786  -0.000000
    13  H    0.139607  -0.000000
    14  H    0.153162   0.000000
    15  H    0.147379  -0.000000
    16  H    0.140740   0.000000
    17  O   -0.338439   0.000000
    18  C   -0.325015  -0.000000
    19  C   -0.716789   0.000000
    20  C   -0.105767   0.000000
    21  C   -0.019599  -0.000000
    22  C   -0.117440   0.000000
    23  H    0.275965  -0.000000
    24  H    0.172886   0.000000
    25  H    0.199871   0.000000
    26  H    0.151614   0.000000
    27  H    0.176591   0.000000
    28  H    0.108902   0.000000
    29  H    0.102256   0.000000
    30  H    0.122525   0.000000
    31  H    0.122367   0.000000
    32  H    0.127545   0.000000
    33  H    0.126105   0.000000
    34  C   -0.343438  -0.000000
    35  H    0.123596  -0.000000
    36  H    0.124249  -0.000000
    37  C   -0.243102  -0.000000
    38  C   -0.693807  -0.000000
    39  H    0.130815  -0.000000
    40  H    0.130414  -0.000000
    41  H    0.140361   0.000000
    42  H    0.145600   0.000000
    43  H    0.140350   0.000000
 Sum of Mulliken charges =  -2.00000   0.00000

 Dipole moment (field-independent basis, Debye):
    X=             25.8039    Y=             -2.1953    Z=             -1.4540  Tot=             25.9379
 Quadrupole moment (field-independent basis, Debye-Ang):
   XX=           -234.6210   YY=           -181.9219   ZZ=           -146.8637
   XY=             16.5184   XZ=             -4.2422   YZ=              8.9503

 Normal termination of Gaussian 16 at Sun Jan 21 09:13:46 2024.
