 Q-Chem 5.4, Q-Chem, Inc., Pleasanton, CA (2021)
 Q-Chem 5.4.0 for Intel X86 EM64T Linux

User input:
--------------------------------------------------------------
$molecule
-1 2
C                 -1.5376510000      2.7865880000     -0.0587490000
C                 -2.7976480000      2.2108830000     -0.0250230000
C                 -2.9056640000      0.7936780000      0.0468690000
C                 -0.3571680000      2.0203130000     -0.0245820000
C                 -0.4644870000      0.6121780000      0.0468390000
C                 -1.7474720000      0.0336620000      0.0809180000
C                  0.9531950000      2.6852440000     -0.0632110000
C                  2.1146760000      1.8205620000     -0.0243610000
C                  2.0091010000      0.4351550000      0.0457710000
C                  0.7300320000     -0.2435770000      0.0852630000
O                  1.0422430000      3.9444490000     -0.1269450000
O                  0.6273280000     -1.5017350000      0.1492080000
C                  3.4658190000      2.4918130000     -0.0635980000
C                  3.2429460000     -0.4330730000      0.0843850000
H                 -1.4239480000      3.8644040000     -0.1135070000
C                 -4.0344820000      3.0789010000     -0.0642900000
C                 -4.2597720000      0.1230940000      0.0856280000
H                  3.3297620000      3.5722650000     -0.1166590000
H                  4.0555340000      2.1687050000     -0.9311390000
H                  4.0632600000      2.2557840000      0.8264020000
H                  3.8749790000     -0.2034170000      0.9519130000
H                  3.8690960000     -0.2899460000     -0.8056760000
H                  2.9447300000     -1.4804520000      0.1370570000
H                 -1.7984880000     -1.0489320000      0.1357430000
H                 -3.7614270000      4.1352030000     -0.1184340000
H                 -4.6617720000      2.9412740000      0.8254060000
H                 -4.6679940000      2.8528380000     -0.9312080000
H                 -4.8521200000      0.4425830000      0.9522550000
H                 -4.1499470000     -0.9623830000      0.1398750000
H                 -4.8585350000      0.3541680000     -0.8043590000
$end
$rem
MAX_SCF_CYCLES=200
BASIS  =  6-311++G(d,p)
GUI  =  2
JOB_TYPE  =  SP
METHOD  =  B3LYP
SOLVENT_METHOD = PCM
$end
$pcm
theory = CPCM
$end
$solvent
dielectric 37.219
opticaldielectric 1.43
$end

--------------------------------------------------------------

             Standard Nuclear Orientation (Angstroms)
    I     Atom           X                Y                Z
 ----------------------------------------------------------------
    1      C      -1.5376510000     2.7865880000    -0.0587490000
    2      C      -2.7976480000     2.2108830000    -0.0250230000
    3      C      -2.9056640000     0.7936780000     0.0468690000
    4      C      -0.3571680000     2.0203130000    -0.0245820000
    5      C      -0.4644870000     0.6121780000     0.0468390000
    6      C      -1.7474720000     0.0336620000     0.0809180000
    7      C       0.9531950000     2.6852440000    -0.0632110000
    8      C       2.1146760000     1.8205620000    -0.0243610000
    9      C       2.0091010000     0.4351550000     0.0457710000
   10      C       0.7300320000    -0.2435770000     0.0852630000
   11      O       1.0422430000     3.9444490000    -0.1269450000
   12      O       0.6273280000    -1.5017350000     0.1492080000
   13      C       3.4658190000     2.4918130000    -0.0635980000
   14      C       3.2429460000    -0.4330730000     0.0843850000
   15      H      -1.4239480000     3.8644040000    -0.1135070000
   16      C      -4.0344820000     3.0789010000    -0.0642900000
   17      C      -4.2597720000     0.1230940000     0.0856280000
   18      H       3.3297620000     3.5722650000    -0.1166590000
   19      H       4.0555340000     2.1687050000    -0.9311390000
   20      H       4.0632600000     2.2557840000     0.8264020000
   21      H       3.8749790000    -0.2034170000     0.9519130000
   22      H       3.8690960000    -0.2899460000    -0.8056760000
   23      H       2.9447300000    -1.4804520000     0.1370570000
   24      H      -1.7984880000    -1.0489320000     0.1357430000
   25      H      -3.7614270000     4.1352030000    -0.1184340000
   26      H      -4.6617720000     2.9412740000     0.8254060000
   27      H      -4.6679940000     2.8528380000    -0.9312080000
   28      H      -4.8521200000     0.4425830000     0.9522550000
   29      H      -4.1499470000    -0.9623830000     0.1398750000
   30      H      -4.8585350000     0.3541680000    -0.8043590000
 ----------------------------------------------------------------

    8    -692.7206628027      5.81e-06  Convergence criterion met
 Total energy in the final basis set =     -692.7206628027

                    Orbital Energies (a.u.)
 --------------------------------------------------------------

 Alpha MOs
 -- Occupied --
-19.0708 -19.0707 -10.2151 -10.2151 -10.1750 -10.1745 -10.1637 -10.1633
-10.1632 -10.1627 -10.1603 -10.1603 -10.1585 -10.1585 -10.1486 -10.1486
 -0.9957  -0.9932  -0.8572  -0.8154  -0.7735  -0.7591  -0.7202  -0.6982
 -0.6955  -0.6470  -0.6342  -0.5892  -0.5655  -0.5439  -0.5007  -0.4703
 -0.4686  -0.4351  -0.4335  -0.4252  -0.4201  -0.4163  -0.4070  -0.3933
 -0.3914  -0.3881  -0.3817  -0.3810  -0.3777  -0.3720  -0.3637  -0.3630
 -0.3493  -0.3303  -0.3290  -0.3258  -0.2588  -0.2466  -0.2433  -0.2308
 -0.2283  -0.1461

 Beta MOs
 -- Occupied --
-19.0650 -19.0650 -10.2132 -10.2131 -10.1747 -10.1742 -10.1632 -10.1628
-10.1619 -10.1613 -10.1601 -10.1601 -10.1585 -10.1585 -10.1487 -10.1487
 -0.9854  -0.9827  -0.8556  -0.8108  -0.7723  -0.7579  -0.7164  -0.6968
 -0.6936  -0.6458  -0.6276  -0.5887  -0.5625  -0.5404  -0.4991  -0.4684
 -0.4663  -0.4328  -0.4287  -0.4219  -0.4194  -0.4146  -0.4012  -0.3923
 -0.3861  -0.3811  -0.3799  -0.3784  -0.3774  -0.3714  -0.3617  -0.3480
 -0.3420  -0.3288  -0.3246  -0.3185  -0.2400  -0.2380  -0.2353  -0.2257
 -0.2221

          Ground-State Mulliken Net Atomic Charges

     Atom                 Charge (a.u.)    Spin (a.u.)
  --------------------------------------------------------
      1 C                    -0.158458       0.031298
      2 C                     0.361561       0.027884
      3 C                     0.353050       0.027808
      4 C                     0.133302       0.016225
      5 C                     0.129084       0.016205
      6 C                    -0.158472       0.031332
      7 C                    -0.769193       0.113675
      8 C                     0.301550       0.090420
      9 C                     0.309226       0.090375
     10 C                    -0.771343       0.113675
     11 O                    -0.504557       0.215358
     12 O                    -0.503912       0.215394
     13 C                    -0.470780      -0.001424
     14 C                    -0.468836      -0.001508
     15 H                     0.129736      -0.002900
     16 C                    -0.523288      -0.001516
     17 C                    -0.525216      -0.001498
     18 H                     0.178611      -0.001658
     19 H                     0.157595       0.004957
     20 H                     0.157489       0.004937
     21 H                     0.157541       0.004974
     22 H                     0.157401       0.004941
     23 H                     0.179312      -0.001659
     24 H                     0.129862      -0.002896
     25 H                     0.180824       0.000104
     26 H                     0.164294       0.001350
     27 H                     0.164292       0.001351
     28 H                     0.164418       0.001348
     29 H                     0.180517       0.000102
     30 H                     0.164393       0.001346
  --------------------------------------------------------
  Sum of atomic charges =    -1.000000

                    Cartesian Multipole Moments
 -----------------------------------------------------------------
    Charge (ESU x 10^10)
                -4.8032
    Dipole Moment (Debye)
         X      -4.3495      Y      -5.8422      Z      -0.0545
       Tot       7.2838
    Quadrupole Moments (Debye-Ang)
        XX     -91.7613     XY      -9.1229     YY    -144.8365
        XZ       0.0926     YZ       1.8131     ZZ    -100.6700

 Total job time:  83.35s(wall), 374.14s(cpu)
        *  Thank you very much for using Q-Chem.  Have a nice day.  *
