 Q-Chem 5.4, Q-Chem, Inc., Pleasanton, CA (2021)
 Q-Chem 5.4.0 for Intel X86 EM64T Linux

User input:
--------------------------------------------------------------
$molecule
0 1
C                 -0.1465940000      0.8399540000     -0.2447510000
C                 -1.2478010000      0.0161100000     -0.8496520000
C                 -1.5026350000     -1.2137500000     -0.3696200000
C                 -0.7345190000     -1.7974590000      0.7459960000
C                  0.3557080000     -0.9778100000      1.3303510000
C                  0.6598340000      0.2471660000      0.8671170000
O                  0.0524820000      1.9737570000     -0.6483740000
O                 -0.9769720000     -2.9129290000      1.1792500000
C                  1.8213080000      0.9888150000      1.5119060000
C                  2.6432220000      1.9453160000      0.6856020000
O                  2.0850560000      0.7538920000      2.6722770000
H                  2.0678640000      2.8529110000      0.4906980000
H                  2.8854550000      1.5173390000     -0.2909240000
H                  3.5537390000      2.1861930000      1.2328780000
H                  0.9085400000     -1.4159990000      2.1541160000
C                 -2.0152580000      0.6477020000     -1.9704850000
H                 -2.2924260000     -1.8370660000     -0.7758750000
H                 -2.4778970000      1.5818990000     -1.6409530000
H                 -2.7904720000     -0.0244910000     -2.3392910000
H                 -1.3474860000      0.9111100000     -2.7952940000
$end
$rem
MAX_SCF_CYCLES=200
BASIS  =  6-311++G(d,p)
GUI  =  2
JOB_TYPE  =  SP
METHOD  =  B3LYP
SOLVENT_METHOD = COSMO
$end
$solvent
dielectric 37.219
opticaldielectric 1.43
$end

--------------------------------------------------------------

             Standard Nuclear Orientation (Angstroms)
    I     Atom           X                Y                Z
 ----------------------------------------------------------------
    1      C      -0.0859703905    -0.9873394239    -0.0926133508
    2      C      -1.5841718018    -0.8994774519    -0.0222299858
    3      C      -2.1794568292     0.3032037393     0.0621524560
    4      C      -1.4104458588     1.5614990111     0.0873036363
    5      C       0.0687910729     1.4620903312     0.0251250619
    6      C       0.7066621534     0.2801887075    -0.0371131893
    7      O       0.4511705615    -2.0754044661    -0.2176976595
    8      O      -1.9599765674     2.6495077960     0.1581463563
    9      C       2.2279441463     0.2875291163    -0.0586808262
   10      C       2.9857923553    -0.8624824987     0.5547965280
   11      O       2.7952394879     1.2490785383    -0.5328236164
   12      H       2.9015464969    -1.7432473608    -0.0854448128
   13      H       2.5632773206    -1.1430161899     1.5234172283
   14      H       4.0304994143    -0.5738364127     0.6636292184
   15      H       0.6220763313     2.3947917314     0.0379748120
   16      C      -2.3316085071    -2.1970397677    -0.0650753289
   17      H      -3.2583520737     0.4084661632     0.1094880469
   18      H      -2.1000965924    -2.7437902900    -0.9831256096
   19      H      -3.4075343731    -2.0289570059    -0.0107636654
   20      H      -2.0281024238    -2.8448961611     0.7618341316
 ----------------------------------------------------------------

    9    -573.5778090661      8.85e-06  Convergence criterion met
 Total energy in the final basis set =     -573.5778090661
    5    -573.5947472528      6.48e-06  Convergence criterion met
 Total energy in the final basis set =     -573.5947472528

                    Orbital Energies (a.u.)
 --------------------------------------------------------------

 Alpha MOs
 -- Occupied --
-19.1505 -19.1485 -19.1389 -10.2979 -10.2924 -10.2914 -10.2273 -10.2255
-10.2232 -10.2058 -10.1770 -10.1750  -1.0839  -1.0780  -1.0748  -0.8741
 -0.8208  -0.7603  -0.7341  -0.6987  -0.6514  -0.6031  -0.5623  -0.5383
 -0.5136  -0.4953  -0.4728  -0.4708  -0.4558  -0.4514  -0.4456  -0.4345
 -0.4318  -0.4125  -0.4088  -0.4021  -0.3948  -0.3812  -0.3191  -0.2990
 -0.2984  -0.2938  -0.2758

          Ground-State Mulliken Net Atomic Charges

     Atom                 Charge (a.u.)
  ----------------------------------------
      1 C                    -2.419671
      2 C                     1.524007
      3 C                    -0.571242
      4 C                    -0.258625
      5 C                    -0.207584
      6 C                     1.827923
      7 O                    -0.231665
      8 O                    -0.305720
      9 C                     0.287658
     10 C                    -0.643841
     11 O                    -0.315295
     12 H                     0.218136
     13 H                     0.195714
     14 H                     0.192419
     15 H                     0.259762
     16 C                    -0.369670
     17 H                     0.231423
     18 H                     0.203234
     19 H                     0.181037
     20 H                     0.202000
  ----------------------------------------
  Sum of atomic charges =     0.000000

                    Cartesian Multipole Moments
 -----------------------------------------------------------------
    Charge (ESU x 10^10)
                 0.0000
    Dipole Moment (Debye)
         X      -2.0302      Y      -4.2055      Z       1.6549
       Tot       4.9545
    Quadrupole Moments (Debye-Ang)
        XX     -71.3993     XY       4.8318     YY     -84.3519
        XZ       5.3248     YZ       0.1840     ZZ     -68.5342

 Total job time:  24.84s(wall), 178.07s(cpu)
        *  Thank you very much for using Q-Chem.  Have a nice day.  *
