 Gaussian 16, Revision A.03,
 Gaussian 16:  ES64L-G16RevA.03 25-Dec-2016

 ----------------------------------------------------------------------
 #P UB3LYP/6-311++G(d,p) nosym opt freq SCRF=(PCM,Solvent=n,n-DiMethylF
 ormamide)
 ----------------------------------------------------------------------

 --------
 Oxidized
 --------
 Symbolic Z-matrix:
 Charge =  0 Multiplicity = 1

 SCF Done:  E(UB3LYP) =  -996.322002079     A.U. after   14 cycles
 SCF Done:  E(UB3LYP) =  -996.322119441     A.U. after   11 cycles
 SCF Done:  E(UB3LYP) =  -996.322131180     A.U. after   10 cycles
 SCF Done:  E(UB3LYP) =  -996.322134504     A.U. after    9 cycles
 Optimization completed.
    -- Stationary point found.
 Normal termination of Gaussian 16 at Sat Feb 10 16:31:56 2024.

 ----------------------------------------------------------------------
 #P Geom=AllCheck Guess=TCheck SCRF=Check GenChk UB3LYP/6-311++G(d,p) F
 req
 ----------------------------------------------------------------------

 Structure from the checkpoint file:  "136.chk"
 --------
 Oxidized
 --------
 Charge =  0 Multiplicity = 1

                          Input orientation:
 ---------------------------------------------------------------------
 Center     Atomic      Atomic             Coordinates (Angstroms)
 Number     Number       Type             X           Y           Z
 ---------------------------------------------------------------------
      1          8           0       -0.049182   -1.512958   -2.324107
      2          6           0       -0.027028   -0.829836   -1.304899
      3          6           0        1.256871   -0.452848   -0.654524
      4          6           0        2.442292   -0.884320   -1.213871
      5          6           0        3.692699   -0.556522   -0.640202
      6          6           0        4.920049   -0.993190   -1.204866
      7          6           0        6.116639   -0.653892   -0.617989
      8          6           0        6.142363    0.135463    0.557946
      9          6           0        4.971184    0.574353    1.129847
     10          6           0        3.718746    0.242399    0.549243
     11          6           0        2.493113    0.674812    1.106884
     12          6           0        1.282867    0.344319    0.532067
     13          6           0        0.026989    0.828702    1.165629
     14          8           0        0.049200    1.512499    2.184379
     15          6           0       -1.256900    0.452117    0.514999
     16          6           0       -2.442296    0.883934    1.074093
     17          6           0       -3.692713    0.556504    0.500191
     18          6           0       -4.920023    0.993527    1.064600
     19          6           0       -6.116614    0.654572    0.477478
     20          6           0       -6.142339   -0.134770   -0.698436
     21          6           0       -4.971149   -0.574013   -1.270105
     22          6           0       -3.718753   -0.242422   -0.689260
     23          6           0       -2.493118   -0.675195   -1.246657
     24          6           0       -1.282901   -0.345063   -0.671611
     25          1           0        2.408160   -1.487720   -2.113180
     26          1           0        4.898767   -1.597618   -2.104798
     27          1           0        7.049738   -0.990540   -1.054537
     28          1           0        7.094804    0.392710    1.006557
     29          1           0        4.989372    1.178374    2.030095
     30          1           0        2.498372    1.279819    2.005818
     31          1           0       -2.408195    1.487330    1.973407
     32          1           0       -4.898784    1.597956    1.964532
     33          1           0       -7.049681    0.991517    0.913870
     34          1           0       -7.094747   -0.391758   -1.147259
     35          1           0       -4.989389   -1.178031   -2.170352
     36          1           0       -2.498409   -1.280207   -2.145586
 ---------------------------------------------------------------------

 SCF Done:  E(UB3LYP) =  -996.322134504     A.U. after    1 cycles

 Alpha  occ. eigenvalues --  -19.12550 -19.12549 -10.28035 -10.28034 -10.20853
 Alpha  occ. eigenvalues --  -10.20853 -10.20811 -10.20811 -10.20683 -10.20682
 Alpha  occ. eigenvalues --  -10.20640 -10.20640 -10.20153 -10.20153 -10.20151
 Alpha  occ. eigenvalues --  -10.20151 -10.19438 -10.19438 -10.19423 -10.19423
 Alpha  occ. eigenvalues --  -10.19376 -10.19376 -10.19345 -10.19345  -1.05931
 Alpha  occ. eigenvalues --   -1.05748  -0.90449  -0.90038  -0.86201  -0.84610
 Alpha  occ. eigenvalues --   -0.80055  -0.80036  -0.79279  -0.76370  -0.75378
 Alpha  occ. eigenvalues --   -0.74794  -0.68946  -0.68215  -0.64523  -0.64077
 Alpha  occ. eigenvalues --   -0.61903  -0.61798  -0.59035  -0.57998  -0.55349
 Alpha  occ. eigenvalues --   -0.54020  -0.53420  -0.50364  -0.50064  -0.48561
 Alpha  occ. eigenvalues --   -0.48313  -0.46672  -0.46093  -0.45454  -0.45438
 Alpha  occ. eigenvalues --   -0.45083  -0.44705  -0.44596  -0.43671  -0.42893
 Alpha  occ. eigenvalues --   -0.42739  -0.41642  -0.41613  -0.40300  -0.40199
 Alpha  occ. eigenvalues --   -0.38802  -0.37532  -0.36577  -0.35532  -0.35265
 Alpha  occ. eigenvalues --   -0.35139  -0.33900  -0.31209  -0.30879  -0.28498
 Alpha  occ. eigenvalues --   -0.27860  -0.27451  -0.26788  -0.24409  -0.24237
 Alpha virt. eigenvalues --   -0.11171  -0.09976  -0.06207  -0.04104  -0.01812
 Alpha virt. eigenvalues --   -0.00713  -0.00475  -0.00234   0.00310   0.00631
 Alpha virt. eigenvalues --    0.00786   0.01287   0.02426   0.02853   0.03293

  Beta  occ. eigenvalues --  -19.12550 -19.12549 -10.28035 -10.28034 -10.20853
  Beta  occ. eigenvalues --  -10.20853 -10.20811 -10.20811 -10.20683 -10.20682
  Beta  occ. eigenvalues --  -10.20640 -10.20640 -10.20153 -10.20153 -10.20151
  Beta  occ. eigenvalues --  -10.20151 -10.19438 -10.19438 -10.19423 -10.19423
  Beta  occ. eigenvalues --  -10.19376 -10.19376 -10.19345 -10.19345  -1.05931
  Beta  occ. eigenvalues --   -1.05748  -0.90449  -0.90038  -0.86201  -0.84610
  Beta  occ. eigenvalues --   -0.80055  -0.80036  -0.79279  -0.76370  -0.75378
  Beta  occ. eigenvalues --   -0.74794  -0.68946  -0.68215  -0.64523  -0.64077
  Beta  occ. eigenvalues --   -0.61903  -0.61798  -0.59035  -0.57998  -0.55349
  Beta  occ. eigenvalues --   -0.54020  -0.53420  -0.50364  -0.50064  -0.48561
  Beta  occ. eigenvalues --   -0.48313  -0.46672  -0.46093  -0.45454  -0.45438
  Beta  occ. eigenvalues --   -0.45083  -0.44705  -0.44596  -0.43671  -0.42893
  Beta  occ. eigenvalues --   -0.42739  -0.41642  -0.41613  -0.40300  -0.40199
  Beta  occ. eigenvalues --   -0.38802  -0.37532  -0.36577  -0.35532  -0.35265
  Beta  occ. eigenvalues --   -0.35139  -0.33900  -0.31209  -0.30879  -0.28498
  Beta  occ. eigenvalues --   -0.27860  -0.27451  -0.26788  -0.24409  -0.24237
  Beta virt. eigenvalues --   -0.11171  -0.09976  -0.06207  -0.04104  -0.01812
  Beta virt. eigenvalues --   -0.00713  -0.00475  -0.00234   0.00310   0.00631
  Beta virt. eigenvalues --    0.00786   0.01287   0.02426   0.02853   0.03293

 Mulliken charges and spin densities:
               1          2
     1  O   -0.279723  -0.000000
     2  C   -0.686412   0.000000
     3  C    0.262868   0.000000
     4  C    0.124907  -0.000000
     5  C    0.105325   0.000000
     6  C   -0.207504   0.000000
     7  C   -0.341586   0.000000
     8  C   -0.341569   0.000000
     9  C   -0.207391   0.000000
    10  C    0.104962   0.000000
    11  C    0.124699  -0.000000
    12  C    0.262561  -0.000000
    13  C   -0.686374  -0.000000
    14  O   -0.279724  -0.000000
    15  C    0.262845  -0.000000
    16  C    0.124925  -0.000000
    17  C    0.105335  -0.000000
    18  C   -0.207500   0.000000
    19  C   -0.341570   0.000000
    20  C   -0.341569   0.000000
    21  C   -0.207349   0.000000
    22  C    0.104905   0.000000
    23  C    0.124686  -0.000000
    24  C    0.262565   0.000000
    25  H    0.159706   0.000000
    26  H    0.175696   0.000000
    27  H    0.203890   0.000000
    28  H    0.203905  -0.000000
    29  H    0.175708   0.000000
    30  H    0.159935   0.000000
    31  H    0.159705   0.000000
    32  H    0.175701   0.000000
    33  H    0.203889  -0.000000
    34  H    0.203904   0.000000
    35  H    0.175714  -0.000000
    36  H    0.159934  -0.000000
 Sum of Mulliken charges =  -0.00000  -0.00000

 Dipole moment (field-independent basis, Debye):
    X=             -0.0002    Y=              0.0001    Z=             -0.0001  Tot=              0.0003
 Quadrupole moment (field-independent basis, Debye-Ang):
   XX=            -76.1502   YY=           -143.3450   ZZ=           -143.6797
   XY=             -2.8476   XZ=              0.4396   YZ=             -0.2529

  Exact polarizability: 762.332 -22.952 237.708   7.309 104.193 322.049
 Approx polarizability: 786.326 -21.801 294.071   8.425 140.382 407.997

                      1                      2                      3
                      A                      A                      A
 Frequencies --     19.5855                62.3386                82.9710
 Red. masses --      7.7260                 4.0278                 6.1451
 Frc consts  --      0.0017                 0.0092                 0.0249
 IR Inten    --      5.9288                 0.0010                 0.0000

                      4                      5                      6
                      A                      A                      A
 Frequencies --     97.4573                97.7551               116.0170
 Red. masses --      5.8337                 8.0744                 5.8373
 Frc consts  --      0.0326                 0.0455                 0.0463
 IR Inten    --      0.0025                 3.8156                 1.3412

                      7                      8                      9
                      A                      A                      A
 Frequencies --    206.1263               223.7228               229.4901
 Red. masses --      6.6597                 6.8075                 4.3449
 Frc consts  --      0.1667                 0.2008                 0.1348
 IR Inten    --      0.0000                 6.9095                 0.0000

                     10                     11                     12
                      A                      A                      A
 Frequencies --    237.2283               248.1869               287.0750
 Red. masses --      4.0974                 7.2241                 6.0568
 Frc consts  --      0.1359                 0.2622                 0.2941
 IR Inten    --      0.0033                 0.0000                 0.0000

                     13                     14                     15
                      A                      A                      A
 Frequencies --    345.6098               354.2331               355.1078
 Red. masses --      7.6740                 5.0602                11.9568
 Frc consts  --      0.5401                 0.3741                 0.8884
 IR Inten    --      0.0000                 0.3198                35.3755

                     16                     17                     18
                      A                      A                      A
 Frequencies --    397.1257               426.0734               464.4992
 Red. masses --      3.3472                 3.4060                13.3180
 Frc consts  --      0.3110                 0.3643                 1.6930
 IR Inten    --      0.8125                 0.0000                 0.0000

                     19                     20                     21
                      A                      A                      A
 Frequencies --    485.8766               487.2728               489.0105
 Red. masses --      2.6299                 2.6045                 5.1862
 Frc consts  --      0.3658                 0.3643                 0.7307
 IR Inten    --      0.0001                58.8222                 0.0000

                     22                     23                     24
                      A                      A                      A
 Frequencies --    489.8251               525.7696               542.6333
 Red. masses --      5.9594                 3.9104                 7.9579
 Frc consts  --      0.8424                 0.6369                 1.3806
 IR Inten    --      0.0000                 0.0003               117.2097

                     25                     26                     27
                      A                      A                      A
 Frequencies --    587.2909               596.8017               607.4048
 Red. masses --      6.8939                 7.0725                 4.6330
 Frc consts  --      1.4010                 1.4842                 1.0071
 IR Inten    --      0.0578                 0.0000                 0.0000

                     28                     29                     30
                      A                      A                      A
 Frequencies --    617.7362               641.6388               675.4297
 Red. masses --      6.6801                 6.8499                 5.4743
 Frc consts  --      1.5019                 1.6616                 1.4714
 IR Inten    --      0.0000                 2.3122                 0.0044

                     31                     32                     33
                      A                      A                      A
 Frequencies --    693.9855               715.4794               743.4438
 Red. masses --      6.8934                 6.6211                 2.1345
 Frc consts  --      1.9561                 1.9970                 0.6951
 IR Inten    --      0.0000                 7.0503                 5.5217

                     34                     35                     36
                      A                      A                      A
 Frequencies --    766.6023               772.2491               775.0574
 Red. masses --      1.2442                 3.9281                 3.4546
 Frc consts  --      0.4308                 1.3802                 1.2227
 IR Inten    --      0.0000                 0.0000                 0.0011

                     37                     38                     39
                      A                      A                      A
 Frequencies --    780.6349               782.1270               782.4026
 Red. masses --      5.1529                 8.0546                 2.0129
 Frc consts  --      1.8501                 2.9030                 0.7260
 IR Inten    --     18.4637                 0.0000               220.2434

                     40                     41                     42
                      A                      A                      A
 Frequencies --    797.3454               817.4061               874.6303
 Red. masses --      4.3210                 3.9748                 1.3358
 Frc consts  --      1.6185                 1.5647                 0.6021
 IR Inten    --      0.0000                 0.0000                 0.0141

                     43                     44                     45
                      A                      A                      A
 Frequencies --    877.2411               910.0302               941.0563
 Red. masses --      1.4191                 5.9869                 1.5114
 Frc consts  --      0.6434                 2.9212                 0.7886
 IR Inten    --      0.0000                 0.0291                 0.0364

                     46                     47                     48
                      A                      A                      A
 Frequencies --    943.9074               948.2829               952.4853
 Red. masses --      1.4119                 5.0636                 1.6545
 Frc consts  --      0.7411                 2.6828                 0.8844
 IR Inten    --      0.0000                 0.0000                 0.0000

                     49                     50                     51
                      A                      A                      A
 Frequencies --    955.8390               991.5597               992.6866
 Red. masses --      1.5005                 1.3924                 1.4144
 Frc consts  --      0.8077                 0.8066                 0.8212
 IR Inten    --     57.6952                 0.0003                25.7093

                     52                     53                     54
                      A                      A                      A
 Frequencies --   1002.9348              1011.8351              1011.8618
 Red. masses --      3.2031                 1.3100                 1.3108
 Frc consts  --      1.8983                 0.7902                 0.7908
 IR Inten    --    230.2587                 0.0000                 0.0051

                     55                     56                     57
                      A                      A                      A
 Frequencies --   1038.0679              1038.6711              1062.6871
 Red. masses --      2.3428                 2.2638                 4.6218
 Frc consts  --      1.4874                 1.4390                 3.0752
 IR Inten    --      0.0122                35.2872                 6.6266

                     58                     59                     60
                      A                      A                      A
 Frequencies --   1149.7552              1160.6252              1165.7241
 Red. masses --      1.7277                 1.5845                 1.4785
 Frc consts  --      1.3456                 1.2576                 1.1837
 IR Inten    --      0.0000                 0.0000                 2.6092

                     61                     62                     63
                      A                      A                      A
 Frequencies --   1176.0064              1178.0931              1206.3999
 Red. masses --      1.1899                 1.1578                 1.7511
 Frc consts  --      0.9696                 0.9468                 1.5015
 IR Inten    --      3.9501                 0.0000               607.4789

                     64                     65                     66
                      A                      A                      A
 Frequencies --   1207.6285              1246.5904              1249.1738
 Red. masses --      2.6856                 3.5881                 1.6751
 Frc consts  --      2.3076                 3.2852                 1.5401
 IR Inten    --      0.0018                 0.0000                 0.0000

                     67                     68                     69
                      A                      A                      A
 Frequencies --   1256.7391              1283.0842              1286.4061
 Red. masses --      1.5172                 5.7637                 2.0910
 Frc consts  --      1.4118                 5.5906                 2.0387
 IR Inten    --     15.4067              1993.0374                 0.0005

                     70                     71                     72
                      A                      A                      A
 Frequencies --   1287.0118              1351.9461              1371.6837
 Red. masses --      2.0342                 2.5913                 2.4109
 Frc consts  --      1.9853                 2.7905                 2.6726
 IR Inten    --     19.7058                 4.5413                 0.0000

                     73                     74                     75
                      A                      A                      A
 Frequencies --   1393.0725              1394.7985              1412.5418
 Red. masses --      5.5463                 5.8089                 5.0568
 Frc consts  --      6.3416                 6.6584                 5.9446
 IR Inten    --      0.0009                 9.0774               350.1222

                     76                     77                     78
                      A                      A                      A
 Frequencies --   1419.6847              1472.3729              1474.6184
 Red. masses --      5.4006                 2.5969                 2.7181
 Frc consts  --      6.4133                 3.3170                 3.4824
 IR Inten    --      0.0002                55.3881               336.4520

                     79                     80                     81
                      A                      A                      A
 Frequencies --   1480.6627              1484.8462              1529.2459
 Red. masses --      2.9704                 2.4914                 3.3509
 Frc consts  --      3.8369                 3.2364                 4.6171
 IR Inten    --      0.0001                 0.0001                35.6939

                     82                     83                     84
                      A                      A                      A
 Frequencies --   1536.7852              1597.1741              1597.3361
 Red. masses --      3.7998                 7.3345                 6.8642
 Frc consts  --      5.2873                11.0236                10.3189
 IR Inten    --      0.0001                 0.0011                22.7780

                     85                     86                     87
                      A                      A                      A
 Frequencies --   1599.5748              1620.5824              1646.5877
 Red. masses --      6.8121                 5.8745                 5.6711
 Frc consts  --     10.2693                 9.0899                 9.0592
 IR Inten    --    467.8551                 0.0000               134.6346

                     88                     89                     90
                      A                      A                      A
 Frequencies --   1652.3877              1676.8230              1705.2236
 Red. masses --      5.8535                12.5202                10.5387
 Frc consts  --      9.4166                20.7413                18.0551
 IR Inten    --      0.0005                 0.0000               510.0649

                     91                     92                     93
                      A                      A                      A
 Frequencies --   3170.5053              3170.5143              3175.2864
 Red. masses --      1.0866                 1.0866                 1.0888
 Frc consts  --      6.4352                 6.4352                 6.4677
 IR Inten    --      1.2050                 1.8251                 0.0363

                     94                     95                     96
                      A                      A                      A
 Frequencies --   3175.3197              3185.1515              3185.1625
 Red. masses --      1.0888                 1.0942                 1.0942
 Frc consts  --      6.4679                 6.5406                 6.5407
 IR Inten    --      0.0015                 7.0200                43.9703

                     97                     98                     99
                      A                      A                      A
 Frequencies --   3190.0599              3190.3766              3191.2066
 Red. masses --      1.0904                 1.0907                 1.0905
 Frc consts  --      6.5380                 6.5408                 6.5434
 IR Inten    --      0.0005                 9.6730                 2.0884

                    100                    101                    102
                      A                      A                      A
 Frequencies --   3191.7404              3195.4226              3195.5504
 Red. masses --      1.0909                 1.0975                 1.0974
 Frc consts  --      6.5478                 6.6027                 6.6026
 IR Inten    --      0.0000                86.2440                 0.0241

 - Thermochemistry -
 -------------------
 Temperature   298.150 Kelvin.  Pressure   1.00000 Atm.
 Atom     1 has atomic number  8 and mass  15.99491

 Molecular mass:   308.08373 amu.
 Principal axes and moments of inertia in atomic units:
                           1         2         3
     Eigenvalues --  2167.78608********************
           X            0.99908   0.01814   0.03880
           Y           -0.04232   0.55731   0.82923
           Z            0.00659   0.83011  -0.55756
 This molecule is an asymmetric top.
 Rotational symmetry number  1.
 Warning -- assumption of classical behavior for rotation
           may cause significant error
 Rotational temperatures (Kelvin)      0.03996     0.00559     0.00490
 Rotational constants (GHZ):           0.83253     0.11648     0.10219
 Zero-point vibrational energy     714561.1 (Joules/Mol)
                                  170.78420 (Kcal/Mol)
 Warning -- explicit consideration of  28 degrees of freedom as
           vibrations may cause significant error
 Vibrational temperatures:     28.18    89.69   119.38   140.22   140.65
          (Kelvin)            166.92   296.57   321.89   330.19   341.32
                              357.09   413.04   497.26   509.66   510.92
                              571.38   613.02   668.31   699.07   701.08
                              703.58   704.75   756.47   780.73   844.98
                              858.66   873.92   888.78   923.18   971.79
                              998.49  1029.42  1069.65  1102.97  1111.09
                             1115.13  1123.16  1125.31  1125.70  1147.20
                             1176.07  1258.40  1262.15  1309.33  1353.97
                             1358.07  1364.37  1370.41  1375.24  1426.63
                             1428.25  1443.00  1455.80  1455.84  1493.55
                             1494.42  1528.97  1654.24  1669.88  1677.22
                             1692.01  1695.01  1735.74  1737.51  1793.57
                             1797.28  1808.17  1846.07  1850.85  1851.72
                             1945.15  1973.55  2004.32  2006.80  2032.33
                             2042.61  2118.42  2121.65  2130.34  2136.36
                             2200.24  2211.09  2297.98  2298.21  2301.43
                             2331.66  2369.07  2377.42  2412.57  2453.44
                             4561.65  4561.66  4568.53  4568.58  4582.72
                             4582.74  4589.78  4590.24  4591.43  4592.20
                             4597.50  4597.68

 Zero-point correction=                           0.272162 (Hartree/Particle)
 Thermal correction to Energy=                    0.288791
 Thermal correction to Enthalpy=                  0.289735
 Thermal correction to Gibbs Free Energy=         0.227313
 Sum of electronic and zero-point Energies=           -996.049973
 Sum of electronic and thermal Energies=              -996.033343
 Sum of electronic and thermal Enthalpies=            -996.032399
 Sum of electronic and thermal Free Energies=         -996.094822

                     E (Thermal)             CV                S
                      KCal/Mol        Cal/Mol-Kelvin    Cal/Mol-Kelvin
 Total                  181.219             69.145            131.380
 Electronic               0.000              0.000              0.000
 Translational            0.889              2.981             43.072
 Rotational               0.889              2.981             34.738
 Vibrational            179.442             63.183             53.569
 Vibration     1          0.593              1.986              6.676
 Vibration     2          0.597              1.972              4.382
 Vibration     3          0.600              1.961              3.819
 Vibration     4          0.603              1.951              3.505
 Vibration     5          0.603              1.951              3.499
 Vibration     6          0.608              1.936              3.166
 Vibration     7          0.641              1.831              2.078
 Vibration     8          0.649              1.805              1.929
 Vibration     9          0.652              1.796              1.883
 Vibration    10          0.656              1.784              1.824
 Vibration    11          0.662              1.766              1.743
 Vibration    12          0.684              1.698              1.491
 Vibration    13          0.724              1.584              1.186
 Vibration    14          0.730              1.567              1.147
 Vibration    15          0.731              1.565              1.143
 Vibration    16          0.764              1.476              0.973
 Vibration    17          0.788              1.414              0.872
 Vibration    18          0.822              1.329              0.753
 Vibration    19          0.842              1.281              0.694
 Vibration    20          0.843              1.278              0.691
 Vibration    21          0.845              1.274              0.686
 Vibration    22          0.846              1.273              0.684
 Vibration    23          0.881              1.193              0.597
 Vibration    24          0.898              1.156              0.560
 Vibration    25          0.944              1.059              0.472
 Vibration    26          0.955              1.039              0.455
 Vibration    27          0.966              1.016              0.437
 Vibration    28          0.978              0.994              0.420

 Optimization completed.
    -- Stationary point found.
 Normal termination of Gaussian 16 at Sat Feb 10 19:27:21 2024.
