 Q-Chem 5.4, Q-Chem, Inc., Pleasanton, CA (2021)
 Q-Chem 5.4.0 for Intel X86 EM64T Linux

User input:
--------------------------------------------------------------
$molecule
-1 2
C                  2.8349970000     -0.4171460000      0.4159170000
O                  1.6564280000      0.2835640000      0.8041580000
C                  0.4685850000     -0.2981480000      0.4144920000
C                 -0.3687760000      0.4061670000     -0.4248090000
O                  0.0807380000      1.5925180000     -0.9649190000
C                 -0.6755860000      2.7477050000     -0.6126360000
C                 -1.6810400000     -0.1036140000     -0.8180920000
O                 -2.4432660000      0.5342690000     -1.6004740000
C                 -2.0329720000     -1.3895170000     -0.2638150000
C                 -1.1954200000     -2.0954960000      0.5584260000
C                  0.0999980000     -1.6022430000      0.9623790000
O                  0.8603030000     -2.2420200000      1.7451370000
H                  2.9209360000     -0.4466200000     -0.6787890000
H                  3.6759170000      0.1497760000      0.8228320000
H                  2.8364150000     -1.4308360000      0.8221310000
H                 -0.2160630000      3.5869650000     -1.1404700000
H                 -0.6157780000      2.9304900000      0.4688650000
H                 -1.7178110000      2.6388900000     -0.9201570000
H                 -3.0053180000     -1.7809860000     -0.5488870000
H                 -1.4822860000     -3.0637190000      0.9587110000
$end
$rem
MAX_SCF_CYCLES=200
BASIS  =  6-311++G(d,p)
GUI  =  2
JOB_TYPE  =  SP
METHOD  =  B3LYP
SOLVENT_METHOD = PCM
$end
$pcm
theory = CPCM
$end
$solvent
dielectric 37.219
opticaldielectric 1.43
$end

--------------------------------------------------------------

             Standard Nuclear Orientation (Angstroms)
    I     Atom           X                Y                Z
 ----------------------------------------------------------------
    1      C       2.8349970000    -0.4171460000     0.4159170000
    2      O       1.6564280000     0.2835640000     0.8041580000
    3      C       0.4685850000    -0.2981480000     0.4144920000
    4      C      -0.3687760000     0.4061670000    -0.4248090000
    5      O       0.0807380000     1.5925180000    -0.9649190000
    6      C      -0.6755860000     2.7477050000    -0.6126360000
    7      C      -1.6810400000    -0.1036140000    -0.8180920000
    8      O      -2.4432660000     0.5342690000    -1.6004740000
    9      C      -2.0329720000    -1.3895170000    -0.2638150000
   10      C      -1.1954200000    -2.0954960000     0.5584260000
   11      C       0.0999980000    -1.6022430000     0.9623790000
   12      O       0.8603030000    -2.2420200000     1.7451370000
   13      H       2.9209360000    -0.4466200000    -0.6787890000
   14      H       3.6759170000     0.1497760000     0.8228320000
   15      H       2.8364150000    -1.4308360000     0.8221310000
   16      H      -0.2160630000     3.5869650000    -1.1404700000
   17      H      -0.6157780000     2.9304900000     0.4688650000
   18      H      -1.7178110000     2.6388900000    -0.9201570000
   19      H      -3.0053180000    -1.7809860000    -0.5488870000
   20      H      -1.4822860000    -3.0637190000     0.9587110000
 ----------------------------------------------------------------

    8    -610.8327486687      7.64e-06  Convergence criterion met
 Total energy in the final basis set =     -610.8327486687

                    Orbital Energies (a.u.)
 --------------------------------------------------------------

 Alpha MOs
 -- Occupied --
-19.1384 -19.1384 -19.0818 -19.0817 -10.2258 -10.2257 -10.2195 -10.2189
-10.2043 -10.2043 -10.1647 -10.1641  -1.0632  -1.0442  -1.0006  -0.9983
 -0.8229  -0.7527  -0.7082  -0.6712  -0.6700  -0.5909  -0.5729  -0.5120
 -0.4963  -0.4899  -0.4682  -0.4484  -0.4454  -0.4421  -0.4267  -0.4146
 -0.4005  -0.3865  -0.3829  -0.3738  -0.3493  -0.3491  -0.2936  -0.2911
 -0.2821  -0.2441  -0.2412  -0.2334  -0.1658

 Beta MOs
 -- Occupied --
-19.1383 -19.1382 -19.0752 -19.0751 -10.2241 -10.2240 -10.2187 -10.2181
-10.2042 -10.2042 -10.1634 -10.1628  -1.0623  -1.0431  -0.9892  -0.9869
 -0.8170  -0.7505  -0.7050  -0.6685  -0.6626  -0.5873  -0.5696  -0.5109
 -0.4945  -0.4862  -0.4649  -0.4460  -0.4439  -0.4409  -0.4251  -0.4079
 -0.3836  -0.3805  -0.3805  -0.3497  -0.3468  -0.3457  -0.2907  -0.2886
 -0.2524  -0.2379  -0.2359  -0.2264

          Ground-State Mulliken Net Atomic Charges

     Atom                 Charge (a.u.)    Spin (a.u.)
  --------------------------------------------------------
      1 C                    -0.283273       0.000839
      2 O                    -0.215826       0.000793
      3 C                     0.038233       0.066382
      4 C                     0.035334       0.066650
      5 O                    -0.214070       0.000776
      6 C                    -0.283395       0.000854
      7 C                    -0.163367       0.111585
      8 O                    -0.524187       0.238933
      9 C                    -0.035606       0.088717
     10 C                    -0.037420       0.088609
     11 C                    -0.164078       0.111456
     12 O                    -0.524621       0.238863
     13 H                     0.151079       0.000881
     14 H                     0.160960       0.000149
     15 H                     0.170236      -0.000172
     16 H                     0.160919       0.000163
     17 H                     0.150985       0.000885
     18 H                     0.170328      -0.000181
     19 H                     0.203923      -0.008095
     20 H                     0.203844      -0.008087
  --------------------------------------------------------
  Sum of atomic charges =    -1.000000

                    Cartesian Multipole Moments
 -----------------------------------------------------------------
    Charge (ESU x 10^10)
                -4.8032
    Dipole Moment (Debye)
         X       2.8071      Y       3.0270      Z      -0.2533
       Tot       4.1361
    Quadrupole Moments (Debye-Ang)
        XX     -84.7105     XY       5.6051     YY     -81.4460
        XZ     -14.8055     YZ      12.4771     ZZ     -91.9866

 Total job time:  18.70s(wall), 142.10s(cpu)
        *  Thank you very much for using Q-Chem.  Have a nice day.  *
