 Q-Chem 5.4, Q-Chem, Inc., Pleasanton, CA (2021)
 Q-Chem 5.4.0 for Intel X86 EM64T Linux

User input:
--------------------------------------------------------------
$molecule
-2 1
C                 -0.2592790000      0.8804410000     -1.0268300000
C                 -0.8519810000      1.3972350000      0.1087790000
C                 -0.2048530000      1.2768030000      1.3625360000
C                  0.9952210000      0.2235730000     -0.9718460000
C                  1.6550930000      0.1019160000      0.3027220000
C                  1.0238330000      0.6393300000      1.4394690000
C                  1.6013090000     -0.3102450000     -2.1584130000
C                  2.8704610000     -0.9517720000     -1.9814800000
C                  3.5345110000     -1.0951030000     -0.7698200000
C                  2.9577300000     -0.5634570000      0.4391990000
O                  1.1069510000     -0.2622140000     -3.3529840000
O                  3.5414380000     -0.6663320000      1.5658960000
O                  3.3937460000     -1.4373990000     -3.1555470000
H                 -0.7368380000      0.9612980000     -1.9979350000
H                 -1.8155850000      1.8973830000      0.0406450000
H                 -0.6692760000      1.6826710000      2.2577850000
H                  1.5453360000      0.5326160000      2.3852250000
H                  2.6802340000     -1.1755430000     -3.7862740000
C                  4.8661730000     -1.7964390000     -0.6818870000
C                  6.0638760000     -0.8263270000     -0.6531830000
H                  4.9798990000     -2.4838100000     -1.5271380000
H                  4.8834980000     -2.3811370000      0.2453790000
H                  5.9159040000     -0.1316150000      0.1803170000
H                  6.0641890000     -0.2311290000     -1.5749210000
C                  7.4153320000     -1.5340580000     -0.5002670000
C                  8.6068300000     -0.5548320000     -0.4544660000
C                  9.9522020000     -1.2257140000     -0.2893950000
C                 10.4380670000     -1.5690480000      0.9778200000
C                 10.7459660000     -1.5527140000     -1.3967640000
C                 11.9719100000     -2.2009230000     -1.2540470000
C                 12.4318380000     -2.5214130000      0.0205520000
C                 11.6667670000     -2.2077900000      1.1394070000
O                 13.6051280000     -3.2428450000      0.2079290000
C                 14.8201810000     -2.7278430000     -0.1978870000
C                 15.0492430000     -1.3683070000     -0.4139500000
C                 15.8616760000     -3.6493480000     -0.3304060000
C                 17.1351600000     -3.2063400000     -0.6735790000
C                 16.3295080000     -0.9417130000     -0.7713660000
C                 17.3756060000     -1.8513470000     -0.9004380000
H                  7.5642550000     -2.2397980000     -1.3279670000
H                  7.4110700000     -2.1346900000      0.4179000000
H                  8.4483180000      0.1483380000      0.3709550000
H                  8.6101560000      0.0422480000     -1.3733080000
H                  9.8450540000     -1.3302080000      1.8552390000
H                 10.3942940000     -1.3016750000     -2.3927670000
H                 12.5710260000     -2.4538000000     -2.1214930000
H                 12.0393660000     -2.4703890000      2.1229200000
H                 14.2421500000     -0.6544570000     -0.3035970000
H                 15.6579420000     -4.7007520000     -0.1578530000
H                 17.9440820000     -3.9258070000     -0.7735420000
H                 16.5068980000      0.1160320000     -0.9454660000
H                 18.3690740000     -1.5106180000     -1.1770790000
$end
$rem
MAX_SCF_CYCLES=200
BASIS  =  6-311++G(d,p)
GUI  =  2
JOB_TYPE  =  SP
METHOD  =  B3LYP
SCF_ALGORITHM = DIIS_GDM
THRESH = 14
SOLVENT_METHOD = PCM
$end
$pcm
theory = CPCM
$end
$solvent
dielectric 37.219
opticaldielectric 1.43
$end

--------------------------------------------------------------

             Standard Nuclear Orientation (Angstroms)
    I     Atom           X                Y                Z
 ----------------------------------------------------------------
    1      C      -0.2592790000     0.8804410000    -1.0268300000
    2      C      -0.8519810000     1.3972350000     0.1087790000
    3      C      -0.2048530000     1.2768030000     1.3625360000
    4      C       0.9952210000     0.2235730000    -0.9718460000
    5      C       1.6550930000     0.1019160000     0.3027220000
    6      C       1.0238330000     0.6393300000     1.4394690000
    7      C       1.6013090000    -0.3102450000    -2.1584130000
    8      C       2.8704610000    -0.9517720000    -1.9814800000
    9      C       3.5345110000    -1.0951030000    -0.7698200000
   10      C       2.9577300000    -0.5634570000     0.4391990000
   11      O       1.1069510000    -0.2622140000    -3.3529840000
   12      O       3.5414380000    -0.6663320000     1.5658960000
   13      O       3.3937460000    -1.4373990000    -3.1555470000
   14      H      -0.7368380000     0.9612980000    -1.9979350000
   15      H      -1.8155850000     1.8973830000     0.0406450000
   16      H      -0.6692760000     1.6826710000     2.2577850000
   17      H       1.5453360000     0.5326160000     2.3852250000
   18      H       2.6802340000    -1.1755430000    -3.7862740000
   19      C       4.8661730000    -1.7964390000    -0.6818870000
   20      C       6.0638760000    -0.8263270000    -0.6531830000
   21      H       4.9798990000    -2.4838100000    -1.5271380000
   22      H       4.8834980000    -2.3811370000     0.2453790000
   23      H       5.9159040000    -0.1316150000     0.1803170000
   24      H       6.0641890000    -0.2311290000    -1.5749210000
   25      C       7.4153320000    -1.5340580000    -0.5002670000
   26      C       8.6068300000    -0.5548320000    -0.4544660000
   27      C       9.9522020000    -1.2257140000    -0.2893950000
   28      C      10.4380670000    -1.5690480000     0.9778200000
   29      C      10.7459660000    -1.5527140000    -1.3967640000
   30      C      11.9719100000    -2.2009230000    -1.2540470000
   31      C      12.4318380000    -2.5214130000     0.0205520000
   32      C      11.6667670000    -2.2077900000     1.1394070000
   33      O      13.6051280000    -3.2428450000     0.2079290000
   34      C      14.8201810000    -2.7278430000    -0.1978870000
   35      C      15.0492430000    -1.3683070000    -0.4139500000
   36      C      15.8616760000    -3.6493480000    -0.3304060000
   37      C      17.1351600000    -3.2063400000    -0.6735790000
   38      C      16.3295080000    -0.9417130000    -0.7713660000
   39      C      17.3756060000    -1.8513470000    -0.9004380000
   40      H       7.5642550000    -2.2397980000    -1.3279670000
   41      H       7.4110700000    -2.1346900000     0.4179000000
   42      H       8.4483180000     0.1483380000     0.3709550000
   43      H       8.6101560000     0.0422480000    -1.3733080000
   44      H       9.8450540000    -1.3302080000     1.8552390000
   45      H      10.3942940000    -1.3016750000    -2.3927670000
   46      H      12.5710260000    -2.4538000000    -2.1214930000
   47      H      12.0393660000    -2.4703890000     2.1229200000
   48      H      14.2421500000    -0.6544570000    -0.3035970000
   49      H      15.6579420000    -4.7007520000    -0.1578530000
   50      H      17.9440820000    -3.9258070000    -0.7735420000
   51      H      16.5068980000     0.1160320000    -0.9454660000
   52      H      18.3690740000    -1.5106180000    -1.1770790000
 ----------------------------------------------------------------

   15   -1305.5283579206      8.83e-06  Convergence criterion met
 Total energy in the final basis set =    -1305.5283579206

                    Orbital Energies (a.u.)
 --------------------------------------------------------------

 Alpha MOs
 -- Occupied --
-19.1674 -19.1124 -19.0270 -19.0198 -10.2433 -10.2358 -10.1806 -10.1802
-10.1798 -10.1776 -10.1774 -10.1766 -10.1760 -10.1756 -10.1754 -10.1750
-10.1726 -10.1723 -10.1628 -10.1614 -10.1548 -10.1469 -10.1461 -10.1440
-10.1435 -10.1424 -10.1412 -10.1348 -10.1309 -10.1230  -1.0844  -1.0272
 -0.9441  -0.9353  -0.8695  -0.8563  -0.8237  -0.7982  -0.7776  -0.7600
 -0.7552  -0.7520  -0.7407  -0.7209  -0.7162  -0.6842  -0.6480  -0.6291
 -0.6218  -0.6155  -0.6087  -0.5859  -0.5778  -0.5696  -0.5539  -0.5509
 -0.5345  -0.5061  -0.5026  -0.4896  -0.4787  -0.4742  -0.4698  -0.4570
 -0.4479  -0.4437  -0.4423  -0.4287  -0.4278  -0.4250  -0.4227  -0.4118
 -0.4105  -0.4010  -0.3971  -0.3962  -0.3866  -0.3795  -0.3743  -0.3688
 -0.3669  -0.3609  -0.3565  -0.3533  -0.3505  -0.3460  -0.3437  -0.3348
 -0.3320  -0.3256  -0.3238  -0.3153  -0.3116  -0.3058  -0.2988  -0.2976
 -0.2655  -0.2599  -0.2499  -0.2295  -0.2285  -0.2251  -0.2159  -0.1981
 -0.1921  -0.1064

          Ground-State Mulliken Net Atomic Charges

     Atom                 Charge (a.u.)
  ----------------------------------------
      1 C                    -0.048839
      2 C                    -0.404076
      3 C                    -0.509828
      4 C                     0.356792
      5 C                     0.035904
      6 C                     0.025421
      7 C                    -0.905976
      8 C                    -0.600511
      9 C                     1.972641
     10 C                    -0.729601
     11 O                    -0.749624
     12 O                    -0.667171
     13 O                    -0.350415
     14 H                     0.143221
     15 H                     0.170128
     16 H                     0.164054
     17 H                     0.142248
     18 H                     0.287601
     19 C                    -0.402624
     20 C                    -0.655509
     21 H                     0.207332
     22 H                     0.167227
     23 H                     0.164086
     24 H                     0.144099
     25 C                    -0.410581
     26 C                    -1.024433
     27 C                     1.463834
     28 C                    -0.271474
     29 C                    -0.435177
     30 C                     0.094709
     31 C                    -0.605345
     32 C                    -0.119763
     33 O                    -0.052942
     34 C                    -0.316202
     35 C                     0.180694
     36 C                    -0.254860
     37 C                    -0.230549
     38 C                    -0.158179
     39 C                    -0.351059
     40 H                     0.137438
     41 H                     0.136187
     42 H                     0.176208
     43 H                     0.181597
     44 H                     0.216762
     45 H                     0.211362
     46 H                     0.220604
     47 H                     0.225043
     48 H                     0.201361
     49 H                     0.206620
     50 H                     0.211325
     51 H                     0.225554
     52 H                     0.184688
  ----------------------------------------
  Sum of atomic charges =    -2.000000

                    Cartesian Multipole Moments
 -----------------------------------------------------------------
    Charge (ESU x 10^10)
                -9.6064
    Dipole Moment (Debye)
         X     -22.8236      Y       5.4535      Z       7.1021
       Tot      24.5173
    Quadrupole Moments (Debye-Ang)
        XX    -276.5650     XY      35.4674     YY    -198.5479
        XZ      -7.8501     YZ      -2.6047     ZZ    -234.1667

 Total job time:  594.91s(wall), 4131.98s(cpu)
        *  Thank you very much for using Q-Chem.  Have a nice day.  *
