 Q-Chem 5.4, Q-Chem, Inc., Pleasanton, CA (2021)
 Q-Chem 5.4.0 for Intel X86 EM64T Linux

User input:
--------------------------------------------------------------
$molecule
0 1
C                  4.6310200000      1.2097340000     -0.6776150000
C                  3.3275150000      0.5748090000     -0.2628860000
C                  3.3055960000     -0.6891400000      0.3246680000
C                  2.1127790000     -1.3138970000      0.7037810000
O                  2.1397790000     -2.5492910000      1.2609650000
C                  0.8759510000     -0.6660520000      0.4874880000
C                 -0.4212380000     -1.2706720000      0.9299540000
O                 -0.4516690000     -2.2057750000      1.7075650000
C                 -1.6720400000     -0.6523980000      0.3983330000
C                 -2.9343920000     -1.2836840000      0.5267040000
O                 -3.0115940000     -2.5187500000      1.0749320000
C                 -4.0904690000     -0.6512690000      0.0684840000
C                 -4.0274660000      0.6132050000     -0.5099900000
O                 -5.2023390000      1.1657780000     -0.9210250000
C                 -2.8010490000      1.2538870000     -0.6532410000
C                 -1.6447630000      0.6166740000     -0.2112470000
C                 -0.3528270000      1.3372330000     -0.4196660000
O                 -0.3367640000      2.4781440000     -0.8543360000
C                  0.9101180000      0.6038180000     -0.1227990000
C                  2.1096150000      1.2173160000     -0.4801620000
H                  5.4441870000      0.9331750000     -0.0025060000
H                  4.5522490000      2.2982900000     -0.6919810000
H                  4.9153460000      0.8868420000     -1.6849320000
H                  4.2424480000     -1.2127560000      0.5016450000
H                  3.0524120000     -2.8567590000      1.3010750000
H                 -3.9271170000     -2.8193160000      1.0526260000
H                 -5.0559210000     -1.1380360000      0.1607020000
H                 -5.0376870000      2.0348340000     -1.3033140000
H                 -2.7160500000      2.2366080000     -1.1027570000
H                  2.0685700000      2.2004450000     -0.9320700000
$end
$rem
MAX_SCF_CYCLES=200
BASIS  =  6-311++G(d,p)
GUI  =  2
JOB_TYPE  =  SP
METHOD  =  B3LYP
SOLVENT_METHOD = COSMO
$end
$solvent
dielectric 37.219
opticaldielectric 1.43
$end

--------------------------------------------------------------

             Standard Nuclear Orientation (Angstroms)
    I     Atom           X                Y                Z
 ----------------------------------------------------------------
    1      C       4.9781789645    -1.6210505527     0.2216330958
    2      C       3.6848171226    -0.8543833086     0.1046217001
    3      C       3.6755704782     0.5388487069     0.1502974126
    4      C       2.4919040649     1.2792735293     0.0633188202
    5      O       2.5308020565     2.6328355203     0.1244598702
    6      C       1.2513875298     0.6158575528    -0.0679338972
    7      C      -0.0348154704     1.3679314413    -0.2231998483
    8      O      -0.0464458695     2.5535313248    -0.4956703673
    9      C      -1.2980438205     0.5887842242    -0.0601875190
   10      C      -2.5581243815     1.2226054268     0.0776579107
   11      O      -2.6236337877     2.5728702715     0.1439563272
   12      C      -3.7246086781     0.4630116722     0.1712530195
   13      C      -3.6740428277    -0.9270009165     0.1182988740
   14      O      -4.8582393772    -1.5938698797     0.2053481463
   15      C      -2.4502664757    -1.5755628356    -0.0114385886
   16      C      -1.2840321686    -0.8190097561    -0.0883891979
   17      C       0.0036677452    -1.5689052143    -0.1943519926
   18      O       0.0109218951    -2.7833074736    -0.3210345437
   19      C       1.2722693293    -0.7930360229    -0.0956875638
   20      C       2.4631796925    -1.5136673524    -0.0228579223
   21      H       5.8088202851    -1.0777625840    -0.2348434007
   22      H       4.9020367282    -2.5981698691    -0.2587892380
   23      H       5.2338384465    -1.7901781354     1.2732138804
   24      H       4.6154869739     1.0766486443     0.2528374163
   25      H       3.4433435228     2.9162398917     0.2509288802
   26      H      -3.5402470916     2.8401330112     0.2759052588
   27      H      -4.6884980881     0.9486026884     0.2837803778
   28      H      -4.7017615527    -2.5435160813     0.1584410673
   29      H      -2.3749454068    -2.6561803377    -0.0517198366
   30      H       2.4124402164    -2.5944749015    -0.0644356875
 ----------------------------------------------------------------

    9    -954.0083773287      4.58e-06  Convergence criterion met
 Total energy in the final basis set =     -954.0083773287
    5    -954.0450728713      4.98e-06  Convergence criterion met
 Total energy in the final basis set =     -954.0450728713

                    Orbital Energies (a.u.)
 --------------------------------------------------------------

 Alpha MOs
 -- Occupied --
-19.1733 -19.1700 -19.1681 -19.1307 -19.1169 -10.2833 -10.2783 -10.2682
-10.2638 -10.2632 -10.2113 -10.2064 -10.2062 -10.2033 -10.2022 -10.1919
-10.1908 -10.1903 -10.1854 -10.1706  -1.0887  -1.0855  -1.0848  -1.0666
 -1.0545  -0.8898  -0.8776  -0.8165  -0.7825  -0.7708  -0.7678  -0.7163
 -0.6897  -0.6683  -0.6451  -0.6293  -0.6051  -0.5916  -0.5674  -0.5319
 -0.5275  -0.5240  -0.5113  -0.4935  -0.4763  -0.4687  -0.4631  -0.4547
 -0.4454  -0.4418  -0.4371  -0.4252  -0.4239  -0.4164  -0.4154  -0.4078
 -0.3984  -0.3928  -0.3912  -0.3838  -0.3723  -0.3696  -0.3478  -0.3362
 -0.2855  -0.2762  -0.2635  -0.2611  -0.2502  -0.2446

          Ground-State Mulliken Net Atomic Charges

     Atom                 Charge (a.u.)
  ----------------------------------------
      1 C                    -0.382858
      2 C                     0.521331
      3 C                    -0.391618
      4 C                    -0.148047
      5 O                    -0.239319
      6 C                    -0.114797
      7 C                    -0.314180
      8 O                    -0.329607
      9 C                    -0.173308
     10 C                     0.001552
     11 O                    -0.235375
     12 C                     0.021521
     13 C                    -0.592289
     14 O                    -0.279728
     15 C                     0.389970
     16 C                     0.510776
     17 C                    -0.637591
     18 O                    -0.285711
     19 C                     0.438405
     20 C                    -0.076545
     21 H                     0.170140
     22 H                     0.173337
     23 H                     0.201666
     24 H                     0.184646
     25 H                     0.327679
     26 H                     0.331490
     27 H                     0.229156
     28 H                     0.332269
     29 H                     0.193627
     30 H                     0.173409
  ----------------------------------------
  Sum of atomic charges =     0.000000

                    Cartesian Multipole Moments
 -----------------------------------------------------------------
    Charge (ESU x 10^10)
                 0.0000
    Dipole Moment (Debye)
         X       1.6187      Y      -2.0551      Z       2.0364
       Tot       3.3152
    Quadrupole Moments (Debye-Ang)
        XX     -63.3014     XY       4.4904     YY    -121.8505
        XZ       1.2153     YZ       2.7221     ZZ    -117.3426

 Total job time:  81.88s(wall), 588.02s(cpu)
        *  Thank you very much for using Q-Chem.  Have a nice day.  *
