 Q-Chem 5.4, Q-Chem, Inc., Pleasanton, CA (2021)
 Q-Chem 5.4.0 for Intel X86 EM64T Linux

User input:
--------------------------------------------------------------
$molecule
-1 2
C                 -3.2307640000      0.0618690000      1.0038740000
C                 -1.8858730000     -0.0063220000      0.3298250000
C                 -1.7712110000     -0.2279180000     -1.0289040000
C                 -0.5235900000     -0.3048890000     -1.7369480000
O                 -0.4563650000     -0.5088930000     -2.9799420000
C                  0.6853970000     -0.1288870000     -0.9114650000
C                  1.9592600000     -0.1866790000     -1.5087800000
C                  3.1091890000     -0.0247270000     -0.7560820000
C                  3.0125420000      0.2020910000      0.6312730000
C                  1.7698180000      0.2622610000      1.2365440000
C                  0.5865320000      0.0999190000      0.4879430000
C                 -0.7188090000      0.1701850000      1.1659750000
O                 -0.8105230000      0.3731730000      2.4090660000
H                 -4.0400410000     -0.0838530000      0.2827040000
H                 -3.3148930000     -0.6970490000      1.7895300000
H                 -3.3706530000      1.0266100000      1.5038530000
H                 -2.6654740000     -0.3573190000     -1.6344270000
H                  2.0007000000     -0.3625580000     -2.5780170000
H                  4.0845250000     -0.0720960000     -1.2321370000
H                  3.9139200000      0.3295230000      1.2242430000
H                  1.6663110000      0.4355570000      2.3018670000
$end
$rem
MAX_SCF_CYCLES=200
BASIS  =  6-311++G(d,p)
GUI  =  2
JOB_TYPE  =  SP
METHOD  =  B3LYP
SOLVENT_METHOD = PCM
$end
$pcm
theory = CPCM
$end
$solvent
dielectric 37.219
opticaldielectric 1.43
$end

--------------------------------------------------------------

             Standard Nuclear Orientation (Angstroms)
    I     Atom           X                Y                Z
 ----------------------------------------------------------------
    1      C      -3.2307640000     0.0618690000     1.0038740000
    2      C      -1.8858730000    -0.0063220000     0.3298250000
    3      C      -1.7712110000    -0.2279180000    -1.0289040000
    4      C      -0.5235900000    -0.3048890000    -1.7369480000
    5      O      -0.4563650000    -0.5088930000    -2.9799420000
    6      C       0.6853970000    -0.1288870000    -0.9114650000
    7      C       1.9592600000    -0.1866790000    -1.5087800000
    8      C       3.1091890000    -0.0247270000    -0.7560820000
    9      C       3.0125420000     0.2020910000     0.6312730000
   10      C       1.7698180000     0.2622610000     1.2365440000
   11      C       0.5865320000     0.0999190000     0.4879430000
   12      C      -0.7188090000     0.1701850000     1.1659750000
   13      O      -0.8105230000     0.3731730000     2.4090660000
   14      H      -4.0400410000    -0.0838530000     0.2827040000
   15      H      -3.3148930000    -0.6970490000     1.7895300000
   16      H      -3.3706530000     1.0266100000     1.5038530000
   17      H      -2.6654740000    -0.3573190000    -1.6344270000
   18      H       2.0007000000    -0.3625580000    -2.5780170000
   19      H       4.0845250000    -0.0720960000    -1.2321370000
   20      H       3.9139200000     0.3295230000     1.2242430000
   21      H       1.6663110000     0.4355570000     2.3018670000
 ----------------------------------------------------------------

    8    -574.7433692190      9.08e-06  Convergence criterion met
 Total energy in the final basis set =     -574.7433692190

                    Orbital Energies (a.u.)
 --------------------------------------------------------------

 Alpha MOs
 -- Occupied --
-19.0772 -19.0758 -10.2214 -10.2196 -10.1722 -10.1718 -10.1717 -10.1715
-10.1713 -10.1690 -10.1687 -10.1570 -10.1551  -1.0008  -0.9983  -0.8568
 -0.8096  -0.7525  -0.7491  -0.6988  -0.6588  -0.6138  -0.5926  -0.5548
 -0.5074  -0.4951  -0.4648  -0.4470  -0.4269  -0.4247  -0.4188  -0.4145
 -0.3955  -0.3897  -0.3805  -0.3728  -0.3697  -0.3483  -0.3455  -0.3361
 -0.2725  -0.2564  -0.2464  -0.2459  -0.2377  -0.1525

 Beta MOs
 -- Occupied --
-19.0713 -19.0701 -10.2197 -10.2176 -10.1718 -10.1715 -10.1710 -10.1709
-10.1700 -10.1690 -10.1686 -10.1557 -10.1552  -0.9904  -0.9877  -0.8548
 -0.8046  -0.7504  -0.7473  -0.6948  -0.6519  -0.6118  -0.5899  -0.5520
 -0.5052  -0.4923  -0.4620  -0.4458  -0.4240  -0.4168  -0.4163  -0.4091
 -0.3879  -0.3873  -0.3789  -0.3684  -0.3499  -0.3439  -0.3367  -0.3348
 -0.2500  -0.2473  -0.2405  -0.2393  -0.2324

          Ground-State Mulliken Net Atomic Charges

     Atom                 Charge (a.u.)    Spin (a.u.)
  --------------------------------------------------------
      1 C                    -0.369000       0.002036
      2 C                     0.607504       0.095482
      3 C                    -0.404925       0.085811
      4 C                    -0.773107       0.098957
      5 O                    -0.519645       0.210579
      6 C                     0.707014       0.047983
      7 C                    -0.019217       0.021543
      8 C                    -0.423251       0.030110
      9 C                    -0.463909       0.018432
     10 C                     0.054580       0.039821
     11 C                     0.107313      -0.005843
     12 C                    -0.405382       0.136381
     13 O                    -0.503715       0.224860
     14 H                     0.160066      -0.000247
     15 H                     0.171856       0.005893
     16 H                     0.171950       0.005915
     17 H                     0.163794      -0.008822
     18 H                     0.167740      -0.002169
     19 H                     0.200185      -0.002375
     20 H                     0.194204      -0.001856
     21 H                     0.175946      -0.002492
  --------------------------------------------------------
  Sum of atomic charges =    -1.000000

                    Cartesian Multipole Moments
 -----------------------------------------------------------------
    Charge (ESU x 10^10)
                -4.8032
    Dipole Moment (Debye)
         X       2.5090      Y       0.3836      Z       1.8218
       Tot       3.1243
    Quadrupole Moments (Debye-Ang)
        XX     -74.1014     XY       0.4267     YY     -82.6256
        XZ       1.1319     YZ      -5.8281     ZZ    -117.0902

 Total job time:  31.67s(wall), 201.42s(cpu)
        *  Thank you very much for using Q-Chem.  Have a nice day.  *
