 Q-Chem 5.4, Q-Chem, Inc., Pleasanton, CA (2021)
 Q-Chem 5.4.0 for Intel X86 EM64T Linux

User input:
--------------------------------------------------------------
$molecule
-2 1
C                  0.7618750000      1.1392240000     -1.5261720000
C                 -0.6188910000      0.8924820000     -1.7927520000
C                 -1.4399340000      0.1490510000     -0.9406800000
C                 -1.0156930000     -0.4366440000      0.3144920000
C                  0.3665990000     -0.1954150000      0.5778550000
C                  1.1934740000      0.5276460000     -0.2860120000
O                  1.5112290000      1.8386680000     -2.2949240000
O                 -1.7807770000     -1.0805680000      1.1156720000
S                  2.9052100000      0.6965800000      0.2004580000
C                  3.2057020000      2.4819060000      0.4130600000
C                  3.3782930000      3.3080910000     -0.7004820000
C                  3.2819690000      2.9923630000      1.7087610000
C                  3.5426130000      4.3486280000      1.8991760000
C                  3.6345250000      4.6642480000     -0.4954890000
C                  3.7213830000      5.1872760000      0.7958440000
O                  3.8441360000      0.2295290000     -0.8388790000
O                  3.0767310000      0.1243670000      1.5606950000
H                  3.2461700000      2.8791160000     -1.6865400000
H                  3.1430220000      2.3174180000      2.5445460000
H                  3.7573020000      5.3178460000     -1.3540040000
H                  3.6042470000      4.7500280000      2.9064990000
H                  3.9190980000      6.2454300000      0.9433800000
S                 -3.1339570000     -0.0810250000     -1.4633190000
C                 -4.1773500000      0.7054270000     -0.1919240000
C                 -4.7641880000      1.9366110000     -0.4836660000
C                 -4.3990860000      0.0713890000      1.0333350000
C                 -5.2270730000      0.6924020000      1.9690570000
C                 -5.5929330000      2.5437670000      0.4587970000
C                 -5.8273170000      1.9208630000      1.6874680000
H                 -1.0293610000      1.3090730000     -2.7041110000
H                  0.7739440000     -0.6013300000      1.4954190000
H                 -4.5673710000      2.3936190000     -1.4458610000
H                 -3.8701300000     -0.8516030000      1.2393620000
H                 -5.3954610000      0.2148350000      2.9297350000
H                 -6.0531270000      3.5017990000      0.2351210000
H                 -6.4686300000      2.3961260000      2.4246280000
O                 -3.5281820000     -1.5029290000     -1.5149370000
O                 -3.3712500000      0.7222730000     -2.6902970000
$end
$rem
MAX_SCF_CYCLES=200
BASIS  =  6-311++G(d,p)
GUI  =  2
JOB_TYPE  =  SP
METHOD  =  B3LYP
SOLVENT_METHOD = PCM
$end
$pcm
theory = CPCM
$end
$solvent
dielectric 37.219
opticaldielectric 1.43
$end

--------------------------------------------------------------

             Standard Nuclear Orientation (Angstroms)
    I     Atom           X                Y                Z
 ----------------------------------------------------------------
    1      C       0.7618750000     1.1392240000    -1.5261720000
    2      C      -0.6188910000     0.8924820000    -1.7927520000
    3      C      -1.4399340000     0.1490510000    -0.9406800000
    4      C      -1.0156930000    -0.4366440000     0.3144920000
    5      C       0.3665990000    -0.1954150000     0.5778550000
    6      C       1.1934740000     0.5276460000    -0.2860120000
    7      O       1.5112290000     1.8386680000    -2.2949240000
    8      O      -1.7807770000    -1.0805680000     1.1156720000
    9      S       2.9052100000     0.6965800000     0.2004580000
   10      C       3.2057020000     2.4819060000     0.4130600000
   11      C       3.3782930000     3.3080910000    -0.7004820000
   12      C       3.2819690000     2.9923630000     1.7087610000
   13      C       3.5426130000     4.3486280000     1.8991760000
   14      C       3.6345250000     4.6642480000    -0.4954890000
   15      C       3.7213830000     5.1872760000     0.7958440000
   16      O       3.8441360000     0.2295290000    -0.8388790000
   17      O       3.0767310000     0.1243670000     1.5606950000
   18      H       3.2461700000     2.8791160000    -1.6865400000
   19      H       3.1430220000     2.3174180000     2.5445460000
   20      H       3.7573020000     5.3178460000    -1.3540040000
   21      H       3.6042470000     4.7500280000     2.9064990000
   22      H       3.9190980000     6.2454300000     0.9433800000
   23      S      -3.1339570000    -0.0810250000    -1.4633190000
   24      C      -4.1773500000     0.7054270000    -0.1919240000
   25      C      -4.7641880000     1.9366110000    -0.4836660000
   26      C      -4.3990860000     0.0713890000     1.0333350000
   27      C      -5.2270730000     0.6924020000     1.9690570000
   28      C      -5.5929330000     2.5437670000     0.4587970000
   29      C      -5.8273170000     1.9208630000     1.6874680000
   30      H      -1.0293610000     1.3090730000    -2.7041110000
   31      H       0.7739440000    -0.6013300000     1.4954190000
   32      H      -4.5673710000     2.3936190000    -1.4458610000
   33      H      -3.8701300000    -0.8516030000     1.2393620000
   34      H      -5.3954610000     0.2148350000     2.9297350000
   35      H      -6.0531270000     3.5017990000     0.2351210000
   36      H      -6.4686300000     2.3961260000     2.4246280000
   37      O      -3.5281820000    -1.5029290000    -1.5149370000
   38      O      -3.3712500000     0.7222730000    -2.6902970000
 ----------------------------------------------------------------

    9   -1941.3791131774      3.73e-06  Convergence criterion met
 Total energy in the final basis set =    -1941.3791131774

                    Orbital Energies (a.u.)
 --------------------------------------------------------------

 Alpha MOs
 -- Occupied --
-89.0424 -89.0424 -19.1115 -19.1115 -19.1087 -19.1087 -19.0400 -19.0400
-10.2092 -10.2091 -10.2037 -10.2037 -10.1857 -10.1857 -10.1854 -10.1853
-10.1818 -10.1817 -10.1803 -10.1803 -10.1796 -10.1794 -10.1788 -10.1787
-10.1566 -10.1566  -8.1063  -8.1062  -6.0693  -6.0693  -6.0680  -6.0680
 -6.0669  -6.0669  -1.0998  -1.0997  -0.9951  -0.9951  -0.9649  -0.9615
 -0.8673  -0.8672  -0.8238  -0.7823  -0.7700  -0.7559  -0.7543  -0.7535
 -0.6943  -0.6934  -0.6477  -0.6173  -0.6139  -0.6114  -0.5859  -0.5835
 -0.5570  -0.5341  -0.5243  -0.4928  -0.4824  -0.4821  -0.4763  -0.4726
 -0.4664  -0.4603  -0.4472  -0.4461  -0.4448  -0.4403  -0.4296  -0.4285
 -0.4211  -0.3983  -0.3922  -0.3883  -0.3812  -0.3772  -0.3718  -0.3704
 -0.3602  -0.3489  -0.3454  -0.3444  -0.3353  -0.3326  -0.3204  -0.3193
 -0.3049  -0.3036  -0.2941  -0.2927  -0.2731  -0.2693  -0.2644  -0.2629
 -0.2540  -0.2501  -0.2214  -0.2188  -0.1490

          Ground-State Mulliken Net Atomic Charges

     Atom                 Charge (a.u.)
  ----------------------------------------
      1 C                    -0.495657
      2 C                    -0.330371
      3 C                     0.353004
      4 C                    -0.497604
      5 C                    -0.328454
      6 C                     0.356568
      7 O                    -0.587550
      8 O                    -0.588478
      9 S                     0.232466
     10 C                     0.064107
     11 C                    -0.298258
     12 C                     0.292652
     13 C                    -0.457308
     14 C                    -0.385162
     15 C                    -0.330588
     16 O                    -0.202449
     17 O                    -0.296944
     18 H                     0.289034
     19 H                     0.256860
     20 H                     0.223069
     21 H                     0.221998
     22 H                     0.201953
     23 S                     0.240509
     24 C                     0.062924
     25 C                     0.293052
     26 C                    -0.300128
     27 C                    -0.385074
     28 C                    -0.456430
     29 C                    -0.330871
     30 H                     0.246249
     31 H                     0.245964
     32 H                     0.257328
     33 H                     0.288861
     34 H                     0.223105
     35 H                     0.221951
     36 H                     0.201993
     37 O                    -0.203663
     38 O                    -0.298663
  ----------------------------------------
  Sum of atomic charges =    -2.000004

                    Cartesian Multipole Moments
 -----------------------------------------------------------------
    Charge (ESU x 10^10)
                -9.6064
    Dipole Moment (Debye)
         X      -0.8769      Y       3.8961      Z      10.0098
       Tot      10.7770
    Quadrupole Moments (Debye-Ang)
        XX    -239.9883     XY     -17.6176     YY    -170.7931
        XZ     -11.8347     YZ      16.5051     ZZ    -204.5249

 Total job time:  123.61s(wall), 878.60s(cpu)
        *  Thank you very much for using Q-Chem.  Have a nice day.  *
