 Q-Chem 5.4, Q-Chem, Inc., Pleasanton, CA (2021)
 Q-Chem 5.4.0 for Intel X86 EM64T Linux

User input:
--------------------------------------------------------------
$molecule
0 1
O                  4.5484120000     -1.4034570000     -0.8459570000
C                  3.4516640000     -0.6522260000     -0.5244250000
C                  3.5090420000      0.6695460000     -0.1537530000
C                  2.3272490000      1.3606130000      0.1589920000
O                  2.4499190000      2.6434190000      0.5120530000
C                  1.0849630000      0.6920100000      0.0906110000
C                 -0.1303500000      1.4441030000      0.4238880000
O                 -0.0466130000      2.6393520000      0.7557850000
C                 -1.4373080000      0.7595920000      0.3572700000
C                 -2.6338520000      1.4281000000      0.6648890000
O                 -2.6281860000      2.7338840000      1.0358730000
C                 -3.8537160000      0.7316990000      0.5863980000
C                 -3.9061850000     -0.5911530000      0.2150350000
C                 -2.7269860000     -1.2872970000     -0.0987850000
O                 -2.8509200000     -2.5722890000     -0.4522610000
C                 -1.4879170000     -0.6126730000     -0.0283370000
C                 -0.2654820000     -1.3672650000     -0.3629720000
O                 -0.3465440000     -2.5596600000     -0.6945130000
C                  1.0394250000     -0.6812350000     -0.2958360000
C                  2.2240270000     -1.3572780000     -0.6045910000
O                  2.2559170000     -2.6545370000     -0.9769720000
H                  5.3565700000     -0.8844150000     -0.7774140000
H                  4.4514620000      1.2029310000     -0.0944710000
H                  1.5227570000      2.9646740000      0.6943980000
H                 -3.5347350000      3.0145400000      1.2044190000
H                 -4.7732970000      1.2582600000      0.8264940000
H                 -4.8477960000     -1.1229680000      0.1561000000
H                 -1.9306700000     -2.8999140000     -0.6356150000
H                  3.1791510000     -2.8963560000     -1.1363040000
$end
$rem
MAX_SCF_CYCLES=200
BASIS  =  6-311++G(d,p)
GUI  =  2
JOB_TYPE  =  SP
METHOD  =  B3LYP
SOLVENT_METHOD = PCM
$end
$pcm
theory = CPCM
$end
$solvent
dielectric 37.219
opticaldielectric 1.43
$end

--------------------------------------------------------------

             Standard Nuclear Orientation (Angstroms)
    I     Atom           X                Y                Z
 ----------------------------------------------------------------
    1      O       4.5484120000    -1.4034570000    -0.8459570000
    2      C       3.4516640000    -0.6522260000    -0.5244250000
    3      C       3.5090420000     0.6695460000    -0.1537530000
    4      C       2.3272490000     1.3606130000     0.1589920000
    5      O       2.4499190000     2.6434190000     0.5120530000
    6      C       1.0849630000     0.6920100000     0.0906110000
    7      C      -0.1303500000     1.4441030000     0.4238880000
    8      O      -0.0466130000     2.6393520000     0.7557850000
    9      C      -1.4373080000     0.7595920000     0.3572700000
   10      C      -2.6338520000     1.4281000000     0.6648890000
   11      O      -2.6281860000     2.7338840000     1.0358730000
   12      C      -3.8537160000     0.7316990000     0.5863980000
   13      C      -3.9061850000    -0.5911530000     0.2150350000
   14      C      -2.7269860000    -1.2872970000    -0.0987850000
   15      O      -2.8509200000    -2.5722890000    -0.4522610000
   16      C      -1.4879170000    -0.6126730000    -0.0283370000
   17      C      -0.2654820000    -1.3672650000    -0.3629720000
   18      O      -0.3465440000    -2.5596600000    -0.6945130000
   19      C       1.0394250000    -0.6812350000    -0.2958360000
   20      C       2.2240270000    -1.3572780000    -0.6045910000
   21      O       2.2559170000    -2.6545370000    -0.9769720000
   22      H       5.3565700000    -0.8844150000    -0.7774140000
   23      H       4.4514620000     1.2029310000    -0.0944710000
   24      H       1.5227570000     2.9646740000     0.6943980000
   25      H      -3.5347350000     3.0145400000     1.2044190000
   26      H      -4.7732970000     1.2582600000     0.8264940000
   27      H      -4.8477960000    -1.1229680000     0.1561000000
   28      H      -1.9306700000    -2.8999140000    -0.6356150000
   29      H       3.1791510000    -2.8963560000    -1.1363040000
 ----------------------------------------------------------------

    8   -1065.2298014213      9.27e-06  Convergence criterion met
 Total energy in the final basis set =    -1065.2298014213

                    Orbital Energies (a.u.)
 --------------------------------------------------------------

 Alpha MOs
 -- Occupied --
-19.1839 -19.1736 -19.1698 -19.1582 -19.1580 -19.1323 -19.1277 -10.2871
-10.2833 -10.2704 -10.2669 -10.2659 -10.2647 -10.2620 -10.2132 -10.2107
-10.2093 -10.2041 -10.2020 -10.1981 -10.1972  -1.1083  -1.0911  -1.0896
 -1.0845  -1.0771  -1.0556  -1.0520  -0.8910  -0.8750  -0.8164  -0.7819
 -0.7691  -0.7622  -0.7027  -0.6820  -0.6720  -0.6377  -0.6239  -0.6042
 -0.5851  -0.5756  -0.5655  -0.5315  -0.5255  -0.5117  -0.4990  -0.4891
 -0.4804  -0.4771  -0.4615  -0.4562  -0.4557  -0.4504  -0.4441  -0.4386
 -0.4247  -0.4145  -0.4124  -0.4085  -0.3981  -0.3960  -0.3909  -0.3898
 -0.3845  -0.3787  -0.3344  -0.3261  -0.2887  -0.2875  -0.2734  -0.2689
 -0.2392  -0.2253

          Ground-State Mulliken Net Atomic Charges

     Atom                 Charge (a.u.)
  ----------------------------------------
      1 O                    -0.306352
      2 C                    -0.448305
      3 C                     0.319013
      4 C                    -0.267695
      5 O                    -0.365940
      6 C                     0.640634
      7 C                    -0.320525
      8 O                    -0.361603
      9 C                     0.231117
     10 C                    -0.205789
     11 O                    -0.260517
     12 C                    -0.109422
     13 C                    -0.014656
     14 C                    -0.363222
     15 O                    -0.360621
     16 C                     0.637513
     17 C                    -0.350340
     18 O                    -0.341823
     19 C                     0.467692
     20 C                    -0.437726
     21 O                    -0.285440
     22 H                     0.342442
     23 H                     0.247210
     24 H                     0.390950
     25 H                     0.330711
     26 H                     0.225499
     27 H                     0.243074
     28 H                     0.382646
     29 H                     0.341478
  ----------------------------------------
  Sum of atomic charges =     0.000000

                    Cartesian Multipole Moments
 -----------------------------------------------------------------
    Charge (ESU x 10^10)
                 0.0000
    Dipole Moment (Debye)
         X       1.5855      Y       1.2457      Z       0.1990
       Tot       2.0262
    Quadrupole Moments (Debye-Ang)
        XX     -60.7610     XY     -19.9364     YY    -140.1431
        XZ     -11.5949     YZ      -3.4661     ZZ    -120.9579

 Total job time:  83.14s(wall), 392.02s(cpu)
        *  Thank you very much for using Q-Chem.  Have a nice day.  *
