 Gaussian 16, Revision A.03,
 Gaussian 16:  ES64L-G16RevA.03 25-Dec-2016

 ----------------------------------------------------------------
 #P UB3LYP/6-311++G(d,p) SCRF=(PCM,Solvent=n,n-DiMethylFormamide)
 ----------------------------------------------------------------

 ------------------
 Quinone PCM in DMF
 ------------------
 Symbolic Z-matrix:
 Charge =  0 Multiplicity = 1

                         Standard orientation:
 ---------------------------------------------------------------------
 Center     Atomic      Atomic             Coordinates (Angstroms)
 Number     Number       Type             X           Y           Z
 ---------------------------------------------------------------------
      1          8           0       -4.689298   -0.814354    0.000161
      2          6           0       -3.474024   -0.186902    0.000072
      3          6           0       -3.315304    1.177861   -0.000028
      4          6           0       -2.025135    1.732371   -0.000108
      5          8           0       -1.937838    3.065664   -0.000099
      6          6           0       -0.896768    0.882802   -0.000114
      7          6           0        0.436743    1.495543   -0.000073
      8          8           0        0.548517    2.733805   -0.000003
      9          6           0        1.626931    0.621137   -0.000026
     10          6           0        2.928090    1.150508    0.000041
     11          8           0        3.135686    2.492014    0.000144
     12          6           0        4.029581    0.275339    0.000033
     13          6           0        3.865808   -1.089864    0.000039
     14          6           0        2.577410   -1.649898    0.000008
     15          8           0        2.491026   -2.985581   -0.000080
     16          6           0        1.453235   -0.794559   -0.000022
     17          6           0        0.112228   -1.408918   -0.000112
     18          8           0       -0.001770   -2.643948    0.000003
     19          6           0       -1.075684   -0.533251   -0.000049
     20          6           0       -2.366199   -1.071968    0.000041
     21          8           0       -2.609833   -2.399827    0.000070
     22          1           0       -5.409598   -0.175299    0.000045
     23          1           0       -4.167035    1.849221    0.000017
     24          1           0       -0.961748    3.273827   -0.000029
     25          1           0        4.084582    2.661138    0.000426
     26          1           0        5.031657    0.695322    0.000045
     27          1           0        4.716987   -1.759511    0.000014
     28          1           0        1.520798   -3.201159   -0.000271
     29          1           0       -3.569035   -2.526935   -0.000019
 ---------------------------------------------------------------------

 SCF Done:  E(UB3LYP) =  -1065.21949666     A.U. after   15 cycles

 The electronic state is 1-A.
 Alpha  occ. eigenvalues --  -19.19007 -19.17637 -19.17392 -19.15971 -19.15934
 Alpha  occ. eigenvalues --  -19.13394 -19.12943 -10.28894 -10.28519 -10.27386
 Alpha  occ. eigenvalues --  -10.26947 -10.26838 -10.26767 -10.26435 -10.21568
 Alpha  occ. eigenvalues --  -10.21334 -10.21170 -10.20659 -10.20613 -10.20160
 Alpha  occ. eigenvalues --  -10.20127  -1.11286  -1.09354  -1.09141  -1.08782
 Alpha  occ. eigenvalues --   -1.08119  -1.05716  -1.05358  -0.89366  -0.87795
 Alpha  occ. eigenvalues --   -0.81955  -0.78495  -0.77193  -0.76512  -0.70592
 Alpha  occ. eigenvalues --   -0.68546  -0.67497  -0.64100  -0.62755  -0.60722
 Alpha  occ. eigenvalues --   -0.58895  -0.57893  -0.56838  -0.53433  -0.52860
 Alpha  occ. eigenvalues --   -0.51441  -0.50211  -0.49218  -0.48379  -0.47954
 Alpha  occ. eigenvalues --   -0.46316  -0.45856  -0.45787  -0.45383  -0.44717
 Alpha  occ. eigenvalues --   -0.44021  -0.42759  -0.41846  -0.41438  -0.41257
 Alpha  occ. eigenvalues --   -0.40037  -0.39795  -0.39366  -0.39226  -0.38628
 Alpha  occ. eigenvalues --   -0.38155  -0.33650  -0.32828  -0.29126  -0.28891
 Alpha  occ. eigenvalues --   -0.27500  -0.27217  -0.24126  -0.22768
 Alpha virt. eigenvalues --   -0.11884  -0.06192  -0.04105  -0.01386  -0.00571
 Alpha virt. eigenvalues --   -0.00419   0.00620   0.01029   0.01475   0.02829
 Alpha virt. eigenvalues --    0.03161   0.03519   0.04002   0.04004   0.04759

  Beta  occ. eigenvalues --  -19.19007 -19.17637 -19.17392 -19.15971 -19.15934
  Beta  occ. eigenvalues --  -19.13394 -19.12943 -10.28894 -10.28519 -10.27386
  Beta  occ. eigenvalues --  -10.26947 -10.26838 -10.26767 -10.26435 -10.21568
  Beta  occ. eigenvalues --  -10.21334 -10.21170 -10.20659 -10.20613 -10.20160
  Beta  occ. eigenvalues --  -10.20127  -1.11286  -1.09354  -1.09141  -1.08782
  Beta  occ. eigenvalues --   -1.08119  -1.05716  -1.05358  -0.89366  -0.87795
  Beta  occ. eigenvalues --   -0.81955  -0.78495  -0.77193  -0.76512  -0.70592
  Beta  occ. eigenvalues --   -0.68546  -0.67497  -0.64100  -0.62755  -0.60722
  Beta  occ. eigenvalues --   -0.58895  -0.57893  -0.56838  -0.53433  -0.52860
  Beta  occ. eigenvalues --   -0.51441  -0.50211  -0.49218  -0.48379  -0.47954
  Beta  occ. eigenvalues --   -0.46316  -0.45856  -0.45787  -0.45383  -0.44717
  Beta  occ. eigenvalues --   -0.44021  -0.42759  -0.41846  -0.41438  -0.41257
  Beta  occ. eigenvalues --   -0.40037  -0.39795  -0.39366  -0.39226  -0.38628
  Beta  occ. eigenvalues --   -0.38155  -0.33650  -0.32828  -0.29126  -0.28891
  Beta  occ. eigenvalues --   -0.27500  -0.27217  -0.24126  -0.22768
  Beta virt. eigenvalues --   -0.11884  -0.06192  -0.04105  -0.01386  -0.00571
  Beta virt. eigenvalues --   -0.00419   0.00620   0.01029   0.01475   0.02829
  Beta virt. eigenvalues --    0.03161   0.03519   0.04002   0.04004   0.04759

 Mulliken charges and spin densities:
               1          2
     1  O   -0.292227  -0.000000
     2  C   -0.427343   0.000000
     3  C    0.328436   0.000000
     4  C   -0.296018  -0.000000
     5  O   -0.352803  -0.000000
     6  C    0.639681  -0.000000
     7  C   -0.333347   0.000000
     8  O   -0.346256  -0.000000
     9  C    0.249158  -0.000000
    10  C   -0.189493  -0.000000
    11  O   -0.236343   0.000000
    12  C   -0.112906   0.000000
    13  C    0.006437   0.000000
    14  C   -0.374493  -0.000000
    15  O   -0.346694  -0.000000
    16  C    0.633050   0.000000
    17  C   -0.361309  -0.000000
    18  O   -0.327155   0.000000
    19  C    0.486243   0.000000
    20  C   -0.439633  -0.000000
    21  O   -0.267963  -0.000000
    22  H    0.324271   0.000000
    23  H    0.222327   0.000000
    24  H    0.380194   0.000000
    25  H    0.310157  -0.000000
    26  H    0.198224  -0.000000
    27  H    0.227165  -0.000000
    28  H    0.371516   0.000000
    29  H    0.327122  -0.000000
 Sum of Mulliken charges =  -0.00000  -0.00000

 Dipole moment (field-independent basis, Debye):
    X=             -1.3254    Y=              1.3864    Z=             -0.0002  Tot=              1.9180
 Quadrupole moment (field-independent basis, Debye-Ang):
   XX=            -58.9191   YY=           -144.5834   ZZ=           -120.9858
   XY=              8.6511   XZ=              0.0035   YZ=              0.0039

 Normal termination of Gaussian 16 at Tue Jan 16 05:13:24 2024.
