 Q-Chem 5.4, Q-Chem, Inc., Pleasanton, CA (2021)
 Q-Chem 5.4.0 for Intel X86 EM64T Linux

User input:
--------------------------------------------------------------
$molecule
-1 2
O                 -0.1129530000     -2.4628750000      0.6096430000
C                 -0.0472750000     -1.2134190000      0.3933210000
C                 -1.2719410000     -0.4167170000      0.3178200000
C                 -2.5213880000     -1.0894830000      0.3765690000
C                 -3.7279020000     -0.4111590000      0.2799570000
C                 -3.7504690000      0.9762410000      0.1026410000
C                 -2.5324340000      1.6679950000      0.0340670000
C                 -1.3225560000      0.9917890000      0.1562190000
S                  0.1544320000      1.9890840000      0.2103560000
C                  1.4504870000      0.8029220000     -0.0930710000
C                  2.6992610000      1.3116120000     -0.4362260000
C                  3.8057940000      0.4615120000     -0.5768320000
C                  3.6285840000     -0.9122890000     -0.3817880000
C                  2.3782670000     -1.4232570000     -0.0642700000
C                  1.2403600000     -0.5878950000      0.0918500000
H                 -2.4831040000     -2.1642240000      0.5053360000
H                 -4.6610990000     -0.9650160000      0.3370160000
H                 -4.6884240000      1.5150370000      0.0191900000
H                 -2.5272330000      2.7451360000     -0.1054370000
H                  2.8144060000      2.3812890000     -0.5854750000
H                  4.7778430000      0.8702460000     -0.8319670000
H                  4.4738840000     -1.5873480000     -0.4848440000
H                  2.2192600000     -2.4845830000      0.0821250000
$end

$rem
BASIS  =  6-311++G(d,p)
GUI  =  2
JOB_TYPE  =  SP
METHOD  =  B3LYP
SCF_CONVERGENCE  = 8
SOLVENT_METHOD = sm12
$end

$smx
solvent dimethylformamide
charges CM5
$end

--------------------------------------------------------------

             Standard Nuclear Orientation (Angstroms)
    I     Atom           X                Y                Z
 ----------------------------------------------------------------
    1      O      -0.1129530000    -2.4628750000     0.6096430000
    2      C      -0.0472750000    -1.2134190000     0.3933210000
    3      C      -1.2719410000    -0.4167170000     0.3178200000
    4      C      -2.5213880000    -1.0894830000     0.3765690000
    5      C      -3.7279020000    -0.4111590000     0.2799570000
    6      C      -3.7504690000     0.9762410000     0.1026410000
    7      C      -2.5324340000     1.6679950000     0.0340670000
    8      C      -1.3225560000     0.9917890000     0.1562190000
    9      S       0.1544320000     1.9890840000     0.2103560000
   10      C       1.4504870000     0.8029220000    -0.0930710000
   11      C       2.6992610000     1.3116120000    -0.4362260000
   12      C       3.8057940000     0.4615120000    -0.5768320000
   13      C       3.6285840000    -0.9122890000    -0.3817880000
   14      C       2.3782670000    -1.4232570000    -0.0642700000
   15      C       1.2403600000    -0.5878950000     0.0918500000
   16      H      -2.4831040000    -2.1642240000     0.5053360000
   17      H      -4.6610990000    -0.9650160000     0.3370160000
   18      H      -4.6884240000     1.5150370000     0.0191900000
   19      H      -2.5272330000     2.7451360000    -0.1054370000
   20      H       2.8144060000     2.3812890000    -0.5854750000
   21      H       4.7778430000     0.8702460000    -0.8319670000
   22      H       4.4738840000    -1.5873480000    -0.4848440000
   23      H       2.2192600000    -2.4845830000     0.0821250000
 ----------------------------------------------------------------

   18    -973.8294896199      8.88e-09  Convergence criterion met
 Total energy in the final basis set =     -973.9191690458

                    Orbital Energies (a.u.)
 --------------------------------------------------------------

 Alpha MOs
 -- Occupied --
-88.8677 -19.0560 -10.2145 -10.2145 -10.2096 -10.1831 -10.1831 -10.1818
-10.1818 -10.1795 -10.1794 -10.1789 -10.1788 -10.1717 -10.1716  -7.9533
 -5.9168  -5.9132  -5.9081  -0.9806  -0.8788  -0.8610  -0.8075  -0.7663
 -0.7580  -0.7501  -0.7058  -0.6527  -0.6206  -0.6015  -0.5882  -0.5492
 -0.5317  -0.4875  -0.4701  -0.4678  -0.4625  -0.4371  -0.4300  -0.4171
 -0.4166  -0.3986  -0.3914  -0.3782  -0.3675  -0.3601  -0.3533  -0.3414
 -0.3282  -0.3146  -0.2719  -0.2619  -0.2589  -0.2303  -0.2202  -0.1189

 Beta MOs
 -- Occupied --
-88.8676 -19.0501 -10.2133 -10.2133 -10.2061 -10.1834 -10.1833 -10.1822
-10.1822 -10.1802 -10.1801 -10.1768 -10.1767 -10.1697 -10.1696  -7.9532
 -5.9168  -5.9132  -5.9075  -0.9698  -0.8764  -0.8589  -0.8055  -0.7621
 -0.7558  -0.7478  -0.7041  -0.6463  -0.6185  -0.5998  -0.5855  -0.5461
 -0.5305  -0.4852  -0.4688  -0.4657  -0.4617  -0.4360  -0.4292  -0.4156
 -0.4073  -0.3946  -0.3896  -0.3729  -0.3643  -0.3588  -0.3402  -0.3335
 -0.3259  -0.3099  -0.2663  -0.2540  -0.2427  -0.2250  -0.2127

          Ground-State Mulliken Net Atomic Charges

     Atom                 Charge (a.u.)    Spin (a.u.)
  --------------------------------------------------------
      1 O                    -0.413256       0.231376
      2 C                    -1.990864       0.227051
      3 C                    -0.765335       0.000999
      4 C                    -0.682479       0.205120
      5 C                     0.497899      -0.066920
      6 C                     0.739609       0.173424
      7 C                     0.607929      -0.039529
      8 C                    -0.568319       0.000604
      9 S                    -0.284219       0.035777
     10 C                    -0.568781       0.000132
     11 C                     0.614451      -0.039845
     12 C                     0.744167       0.173053
     13 C                     0.499862      -0.066860
     14 C                    -0.680963       0.204832
     15 C                    -0.754983       0.000195
     16 H                     0.105694      -0.012136
     17 H                     0.296992       0.004118
     18 H                     0.350722      -0.011768
     19 H                     0.248690       0.000073
     20 H                     0.248872       0.000093
     21 H                     0.351325      -0.011776
     22 H                     0.297408       0.004119
     23 H                     0.105579      -0.012132
  --------------------------------------------------------
  Sum of atomic charges =    -1.000000

                    Cartesian Multipole Moments
 -----------------------------------------------------------------
    Charge (ESU x 10^10)
                -4.8032
    Dipole Moment (Debye)
         X       0.1734      Y       4.6160      Z      -1.7057
       Tot       4.9241
    Quadrupole Moments (Debye-Ang)
        XX    -108.7684     XY      -0.2002     YY    -115.3317
        XZ       0.4078     YZ       2.6780     ZZ    -106.2971

 Total job time:  468.26s(wall), 3308.57s(cpu)
        *  Thank you very much for using Q-Chem.  Have a nice day.  *
