 Q-Chem 5.4, Q-Chem, Inc., Pleasanton, CA (2021)
 Q-Chem 5.4.0 for Intel X86 EM64T Linux

User input:
--------------------------------------------------------------
$molecule
-3 2
C                 -1.6861420000      2.9402020000     -0.7223270000
C                 -2.8241080000      2.2277420000     -0.4109430000
C                 -2.7162350000      0.8880800000      0.0082870000
C                 -0.3996630000      2.3657870000     -0.6343140000
C                 -0.2825550000      1.0032830000     -0.2085600000
C                 -1.4706230000      0.2857640000      0.1081040000
C                  0.7582980000      3.2098380000     -0.9890510000
C                  2.1016740000      2.5872560000     -0.8899530000
C                  2.1482740000      1.2075620000     -0.4532910000
C                  1.0586740000      0.4457980000     -0.1299260000
O                  0.6067070000      4.4050800000     -1.3587620000
O                  3.1594900000      3.2235600000     -1.1710320000
H                 -1.7416630000      3.9736710000     -1.0477960000
H                 -3.8059220000      2.6823060000     -0.4835720000
S                 -4.2880610000      0.0315500000      0.3988260000
H                 -1.4029260000     -0.7447910000      0.4314820000
H                  3.1316820000      0.7574760000     -0.3823590000
S                  1.3944830000     -1.2872290000      0.3977580000
O                  2.8817840000     -1.4440270000      0.3381250000
O                  0.6870180000     -2.1578550000     -0.5854010000
O                  0.8617840000     -1.4018380000      1.7863560000
O                 -4.9098060000      0.8425220000      1.4948680000
O                 -3.9448370000     -1.3546970000      0.8093510000
O                 -5.0905540000      0.0989000000     -0.8649490000
$end
$rem
MAX_SCF_CYCLES=200
BASIS  =  6-311++G(d,p)
GUI  =  2
JOB_TYPE  =  SP
METHOD  =  B3LYP
SOLVENT_METHOD = COSMO
$end
$solvent
dielectric 37.219
opticaldielectric 1.43
$end

--------------------------------------------------------------

             Standard Nuclear Orientation (Angstroms)
    I     Atom           X                Y                Z
 ----------------------------------------------------------------
    1      C      -0.5849923324    -2.4821495834     0.0004693753
    2      C      -1.8321149064    -1.8954545009     0.0006423049
    3      C      -1.9434433157    -0.4919978269     0.0006130023
    4      C       0.5997996573    -1.7146894913     0.0002546255
    5      C       0.4939315758    -0.2863373465     0.0002968245
    6      C      -0.8038027573     0.2988982725     0.0005153799
    7      C       1.8882486637    -2.4351290776    -0.0000055773
    8      C       3.1217347747    -1.6101443349    -0.0001669899
    9      C       2.9429683547    -0.1733272479    -0.0003135502
   10      C       1.7358874714     0.4709033888     0.0000068935
   11      O       1.9325458381    -3.6946159651    -0.0001894202
   12      O       4.2767716976    -2.1285577996    -0.0004134601
   13      H      -0.4715834350    -3.5611348691     0.0004963747
   14      H      -2.7336498168    -2.4980295891     0.0010903436
   15      S      -3.6453610191     0.1864391883    -0.0002073142
   16      H      -0.9046062538     1.3764132050     0.0007345163
   17      H       3.8468349951     0.4247739593    -0.0006182267
   18      S       1.7869270221     2.3126405125     0.0000572632
   19      O       3.2393743243     2.6740301013    -0.0005522069
   20      O       1.0909177295     2.7404480992     1.2481156395
   21      O       1.0898095817     2.7405624467    -1.2473472203
   22      O      -4.2795347140    -0.3583885828    -1.2438056899
   23      O      -3.5297001661     1.6678585820     0.0055704105
   24      O      -4.2841036227    -0.3676783104     1.2369749569
 ----------------------------------------------------------------

    9   -1781.8398286637      7.64e-06  Convergence criterion met
 Total energy in the final basis set =    -1781.8398286637
    4   -1782.3555846930      7.61e-06  Convergence criterion met
 Total energy in the final basis set =    -1782.3555846930

                    Orbital Energies (a.u.)
 --------------------------------------------------------------

 Alpha MOs
 -- Occupied --
-89.0479 -89.0467 -19.0946 -19.0912 -19.0912 -19.0909 -19.0909 -19.0906
-19.0876 -19.0851 -10.2286 -10.2242 -10.2010 -10.1995 -10.1970 -10.1834
-10.1810 -10.1776 -10.1737 -10.1689  -8.1066  -8.1053  -6.0694  -6.0693
 -6.0682  -6.0681  -6.0679  -6.0669  -1.1076  -1.1068  -1.0178  -0.9902
 -0.9749  -0.9717  -0.9700  -0.9677  -0.8713  -0.8178  -0.7651  -0.7401
 -0.7044  -0.6437  -0.6225  -0.6129  -0.5742  -0.5528  -0.5169  -0.5064
 -0.4940  -0.4724  -0.4598  -0.4548  -0.4539  -0.4509  -0.4487  -0.4286
 -0.4250  -0.4243  -0.4210  -0.3921  -0.3814  -0.3792  -0.3559  -0.3547
 -0.3385  -0.3358  -0.3358  -0.3328  -0.3291  -0.3018  -0.2979  -0.2974
 -0.2942  -0.2906  -0.2843  -0.2655  -0.2613  -0.2578  -0.2562  -0.2347
 -0.2345  -0.1685

 Beta MOs
 -- Occupied --
-89.0479 -89.0468 -19.0946 -19.0910 -19.0909 -19.0909 -19.0908 -19.0906
-19.0816 -19.0785 -10.2270 -10.2225 -10.1988 -10.1988 -10.1964 -10.1836
-10.1807 -10.1775 -10.1733 -10.1690  -8.1066  -8.1053  -6.0694  -6.0693
 -6.0682  -6.0681  -6.0680  -6.0670  -1.1075  -1.1067  -1.0069  -0.9782
 -0.9748  -0.9713  -0.9699  -0.9677  -0.8692  -0.8143  -0.7626  -0.7385
 -0.6965  -0.6416  -0.6212  -0.6094  -0.5728  -0.5503  -0.5155  -0.5050
 -0.4920  -0.4712  -0.4590  -0.4545  -0.4532  -0.4502  -0.4472  -0.4282
 -0.4225  -0.4153  -0.4074  -0.3900  -0.3791  -0.3674  -0.3536  -0.3378
 -0.3357  -0.3356  -0.3333  -0.3324  -0.3178  -0.2979  -0.2978  -0.2964
 -0.2936  -0.2895  -0.2780  -0.2595  -0.2577  -0.2575  -0.2523  -0.2288
 -0.2256

          Ground-State Mulliken Net Atomic Charges

     Atom                 Charge (a.u.)    Spin (a.u.)
  --------------------------------------------------------
      1 C                    -0.146937       0.050566
      2 C                    -0.529576       0.012414
      3 C                    -0.101238       0.042878
      4 C                     1.110097       0.050401
      5 C                     0.062963       0.039846
      6 C                    -0.346186      -0.008884
      7 C                    -0.919107       0.095340
      8 C                     0.191382       0.172173
      9 C                     0.267482      -0.045983
     10 C                    -1.171178       0.119820
     11 O                    -0.490244       0.228185
     12 O                    -0.535027       0.239868
     13 H                     0.180035      -0.003927
     14 H                     0.254401      -0.001526
     15 S                     0.655158       0.000503
     16 H                     0.220124       0.001106
     17 H                     0.255905      -0.001507
     18 S                     0.571358      -0.001909
     19 O                    -0.392798       0.000295
     20 O                    -0.424600       0.004927
     21 O                    -0.424500       0.004926
     22 O                    -0.430676       0.000073
     23 O                    -0.425577       0.000360
     24 O                    -0.431261       0.000055
  --------------------------------------------------------
  Sum of atomic charges =    -3.000000

                    Cartesian Multipole Moments
 -----------------------------------------------------------------
    Charge (ESU x 10^10)
               -14.4096
    Dipole Moment (Debye)
         X      -1.0232      Y      -4.6043      Z       0.0053
       Tot       4.7166
    Quadrupole Moments (Debye-Ang)
        XX    -307.6596     XY      19.0829     YY    -228.0754
        XZ      -0.0063     YZ      -0.0084     ZZ    -154.0018

 Total job time:  72.16s(wall), 543.50s(cpu)
        *  Thank you very much for using Q-Chem.  Have a nice day.  *
