 Gaussian 16, Revision A.03,
 Gaussian 16:  ES64L-G16RevA.03 25-Dec-2016

 --------------------------------------
 #P UB3LYP/6-311++G(d,p) nosym opt freq
 --------------------------------------

 -------
 Radical
 -------
 Symbolic Z-matrix:
 Charge = -3 Multiplicity = 2

 SCF Done:  E(UB3LYP) =  -1781.83991865     A.U. after   25 cycles
 Optimization completed.
    -- Stationary point found.
 Normal termination of Gaussian 16 at Sat Jan 27 01:09:54 2024.

 ----------------------------------------------------------------------
 #P Geom=AllCheck Guess=TCheck SCRF=Check GenChk UB3LYP/6-311++G(d,p) F
 req
 ----------------------------------------------------------------------

 Structure from the checkpoint file:  "327-rad.chk"
 -------
 Radical
 -------
 Charge = -3 Multiplicity = 2

                          Input orientation:
 ---------------------------------------------------------------------
 Center     Atomic      Atomic             Coordinates (Angstroms)
 Number     Number       Type             X           Y           Z
 ---------------------------------------------------------------------
      1          6           0       -1.686142    2.940202   -0.722327
      2          6           0       -2.824108    2.227742   -0.410943
      3          6           0       -2.716235    0.888080    0.008287
      4          6           0       -0.399663    2.365787   -0.634314
      5          6           0       -0.282555    1.003283   -0.208560
      6          6           0       -1.470623    0.285764    0.108104
      7          6           0        0.758298    3.209838   -0.989051
      8          6           0        2.101674    2.587256   -0.889953
      9          6           0        2.148274    1.207562   -0.453291
     10          6           0        1.058674    0.445798   -0.129926
     11          8           0        0.606707    4.405080   -1.358762
     12          8           0        3.159490    3.223560   -1.171032
     13          1           0       -1.741663    3.973671   -1.047796
     14          1           0       -3.805922    2.682306   -0.483572
     15         16           0       -4.288061    0.031550    0.398826
     16          1           0       -1.402926   -0.744791    0.431482
     17          1           0        3.131682    0.757476   -0.382359
     18         16           0        1.394483   -1.287229    0.397758
     19          8           0        2.881784   -1.444027    0.338125
     20          8           0        0.687018   -2.157855   -0.585401
     21          8           0        0.861784   -1.401838    1.786356
     22          8           0       -4.909806    0.842522    1.494868
     23          8           0       -3.944837   -1.354697    0.809351
     24          8           0       -5.090554    0.098900   -0.864949
 ---------------------------------------------------------------------

 SCF Done:  E(UB3LYP) =  -1781.83991865     A.U. after    1 cycles

 Alpha  occ. eigenvalues --  -88.71180 -88.70562 -18.76259 -18.75844 -18.75548
 Alpha  occ. eigenvalues --  -18.75548 -18.75547 -18.75079 -18.74810 -18.74809
 Alpha  occ. eigenvalues --   -9.90348  -9.89851  -9.87426  -9.87323  -9.87279
 Alpha  occ. eigenvalues --   -9.86307  -9.85972  -9.85923  -9.85772  -9.84342
 Alpha  occ. eigenvalues --   -7.77035  -7.76406  -5.73304  -5.73299  -5.73217
 Alpha  occ. eigenvalues --   -5.72684  -5.72657  -5.72593  -0.77000  -0.76409
 Alpha  occ. eigenvalues --   -0.69134  -0.66324  -0.63575  -0.63088  -0.62783
 Alpha  occ. eigenvalues --   -0.62723  -0.54876  -0.49364  -0.44268  -0.41724
 Alpha  occ. eigenvalues --   -0.37844  -0.31466  -0.30085  -0.28107  -0.24941
 Alpha  occ. eigenvalues --   -0.22111  -0.19203  -0.17663  -0.16212  -0.14584
 Alpha  occ. eigenvalues --   -0.12916  -0.11766  -0.11552  -0.11372  -0.11032
 Alpha  occ. eigenvalues --   -0.10434  -0.09921  -0.09854  -0.09354  -0.06883
 Alpha  occ. eigenvalues --   -0.05583  -0.05490  -0.03270  -0.02920  -0.00384
 Alpha  occ. eigenvalues --    0.00238   0.00520   0.00839   0.01167   0.03224
 Alpha  occ. eigenvalues --    0.03932   0.04135   0.04159   0.04874   0.05312
 Alpha  occ. eigenvalues --    0.06361   0.06500   0.08159   0.08804   0.08953
 Alpha  occ. eigenvalues --    0.09379   0.15697
 Alpha virt. eigenvalues --    0.25155   0.27371   0.27849   0.27885   0.30240
 Alpha virt. eigenvalues --    0.30859   0.31303   0.32575   0.32739   0.33304
 Alpha virt. eigenvalues --    0.33701   0.34081   0.34240   0.34770   0.35629

  Beta  occ. eigenvalues --  -88.71182 -88.70566 -18.75635 -18.75546 -18.75542
  Beta  occ. eigenvalues --  -18.75541 -18.75171 -18.75081 -18.74785 -18.74785
  Beta  occ. eigenvalues --   -9.90187  -9.89706  -9.87343  -9.87220  -9.87098
  Beta  occ. eigenvalues --   -9.86301  -9.85938  -9.85889  -9.85794  -9.84360
  Beta  occ. eigenvalues --   -7.77037  -7.76410  -5.73305  -5.73300  -5.73221
  Beta  occ. eigenvalues --   -5.72687  -5.72660  -5.72602  -0.76994  -0.76390
  Beta  occ. eigenvalues --   -0.68027  -0.65098  -0.63570  -0.63077  -0.62771
  Beta  occ. eigenvalues --   -0.62673  -0.54674  -0.49005  -0.44031  -0.41570
  Beta  occ. eigenvalues --   -0.37036  -0.31247  -0.29939  -0.27769  -0.24829
  Beta  occ. eigenvalues --   -0.21870  -0.19062  -0.17499  -0.16042  -0.14483
  Beta  occ. eigenvalues --   -0.12787  -0.11724  -0.11406  -0.11281  -0.10862
  Beta  occ. eigenvalues --   -0.10406  -0.09776  -0.08773  -0.08333  -0.06647
  Beta  occ. eigenvalues --   -0.05337  -0.04302  -0.03136  -0.00683   0.00241
  Beta  occ. eigenvalues --    0.00252   0.00770   0.01203   0.01421   0.03771
  Beta  occ. eigenvalues --    0.04052   0.04140   0.04247   0.05005   0.05649
  Beta  occ. eigenvalues --    0.06936   0.07181   0.08177   0.08837   0.09923
  Beta  occ. eigenvalues --    0.09954
  Beta virt. eigenvalues --    0.22382   0.25147   0.27384   0.27877   0.28662
  Beta virt. eigenvalues --    0.30863   0.31333   0.31508   0.32686   0.32751
  Beta virt. eigenvalues --    0.33321   0.33878   0.34109   0.34585   0.35432

 Mulliken charges and spin densities:
               1          2
     1  C   -0.126852   0.057955
     2  C   -0.505590  -0.000382
     3  C   -0.077304   0.054832
     4  C    1.158467   0.061820
     5  C    0.056730   0.049473
     6  C   -0.331570  -0.015610
     7  C   -0.992258   0.087676
     8  C   -0.177016   0.150177
     9  C    0.411220  -0.044348
    10  C   -1.096275   0.111372
    11  O   -0.417093   0.237976
    12  O   -0.442712   0.246289
    13  H    0.112265  -0.005265
    14  H    0.160530  -0.000996
    15  S    0.526196  -0.002091
    16  H    0.220574   0.001369
    17  H    0.223447  -0.002228
    18  S    0.435281  -0.002847
    19  O   -0.329416   0.000339
    20  O   -0.347976   0.005878
    21  O   -0.347914   0.005875
    22  O   -0.377120   0.001064
    23  O   -0.357495   0.000631
    24  O   -0.378118   0.001043
 Sum of Mulliken charges =  -3.00000   1.00000

 Dipole moment (field-independent basis, Debye):
    X=              9.2780    Y=             -7.4975    Z=              0.3919  Tot=             11.9351
 Quadrupole moment (field-independent basis, Debye-Ang):
   XX=           -307.8152   YY=           -232.5256   ZZ=           -164.0562
   XY=            -16.8889   XZ=             17.5877   YZ=             25.3859

  Exact polarizability: 302.421  17.243 237.123 -18.239 -35.291 143.078
 Approx polarizability: 451.346  28.747 371.076 -26.787 -52.397 232.107

                      1                      2                      3
                      A                      A                      A
 Frequencies --      9.6878                30.3747                45.8119
 Red. masses --     14.8076                13.7827                11.2006
 Frc consts  --      0.0008                 0.0075                 0.0138
 IR Inten    --      0.3065                 0.0001                 1.9757

                      4                      5                      6
                      A                      A                      A
 Frequencies --     80.6875                85.4585               105.4659
 Red. masses --     11.2934                17.1023                 7.6386
 Frc consts  --      0.0433                 0.0736                 0.0501
 IR Inten    --      6.7440                 0.0787                 2.8481

                      7                      8                      9
                      A                      A                      A
 Frequencies --    156.3099               157.1503               199.9017
 Red. masses --      6.7959                11.1923                16.6896
 Frc consts  --      0.0978                 0.1629                 0.3929
 IR Inten    --      1.3783                 5.4635                 0.0390

                     10                     11                     12
                      A                      A                      A
 Frequencies --    215.9383               246.4255               255.5054
 Red. masses --      7.1208                14.3262                 9.6074
 Frc consts  --      0.1956                 0.5126                 0.3695
 IR Inten    --      0.0295                 2.4368                 2.9962

                     13                     14                     15
                      A                      A                      A
 Frequencies --    264.8707               319.9177               326.9888
 Red. masses --     13.2646                13.1757                 7.5450
 Frc consts  --      0.5483                 0.7945                 0.4753
 IR Inten    --      0.4005                 2.4922                 0.5792

                     16                     17                     18
                      A                      A                      A
 Frequencies --    367.8246               381.5550               424.6509
 Red. masses --     13.9640                 7.5223                 3.9301
 Frc consts  --      1.1131                 0.6452                 0.4176
 IR Inten    --      0.5030                 8.1586                 0.0745

                     19                     20                     21
                      A                      A                      A
 Frequencies --    441.3382               466.1187               489.9069
 Red. masses --      9.0527                 9.8118                10.3672
 Frc consts  --      1.0389                 1.2560                 1.4660
 IR Inten    --      0.0074                46.1315                35.1123

                     22                     23                     24
                      A                      A                      A
 Frequencies --    495.7501               496.7651               522.1522
 Red. masses --     14.0888                10.7674                 8.6728
 Frc consts  --      2.0401                 1.5655                 1.3932
 IR Inten    --      1.4497                17.3489                18.9253

                     25                     26                     27
                      A                      A                      A
 Frequencies --    528.0021               549.5360               588.3992
 Red. masses --     11.3802                 4.8857                11.2752
 Frc consts  --      1.8693                 0.8693                 2.2999
 IR Inten    --     10.6246                 5.1891               106.6812

                     28                     29                     30
                      A                      A                      A
 Frequencies --    615.8039               638.1837               647.5966
 Red. masses --     16.0669                 9.2139                 6.6546
 Frc consts  --      3.5898                 2.2110                 1.6443
 IR Inten    --    141.1411               122.6181                13.3081

                     31                     32                     33
                      A                      A                      A
 Frequencies --    694.5761               715.1936               725.3557
 Red. masses --      7.2431                 5.6299                 7.0757
 Frc consts  --      2.0588                 1.6967                 2.1934
 IR Inten    --     35.2678                 0.6094                 0.6460

                     34                     35                     36
                      A                      A                      A
 Frequencies --    772.2034               812.3769               816.2365
 Red. masses --      3.4951                 8.5108                 1.8401
 Frc consts  --      1.2279                 3.3093                 0.7223
 IR Inten    --      8.0879                 1.5683                 9.3661

                     37                     38                     39
                      A                      A                      A
 Frequencies --    900.2309               920.6942               922.5712
 Red. masses --      1.3310                 6.8777                 1.3453
 Frc consts  --      0.6355                 3.4350                 0.6746
 IR Inten    --     11.2661                51.4717                 2.7815

                     40                     41                     42
                      A                      A                      A
 Frequencies --    961.1120               962.1327               985.5358
 Red. masses --     13.6241                 1.3107                 7.3413
 Frc consts  --      7.4149                 0.7149                 4.2011
 IR Inten    --    323.8502                 3.6648               202.4860

                     43                     44                     45
                      A                      A                      A
 Frequencies --    992.7605              1089.9766              1107.1455
 Red. masses --      9.1060                 2.3343                20.2260
 Frc consts  --      5.2877                 1.6340                14.6073
 IR Inten    --     33.6010               104.7997               307.5248

                     46                     47                     48
                      A                      A                      A
 Frequencies --   1121.1291              1128.6226              1140.5373
 Red. masses --     16.5796                 1.8651                19.3523
 Frc consts  --     12.2782                 1.3997                14.8320
 IR Inten    --    202.5520                55.7860               351.7771

                     49                     50                     51
                      A                      A                      A
 Frequencies --   1154.7847              1166.4136              1218.3371
 Red. masses --      7.0135                 3.6011                 2.7784
 Frc consts  --      5.5104                 2.8866                 2.4299
 IR Inten    --    229.1504                48.0048                 9.0056

                     52                     53                     54
                      A                      A                      A
 Frequencies --   1232.4501              1279.1703              1315.0959
 Red. masses --      2.3532                 1.8685                 4.9908
 Frc consts  --      2.1059                 1.8014                 5.0855
 IR Inten    --     15.0266                 3.4323                 3.4822

                     55                     56                     57
                      A                      A                      A
 Frequencies --   1349.5071              1403.5806              1467.9435
 Red. masses --      2.8847                 4.3519                 3.1799
 Frc consts  --      3.0952                 5.0513                 4.0372
 IR Inten    --      9.5202                22.4444               156.8824

                     58                     59                     60
                      A                      A                      A
 Frequencies --   1495.0120              1499.6333              1564.1230
 Red. masses --      5.8356                 7.6495                 7.3903
 Frc consts  --      7.6847                10.1357                10.6526
 IR Inten    --    253.3337               286.8267               123.0586

                     61                     62                     63
                      A                      A                      A
 Frequencies --   1575.1086              1609.2057              3154.5022
 Red. masses --      7.3832                 5.9673                 1.0850
 Frc consts  --     10.7923                 9.1044                 6.3615
 IR Inten    --    187.7108                20.0651                 1.3897

                     64                     65                     66
                      A                      A                      A
 Frequencies --   3174.1949              3180.4491              3210.2101
 Red. masses --      1.0935                 1.0880                 1.0905
 Frc consts  --      6.4915                 6.4842                 6.6211
 IR Inten    --     33.7362                 4.7016                 4.4303

 - Thermochemistry -
 -------------------
 Temperature   298.150 Kelvin.  Pressure   1.00000 Atm.
 Atom     1 has atomic number  6 and mass  12.00000

 Molecular mass:   315.93476 amu.
 Principal axes and moments of inertia in atomic units:
                           1         2         3
     Eigenvalues --  4459.853468563.48569**********
           X            0.98416  -0.16266   0.07047
           Y            0.13423   0.94347   0.30305
           Z           -0.11578  -0.28879   0.95036
 This molecule is an asymmetric top.
 Rotational symmetry number  1.
 Warning -- assumption of classical behavior for rotation
           may cause significant error
 Rotational temperatures (Kelvin)      0.01942     0.01011     0.00703
 Rotational constants (GHZ):           0.40466     0.21075     0.14654
 Zero-point vibrational energy     352732.0 (Joules/Mol)
                                   84.30498 (Kcal/Mol)
 Warning -- explicit consideration of  28 degrees of freedom as
           vibrations may cause significant error
 Vibrational temperatures:     13.94    43.70    65.91   116.09   122.96
          (Kelvin)            151.74   224.90   226.10   287.61   310.69
                              354.55   367.62   381.09   460.29   470.46
                              529.22   548.97   610.98   634.99   670.64
                              704.87   713.27   714.73   751.26   759.68
                              790.66   846.58   886.00   918.20   931.75
                              999.34  1029.00  1043.63  1111.03  1168.83
                             1174.38  1295.23  1324.67  1327.37  1382.83
                             1384.29  1417.97  1428.36  1568.23  1592.94
                             1613.05  1623.84  1640.98  1661.48  1678.21
                             1752.92  1773.22  1840.44  1892.13  1941.64
                             2019.44  2112.04  2150.99  2157.64  2250.42
                             2266.23  2315.29  4538.63  4566.96  4575.96
                             4618.78

 Zero-point correction=                           0.134349 (Hartree/Particle)
 Thermal correction to Energy=                    0.151149
 Thermal correction to Enthalpy=                  0.152093
 Thermal correction to Gibbs Free Energy=         0.086158
 Sum of electronic and zero-point Energies=          -1781.705570
 Sum of electronic and thermal Energies=             -1781.688769
 Sum of electronic and thermal Enthalpies=           -1781.687825
 Sum of electronic and thermal Free Energies=        -1781.753761

                     E (Thermal)             CV                S
                      KCal/Mol        Cal/Mol-Kelvin    Cal/Mol-Kelvin
 Total                   94.848             62.710            138.773
 Electronic               0.000              0.000              1.377
 Translational            0.889              2.981             43.147
 Rotational               0.889              2.981             34.508
 Vibrational             93.070             56.748             59.741
 Vibration     1          0.593              1.987              8.074
 Vibration     2          0.594              1.984              5.805
 Vibration     3          0.595              1.979              4.990
 Vibration     4          0.600              1.962              3.874
 Vibration     5          0.601              1.959              3.761
 Vibration     6          0.605              1.945              3.351
 Vibration     7          0.620              1.896              2.594
 Vibration     8          0.621              1.895              2.584
 Vibration     9          0.638              1.840              2.134
 Vibration    10          0.645              1.817              1.993
 Vibration    11          0.661              1.769              1.756
 Vibration    12          0.666              1.753              1.692
 Vibration    13          0.671              1.737              1.629
 Vibration    14          0.706              1.635              1.311
 Vibration    15          0.711              1.622              1.275
 Vibration    16          0.740              1.538              1.089
 Vibration    17          0.751              1.510              1.033
 Vibration    18          0.787              1.417              0.876
 Vibration    19          0.801              1.380              0.822
 Vibration    20          0.823              1.325              0.749
 Vibration    21          0.846              1.272              0.684
 Vibration    22          0.851              1.259              0.669
 Vibration    23          0.852              1.257              0.666
 Vibration    24          0.877              1.201              0.605
 Vibration    25          0.883              1.188              0.592
 Vibration    26          0.905              1.141              0.545
 Vibration    27          0.946              1.057              0.470
 Vibration    28          0.975              0.998              0.423

 Optimization completed.
    -- Stationary point found.
 Normal termination of Gaussian 16 at Sat Jan 27 01:44:17 2024.
