 Q-Chem 5.4, Q-Chem, Inc., Pleasanton, CA (2021)
 Q-Chem 5.4.0 for Intel X86 EM64T Linux

User input:
--------------------------------------------------------------
$molecule
0 1
C                 -0.2162390000      1.7106610000      4.8902230000
C                  1.0275190000      1.1263400000      4.3397260000
C                  1.4329540000      1.2395880000      3.0610440000
C                  0.5227040000      1.9940070000      2.1241300000
C                 -0.7513320000      2.5231450000      2.6480140000
C                 -1.1402710000      2.4103460000      3.9357070000
O                 -0.4501790000      1.6239450000      6.0840270000
O                  0.7942040000      2.1621370000      0.9433090000
S                 -2.5956470000      3.2501240000      4.4818130000
C                 -3.4352220000      2.1119570000      5.7021970000
C                 -4.6396760000      2.8945220000      6.2284840000
C                 -3.8345150000      0.7874880000      5.0578690000
C                  2.7432870000      0.6488920000      2.5347360000
C                  3.5176440000     -0.0829990000      3.6464500000
C                  3.6437840000      1.7857770000      1.9886750000
C                  2.4403600000     -0.3704670000      1.4075020000
H                  1.6114920000      0.6032570000      5.0860700000
H                 -1.3688800000      3.0223880000      1.9098750000
H                 -2.7192530000      1.9453560000      6.5033460000
H                 -4.3363210000      3.8267110000      6.7100360000
H                 -5.1671010000      2.2879260000      6.9701600000
H                 -5.3456210000      3.1324590000      5.4272330000
H                 -2.9674390000      0.2383200000      4.6851630000
H                 -4.5246360000      0.9447050000      4.2244720000
H                 -4.3321320000      0.1549550000      5.8007780000
H                  2.9491880000     -0.9206090000      4.0603100000
H                  3.7920370000      0.5872160000      4.4658360000
H                  4.4429580000     -0.4882940000      3.2299980000
H                  3.8674640000      2.5158280000      2.7722010000
H                  3.1753870000      2.3025200000      1.1526490000
H                  4.5923950000      1.3625000000      1.6458580000
H                  1.8041320000     -1.1809370000      1.7755410000
H                  3.3777720000     -0.8139820000      1.0595730000
H                  1.9483240000      0.1028840000      0.5594330000
$end
$rem
MAX_SCF_CYCLES=200
BASIS  =  6-311++G(d,p)
GUI  =  2
JOB_TYPE  =  SP
METHOD  =  B3LYP
SOLVENT_METHOD = COSMO
$end
$solvent
dielectric 37.219
opticaldielectric 1.43
$end

--------------------------------------------------------------

             Standard Nuclear Orientation (Angstroms)
    I     Atom           X                Y                Z
 ----------------------------------------------------------------
    1      C       0.4890080496    -0.9116106298    -0.4554679439
    2      C      -0.9664690810    -1.1073071126    -0.2691854984
    3      C      -1.8562734745    -0.1202839148    -0.0540956236
    4      C      -1.3071916762     1.2819521962     0.0339611837
    5      C       0.1503170199     1.4803141351    -0.0840648289
    6      C       1.0298678082     0.4814733633    -0.3095818924
    7      O       1.1985034147    -1.8645748087    -0.7309514812
    8      O      -2.0250890695     2.2544814172     0.2213869767
    9      S       2.7252303714     0.8688647011    -0.6214342365
   10      C       3.7335266396    -0.4613804217     0.2172754611
   11      C       5.1892416541    -0.1576250461    -0.1415028717
   12      C       3.4954758435    -0.4856810167     1.7244426393
   13      C      -3.3603583760    -0.3578255805     0.1014582646
   14      C      -3.7092815173    -1.8531146433    -0.0150083723
   15      C      -4.1247258777     0.4033152859    -1.0111925656
   16      C      -3.8255645462     0.1382795027     1.4939298064
   17      H      -1.2636050376    -2.1452528603    -0.3469576275
   18      H       0.4748107037     2.5091177557     0.0242183560
   19      H       3.4268961793    -1.4027831827    -0.2321083666
   20      H       5.3497633849    -0.1697879510    -1.2217703174
   21      H       5.8362824086    -0.9185143631     0.3041481533
   22      H       5.5033287377     0.8167919478     0.2442902721
   23      H       2.4534597541    -0.7022720745     1.9685877349
   24      H       3.7633168051     0.4700464513     2.1831156878
   25      H       4.1112800742    -1.2690364754     2.1791665466
   26      H      -3.2235379432    -2.4502623459     0.7618317895
   27      H      -3.4342654515    -2.2645820803    -0.9901667151
   28      H      -4.7884640833    -1.9783121832     0.1015800880
   29      H      -3.8078742479     0.0655446092    -2.0023717686
   30      H      -3.9689204946     1.4786174200    -0.9418488338
   31      H      -5.1957804321     0.2023059218    -0.9163921411
   32      H      -3.2949877488    -0.3885886816     2.2926779350
   33      H      -4.8937436347    -0.0655248247     1.6120764654
   34      H      -3.6643944742     1.2083681250     1.6135800114
 ----------------------------------------------------------------

    9   -1055.0516310866      5.00e-06  Convergence criterion met
 Total energy in the final basis set =    -1055.0516310866
    4   -1055.0634551915      8.59e-06  Convergence criterion met
 Total energy in the final basis set =    -1055.0634551915

                    Orbital Energies (a.u.)
 --------------------------------------------------------------

 Alpha MOs
 -- Occupied --
-88.8639 -19.1448 -19.1395 -10.2933 -10.2869 -10.2412 -10.2181 -10.2127
-10.2063 -10.2024 -10.2021 -10.1668 -10.1652 -10.1595 -10.1581 -10.1580
 -7.9501  -5.9139  -5.9100  -5.9044  -1.0777  -1.0711  -0.8744  -0.8449
 -0.8174  -0.7811  -0.7275  -0.6977  -0.6948  -0.6882  -0.6881  -0.6317
 -0.6110  -0.5747  -0.5532  -0.5281  -0.4985  -0.4869  -0.4735  -0.4623
 -0.4587  -0.4471  -0.4442  -0.4410  -0.4382  -0.4297  -0.4190  -0.4065
 -0.3951  -0.3873  -0.3826  -0.3769  -0.3678  -0.3604  -0.3566  -0.3550
 -0.3433  -0.3410  -0.3378  -0.3111  -0.2956  -0.2876  -0.2758  -0.2436

          Ground-State Mulliken Net Atomic Charges

     Atom                 Charge (a.u.)
  ----------------------------------------
      1 C                    -0.613918
      2 C                    -0.493020
      3 C                     1.175279
      4 C                    -0.869650
      5 C                    -0.540343
      6 C                     1.730090
      7 O                    -0.260022
      8 O                    -0.265537
      9 S                    -0.605563
     10 C                     0.230989
     11 C                    -0.681795
     12 C                    -0.705727
     13 C                     0.505399
     14 C                    -0.519144
     15 C                    -0.718336
     16 C                    -0.713326
     17 H                     0.266980
     18 H                     0.275493
     19 H                     0.276146
     20 H                     0.174996
     21 H                     0.167126
     22 H                     0.166233
     23 H                     0.152088
     24 H                     0.191499
     25 H                     0.155763
     26 H                     0.150683
     27 H                     0.150614
     28 H                     0.190528
     29 H                     0.156479
     30 H                     0.181167
     31 H                     0.176456
     32 H                     0.158228
     33 H                     0.174386
     34 H                     0.179759
  ----------------------------------------
  Sum of atomic charges =     0.000000

                    Cartesian Multipole Moments
 -----------------------------------------------------------------
    Charge (ESU x 10^10)
                -0.0000
    Dipole Moment (Debye)
         X       0.2458      Y      -2.1282      Z       1.5478
       Tot       2.6430
    Quadrupole Moments (Debye-Ang)
        XX     -92.4952     XY       7.9652     YY    -116.0153
        XZ       5.7112     YZ      -3.0232     ZZ    -106.5606

 Total job time:  77.16s(wall), 520.87s(cpu)
        *  Thank you very much for using Q-Chem.  Have a nice day.  *
