 Q-Chem 5.4, Q-Chem, Inc., Pleasanton, CA (2021)
 Q-Chem 5.4.0 for Intel X86 EM64T Linux

User input:
--------------------------------------------------------------
$molecule
-2 1
C                  1.0546970000      4.3268410000      4.9829140000
C                  1.6722920000      3.9687180000      3.7471820000
C                  1.6085160000      2.7045860000      3.1170730000
C                  0.8652500000      1.5914080000      3.7274390000
C                  0.2527760000      1.9498310000      4.9678250000
C                  0.3200250000      3.2106490000      5.5964790000
O                  1.1459520000      5.5141160000      5.4567290000
O                  0.7662490000      0.4148050000      3.2418260000
H                  2.2221320000      4.7671020000      3.2640760000
C                 -0.3970940000      3.3035560000      6.8686300000
O                 -1.1350600000      2.4482200000      7.3635500000
O                 -0.1906220000      4.4729330000      7.5728430000
C                 -0.8869230000      4.5693070000      8.7985060000
H                 -0.6294270000      5.5515890000      9.2042260000
H                 -0.5897760000      3.7844730000      9.5049290000
H                 -1.9722260000      4.4957140000      8.6605490000
C                  2.2875890000      2.5095920000      1.8430800000
O                  3.1045580000      3.6211730000      1.4873310000
O                  2.2569910000      1.5715580000      1.0640120000
C                  3.7448770000      3.5054630000      0.2365480000
H                 -0.3078500000      1.1635090000      5.4619700000
H                  4.3201600000      4.4273780000      0.1051760000
H                  3.0266450000      3.3990100000     -0.5861720000
H                  4.4190270000      2.6410080000      0.1963000000
$end
$rem
MAX_SCF_CYCLES=200
BASIS  =  6-311++G(d,p)
GUI  =  2
JOB_TYPE  =  SP
METHOD  =  B3LYP
SOLVENT_METHOD = COSMO
$end
$solvent
dielectric 37.219
opticaldielectric 1.43
$end

--------------------------------------------------------------

             Standard Nuclear Orientation (Angstroms)
    I     Atom           X                Y                Z
 ----------------------------------------------------------------
    1      C       0.7219222397    -1.1117796462    -0.0768576905
    2      C      -0.7003268085    -0.9951654018    -0.0590249703
    3      C      -1.4391004937     0.2096390814    -0.0166688287
    4      C      -0.7589013135     1.5133767298     0.0252057459
    5      C       0.6651472616     1.3946232677     0.0137102024
    6      C       1.4005055461     0.1916671879    -0.0254710702
    7      O       1.2983666174    -2.2541731516    -0.1482650645
    8      O      -1.3403232922     2.6486426536     0.0812018911
    9      H      -1.2354344094    -1.9360808107    -0.0973719780
   10      C       2.8543029745     0.3581786825    -0.0229221221
   11      O       3.4753020784     1.4198566246    -0.1142422000
   12      O       3.5769424480    -0.8098152484     0.1169763156
   13      C       4.9812329719    -0.6538534901     0.1128684748
   14      H       5.3876066685    -1.6645163082     0.2088472370
   15      H       5.3298685428    -0.0310638313     0.9458633618
   16      H       5.3401539518    -0.1943023540    -0.8157429342
   17      C      -2.8947454922     0.1520729657    -0.0188469030
   18      O      -3.3859472121    -1.1776331527     0.1233168278
   19      O      -3.7229792697     1.0412279074    -0.1247868428
   20      C      -4.7901331391    -1.2953235452     0.0757122791
   21      H       1.2168680054     2.3281225112     0.0447982061
   22      H      -5.0079774057    -2.3619632785     0.1895540750
   23      H      -5.2022254855    -0.9345918883    -0.8751348249
   24      H      -5.2791733082    -0.7310640935     0.8793487362
 ----------------------------------------------------------------

   12    -837.4521175509      4.07e-06  Convergence criterion met
 Total energy in the final basis set =     -837.4521175509
    5    -837.7476880881      9.84e-06  Convergence criterion met
 Total energy in the final basis set =     -837.7476880881

                    Orbital Energies (a.u.)
 --------------------------------------------------------------

 Alpha MOs
 -- Occupied --
-19.1496 -19.1426 -19.1001 -19.0966 -19.0355 -19.0328 -10.2875 -10.2866
-10.2059 -10.2041 -10.1985 -10.1980 -10.1616 -10.1613 -10.1403 -10.1401
 -1.0885  -1.0803  -0.9997  -0.9986  -0.9567  -0.9520  -0.8053  -0.7610
 -0.7154  -0.6901  -0.6664  -0.6255  -0.5655  -0.5556  -0.5374  -0.4966
 -0.4784  -0.4716  -0.4683  -0.4633  -0.4566  -0.4342  -0.4231  -0.4161
 -0.3968  -0.3918  -0.3866  -0.3775  -0.3643  -0.3572  -0.3504  -0.3450
 -0.3331  -0.3327  -0.2941  -0.2915  -0.2765  -0.2734  -0.2466  -0.2392
 -0.2109  -0.2064  -0.1416

          Ground-State Mulliken Net Atomic Charges

     Atom                 Charge (a.u.)
  ----------------------------------------
      1 C                    -0.752891
      2 C                    -0.273714
      3 C                     0.519315
      4 C                    -0.512733
      5 C                    -0.524719
      6 C                     0.704868
      7 O                    -0.698104
      8 O                    -0.686270
      9 H                     0.185484
     10 C                     0.180924
     11 O                    -0.414688
     12 O                    -0.139025
     13 C                    -0.255056
     14 H                     0.164932
     15 H                     0.179845
     16 H                     0.182688
     17 C                     0.298529
     18 O                    -0.195282
     19 O                    -0.383213
     20 C                    -0.255296
     21 H                     0.166878
     22 H                     0.155261
     23 H                     0.177473
     24 H                     0.174793
  ----------------------------------------
  Sum of atomic charges =    -2.000000

                    Cartesian Multipole Moments
 -----------------------------------------------------------------
    Charge (ESU x 10^10)
                -9.6064
    Dipole Moment (Debye)
         X       0.9508      Y      -5.6737      Z       0.5580
       Tot       5.7798
    Quadrupole Moments (Debye-Ang)
        XX    -127.4343     XY      22.6802     YY    -152.8805
        XZ       1.3095     YZ      -0.6755     ZZ     -97.9858

 Total job time:  43.75s(wall), 325.69s(cpu)
        *  Thank you very much for using Q-Chem.  Have a nice day.  *
