 Q-Chem 5.4, Q-Chem, Inc., Pleasanton, CA (2021)
 Q-Chem 5.4.0 for Intel X86 EM64T Linux

User input:
--------------------------------------------------------------
$molecule
-3 2
C                 -1.6861420000      2.9402020000     -0.7223270000
C                 -2.8241080000      2.2277420000     -0.4109430000
C                 -2.7162350000      0.8880800000      0.0082870000
C                 -0.3996630000      2.3657870000     -0.6343140000
C                 -0.2825550000      1.0032830000     -0.2085600000
C                 -1.4706230000      0.2857640000      0.1081040000
C                  0.7582980000      3.2098380000     -0.9890510000
C                  2.1016740000      2.5872560000     -0.8899530000
C                  2.1482740000      1.2075620000     -0.4532910000
C                  1.0586740000      0.4457980000     -0.1299260000
O                  0.6067070000      4.4050800000     -1.3587620000
O                  3.1594900000      3.2235600000     -1.1710320000
H                 -1.7416630000      3.9736710000     -1.0477960000
H                 -3.8059220000      2.6823060000     -0.4835720000
S                 -4.2880610000      0.0315500000      0.3988260000
H                 -1.4029260000     -0.7447910000      0.4314820000
H                  3.1316820000      0.7574760000     -0.3823590000
S                  1.3944830000     -1.2872290000      0.3977580000
O                  2.8817840000     -1.4440270000      0.3381250000
O                  0.6870180000     -2.1578550000     -0.5854010000
O                  0.8617840000     -1.4018380000      1.7863560000
O                 -4.9098060000      0.8425220000      1.4948680000
O                 -3.9448370000     -1.3546970000      0.8093510000
O                 -5.0905540000      0.0989000000     -0.8649490000
$end
$rem
MAX_SCF_CYCLES=200
BASIS  =  6-311++G(d,p)
GUI  =  2
JOB_TYPE  =  SP
METHOD  =  B3LYP
SOLVENT_METHOD = PCM
$end
$pcm
theory = CPCM
$end
$solvent
dielectric 37.219
opticaldielectric 1.43
$end

--------------------------------------------------------------

             Standard Nuclear Orientation (Angstroms)
    I     Atom           X                Y                Z
 ----------------------------------------------------------------
    1      C      -1.6861420000     2.9402020000    -0.7223270000
    2      C      -2.8241080000     2.2277420000    -0.4109430000
    3      C      -2.7162350000     0.8880800000     0.0082870000
    4      C      -0.3996630000     2.3657870000    -0.6343140000
    5      C      -0.2825550000     1.0032830000    -0.2085600000
    6      C      -1.4706230000     0.2857640000     0.1081040000
    7      C       0.7582980000     3.2098380000    -0.9890510000
    8      C       2.1016740000     2.5872560000    -0.8899530000
    9      C       2.1482740000     1.2075620000    -0.4532910000
   10      C       1.0586740000     0.4457980000    -0.1299260000
   11      O       0.6067070000     4.4050800000    -1.3587620000
   12      O       3.1594900000     3.2235600000    -1.1710320000
   13      H      -1.7416630000     3.9736710000    -1.0477960000
   14      H      -3.8059220000     2.6823060000    -0.4835720000
   15      S      -4.2880610000     0.0315500000     0.3988260000
   16      H      -1.4029260000    -0.7447910000     0.4314820000
   17      H       3.1316820000     0.7574760000    -0.3823590000
   18      S       1.3944830000    -1.2872290000     0.3977580000
   19      O       2.8817840000    -1.4440270000     0.3381250000
   20      O       0.6870180000    -2.1578550000    -0.5854010000
   21      O       0.8617840000    -1.4018380000     1.7863560000
   22      O      -4.9098060000     0.8425220000     1.4948680000
   23      O      -3.9448370000    -1.3546970000     0.8093510000
   24      O      -5.0905540000     0.0989000000    -0.8649490000
 ----------------------------------------------------------------

    9   -1782.3468231296      5.58e-06  Convergence criterion met
 Total energy in the final basis set =    -1782.3468231296

                    Orbital Energies (a.u.)
 --------------------------------------------------------------

 Alpha MOs
 -- Occupied --
-89.0439 -89.0428 -19.0908 -19.0877 -19.0877 -19.0870 -19.0869 -19.0869
-19.0847 -19.0820 -10.2263 -10.2216 -10.1988 -10.1975 -10.1959 -10.1826
-10.1791 -10.1766 -10.1726 -10.1668  -8.1025  -8.1014  -6.0653  -6.0652
 -6.0642  -6.0642  -6.0641  -6.0631  -1.1036  -1.1032  -1.0149  -0.9871
 -0.9709  -0.9681  -0.9661  -0.9635  -0.8699  -0.8161  -0.7636  -0.7387
 -0.7023  -0.6412  -0.6211  -0.6100  -0.5721  -0.5499  -0.5146  -0.5040
 -0.4910  -0.4703  -0.4569  -0.4504  -0.4498  -0.4470  -0.4451  -0.4275
 -0.4227  -0.4221  -0.4176  -0.3902  -0.3792  -0.3774  -0.3532  -0.3530
 -0.3346  -0.3315  -0.3314  -0.3291  -0.3260  -0.2982  -0.2942  -0.2939
 -0.2905  -0.2871  -0.2812  -0.2622  -0.2593  -0.2533  -0.2524  -0.2330
 -0.2315  -0.1659

 Beta MOs
 -- Occupied --
-89.0439 -89.0429 -19.0908 -19.0875 -19.0875 -19.0870 -19.0869 -19.0869
-19.0787 -19.0755 -10.2247 -10.2200 -10.1969 -10.1966 -10.1953 -10.1827
-10.1788 -10.1764 -10.1723 -10.1670  -8.1025  -8.1015  -6.0653  -6.0652
 -6.0643  -6.0642  -6.0641  -6.0632  -1.1036  -1.1030  -1.0041  -0.9751
 -0.9708  -0.9676  -0.9660  -0.9634  -0.8679  -0.8126  -0.7612  -0.7371
 -0.6944  -0.6391  -0.6197  -0.6065  -0.5708  -0.5475  -0.5133  -0.5027
 -0.4890  -0.4691  -0.4559  -0.4500  -0.4492  -0.4464  -0.4438  -0.4272
 -0.4202  -0.4120  -0.4056  -0.3881  -0.3767  -0.3655  -0.3521  -0.3342
 -0.3315  -0.3312  -0.3302  -0.3287  -0.3146  -0.2941  -0.2941  -0.2928
 -0.2900  -0.2861  -0.2752  -0.2564  -0.2540  -0.2532  -0.2501  -0.2259
 -0.2237

          Ground-State Mulliken Net Atomic Charges

     Atom                 Charge (a.u.)    Spin (a.u.)
  --------------------------------------------------------
      1 C                    -0.141753       0.048081
      2 C                    -0.532402       0.014962
      3 C                    -0.108558       0.040425
      4 C                     1.108262       0.053526
      5 C                     0.056620       0.038683
      6 C                    -0.356082      -0.006230
      7 C                    -0.917846       0.093732
      8 C                     0.163605       0.168641
      9 C                     0.266913      -0.044611
     10 C                    -1.154261       0.120284
     11 O                    -0.479591       0.227894
     12 O                    -0.519952       0.241581
     13 H                     0.173897      -0.003758
     14 H                     0.250018      -0.001834
     15 S                     0.631477       0.000718
     16 H                     0.213572       0.000822
     17 H                     0.250230      -0.001630
     18 S                     0.546414      -0.002155
     19 O                    -0.377442       0.000311
     20 O                    -0.412760       0.005036
     21 O                    -0.414223       0.005083
     22 O                    -0.414984       0.000051
     23 O                    -0.414501       0.000355
     24 O                    -0.416652       0.000033
  --------------------------------------------------------
  Sum of atomic charges =    -3.000000

                    Cartesian Multipole Moments
 -----------------------------------------------------------------
    Charge (ESU x 10^10)
               -14.4096
    Dipole Moment (Debye)
         X       8.8068      Y      -5.4408      Z      -0.2297
       Tot      10.3545
    Quadrupole Moments (Debye-Ang)
        XX    -303.1194     XY     -22.4413     YY    -227.2462
        XZ      19.0302     YZ      24.5382     ZZ    -163.2160

 Total job time:  56.73s(wall), 422.31s(cpu)
        *  Thank you very much for using Q-Chem.  Have a nice day.  *
