 Gaussian 16, Revision A.03,
 Gaussian 16:  ES64L-G16RevA.03 25-Dec-2016

 ----------------------------------------------------------------
 #P UB3LYP/6-311++G(d,p) SCRF=(PCM,Solvent=n,n-DiMethylFormamide)
 ----------------------------------------------------------------

 ------------------
 Radical PCM in DMF
 ------------------
 Symbolic Z-matrix:
 Charge = -1 Multiplicity = 2

                         Standard orientation:
 ---------------------------------------------------------------------
 Center     Atomic      Atomic             Coordinates (Angstroms)
 Number     Number       Type             X           Y           Z
 ---------------------------------------------------------------------
      1          7           0        1.313562   -2.828302    0.129710
      2          6           0        1.105400   -1.481930    0.049885
      3          6           0        2.168524   -0.578871    0.009961
      4         35           0        3.988866   -1.242266   -0.009038
      5          6           0        1.987023    0.802335   -0.017491
      6          6           0        0.711162    1.325018    0.008958
      7         35           0        0.684345    3.262580   -0.047054
      8          6           0       -0.441307    0.495870    0.042909
      9          6           0       -1.803378    1.052032    0.086519
     10          8           0       -2.037554    2.276237    0.166431
     11          6           0       -2.917165    0.099012    0.032985
     12          6           0       -4.238902    0.594123    0.034126
     13          6           0       -5.319169   -0.263921   -0.020193
     14          6           0       -5.108017   -1.657995   -0.074900
     15          6           0       -3.822488   -2.160560   -0.074260
     16          6           0       -2.706107   -1.296375   -0.020376
     17          6           0       -1.362274   -1.863761   -0.012106
     18          8           0       -1.228611   -3.126951   -0.056132
     19          6           0       -0.234575   -0.937897    0.035323
     20          1           0        0.469237   -3.392460    0.000654
     21          1           0        2.231974   -3.177892   -0.086995
     22          1           0        2.843709    1.459469   -0.056683
     23          1           0       -4.368334    1.668823    0.077870
     24          1           0       -6.330174    0.132168   -0.020753
     25          1           0       -5.956743   -2.334072   -0.116346
     26          1           0       -3.630007   -3.225690   -0.112924
 ---------------------------------------------------------------------

 SCF Done:  E(UB3LYP) =  -5891.55029569     A.U. after   19 cycles

 The electronic state is 2-A.
 Alpha  occ. eigenvalues -- -482.83598-482.82161 -62.48878 -62.47436 -56.30901
 Alpha  occ. eigenvalues --  -56.30532 -56.30523 -56.29474 -56.29100 -56.29058
 Alpha  occ. eigenvalues --  -19.08392 -19.07737 -14.31406 -10.23546 -10.23438
 Alpha  occ. eigenvalues --  -10.23162 -10.22635 -10.22533 -10.19416 -10.19064
 Alpha  occ. eigenvalues --  -10.18998 -10.17602 -10.17562 -10.17522 -10.17513
 Alpha  occ. eigenvalues --  -10.17232 -10.17185  -8.69843  -8.68404  -6.52936
 Alpha  occ. eigenvalues --   -6.51709  -6.51699  -6.51542  -6.50301  -6.50182
 Alpha  occ. eigenvalues --   -2.64036  -2.63684  -2.63676  -2.62702  -2.62700
 Alpha  occ. eigenvalues --   -2.62634  -2.62303  -2.62215  -2.61224  -2.61223
 Alpha  occ. eigenvalues --   -1.01280  -1.00980  -0.93125  -0.86941  -0.85878
 Alpha  occ. eigenvalues --   -0.81835  -0.80074  -0.76756  -0.75335  -0.73882
 Alpha  occ. eigenvalues --   -0.72060  -0.67091  -0.64048  -0.62806  -0.58711
 Alpha  occ. eigenvalues --   -0.56469  -0.55702  -0.52534  -0.51552  -0.48726
 Alpha  occ. eigenvalues --   -0.47661  -0.45699  -0.45341  -0.44803  -0.43521
 Alpha  occ. eigenvalues --   -0.42628  -0.41871  -0.41622  -0.40450  -0.39884
 Alpha  occ. eigenvalues --   -0.38939  -0.38581  -0.36894  -0.35531  -0.35363
 Alpha  occ. eigenvalues --   -0.34207  -0.34036  -0.31712  -0.30230  -0.29249
 Alpha  occ. eigenvalues --   -0.29019  -0.26760  -0.25869  -0.25253  -0.25171
 Alpha  occ. eigenvalues --   -0.23202  -0.21724  -0.14489
 Alpha virt. eigenvalues --   -0.05376  -0.03169  -0.02940  -0.00577  -0.00393
 Alpha virt. eigenvalues --   -0.00221   0.00454   0.01422   0.02175   0.02499
 Alpha virt. eigenvalues --    0.03655   0.03752   0.04479   0.04560   0.04671

  Beta  occ. eigenvalues -- -482.83598-482.82159 -62.48878 -62.47435 -56.30902
  Beta  occ. eigenvalues --  -56.30528 -56.30523 -56.29474 -56.29095 -56.29058
  Beta  occ. eigenvalues --  -19.07893 -19.07173 -14.31390 -10.23555 -10.23246
  Beta  occ. eigenvalues --  -10.23020 -10.22599 -10.22388 -10.19297 -10.19008
  Beta  occ. eigenvalues --  -10.18966 -10.17548 -10.17526 -10.17478 -10.17458
  Beta  occ. eigenvalues --  -10.17225 -10.17184  -8.69842  -8.68401  -6.52939
  Beta  occ. eigenvalues --   -6.51705  -6.51695  -6.51542  -6.50291  -6.50181
  Beta  occ. eigenvalues --   -2.64037  -2.63684  -2.63675  -2.62699  -2.62696
  Beta  occ. eigenvalues --   -2.62633  -2.62298  -2.62215  -2.61219  -2.61218
  Beta  occ. eigenvalues --   -1.00409  -1.00015  -0.93017  -0.86722  -0.85733
  Beta  occ. eigenvalues --   -0.81667  -0.79853  -0.76600  -0.75142  -0.73722
  Beta  occ. eigenvalues --   -0.71802  -0.66481  -0.63838  -0.62576  -0.58616
  Beta  occ. eigenvalues --   -0.56277  -0.55529  -0.52370  -0.51438  -0.48502
  Beta  occ. eigenvalues --   -0.47432  -0.45588  -0.45232  -0.44715  -0.42618
  Beta  occ. eigenvalues --   -0.42550  -0.41748  -0.41067  -0.40184  -0.39136
  Beta  occ. eigenvalues --   -0.38475  -0.37139  -0.36794  -0.35388  -0.34579
  Beta  occ. eigenvalues --   -0.33982  -0.33347  -0.31340  -0.30217  -0.29133
  Beta  occ. eigenvalues --   -0.28467  -0.25287  -0.25105  -0.24795  -0.24699
  Beta  occ. eigenvalues --   -0.22760  -0.20926
  Beta virt. eigenvalues --   -0.08857  -0.04386  -0.02933  -0.02014  -0.00477
  Beta virt. eigenvalues --   -0.00248  -0.00091   0.00459   0.01440   0.02192
  Beta virt. eigenvalues --    0.02514   0.03766   0.03873   0.04515   0.04677

 Mulliken charges and spin densities:
               1          2
     1  N   -0.348586   0.009545
     2  C   -0.252021  -0.000576
     3  C    0.108683   0.083163
     4  Br  -0.197674   0.002787
     5  C   -0.114545   0.047004
     6  C    0.194680   0.044293
     7  Br  -0.192872   0.004259
     8  C    0.659178   0.095470
     9  C   -0.888858   0.072694
    10  O   -0.353113   0.207205
    11  C    0.018710   0.024370
    12  C    0.099827   0.023089
    13  C   -0.522685   0.029082
    14  C   -0.566083   0.024016
    15  C    0.099811   0.029092
    16  C   -0.007063  -0.002147
    17  C   -0.408510   0.109449
    18  O   -0.438970   0.182574
    19  C    0.524236   0.028992
    20  H    0.335206  -0.002138
    21  H    0.252200  -0.000851
    22  H    0.288278  -0.003802
    23  H    0.174164  -0.001677
    24  H    0.182508  -0.002478
    25  H    0.182547  -0.002214
    26  H    0.170951  -0.001203
 Sum of Mulliken charges =  -1.00000   1.00000

 Dipole moment (field-independent basis, Debye):
    X=              4.4382    Y=             -1.7359    Z=             -0.7888  Tot=              4.8305
 Quadrupole moment (field-independent basis, Debye-Ang):
   XX=           -148.5758   YY=           -168.0404   ZZ=           -142.6633
   XY=              1.0595   XZ=             -0.2846   YZ=              0.7738

 Normal termination of Gaussian 16 at Sun Jan 14 01:18:24 2024.
