 Q-Chem 5.4, Q-Chem, Inc., Pleasanton, CA (2021)
 Q-Chem 5.4.0 for Intel X86 EM64T Linux

User input:
--------------------------------------------------------------
$molecule
0 1
C                  2.6587340000      1.4080970000      0.9043670000
C                  2.3854050000      0.5201810000     -0.3303020000
C                  3.6533730000     -0.2288960000     -0.7564730000
C                  1.2020780000     -0.3872910000     -0.0672130000
C                  1.2966880000     -1.6889320000      0.2548120000
C                  0.1109190000     -2.5198300000      0.5442590000
O                  0.2223730000     -3.7015340000      0.8410270000
C                 -1.2155880000     -1.8745680000      0.4686280000
C                 -1.3803580000     -0.5809910000      0.1391660000
C                 -2.7583640000      0.0502520000      0.0649790000
C                 -2.9377660000      1.1961460000      1.0803730000
C                 -3.1246430000      0.4976200000     -1.3643280000
C                 -0.1624600000      0.2429440000     -0.1710790000
O                 -0.2688420000      1.4092700000     -0.5157630000
H                  3.4711970000      2.1073590000      0.6889990000
H                  2.9553830000      0.7967340000      1.7619670000
H                  1.7785280000      1.9908870000      1.1801110000
H                  2.0854250000      1.1887120000     -1.1432330000
H                  4.4326390000      0.4886290000     -1.0253760000
H                  3.4728400000     -0.8698950000     -1.6233460000
H                  4.0516370000     -0.8514280000      0.0503890000
H                  2.2478750000     -2.2038710000      0.3253330000
H                 -2.0600520000     -2.5177600000      0.6961600000
H                 -3.4577220000     -0.7454020000      0.3456850000
H                 -2.3031840000      2.0475150000      0.8321230000
H                 -3.9787350000      1.5314510000      1.0751050000
H                 -2.6981090000      0.8672580000      2.0953560000
H                 -4.1663020000      0.8300750000     -1.3890170000
H                 -3.0197000000     -0.3260510000     -2.0757990000
H                 -2.4932690000      1.3233170000     -1.6937660000
$end

$rem
BASIS  =  6-311++G(d,p)
GUI  =  2
JOB_TYPE  =  SP
METHOD  =  B3LYP
SCF_CONVERGENCE  = 8
SOLVENT_METHOD = sm12
$end

$smx
solvent dimethylformamide
charges CM5
$end

--------------------------------------------------------------

             Standard Nuclear Orientation (Angstroms)
    I     Atom           X                Y                Z
 ----------------------------------------------------------------
    1      C       2.6587340000     1.4080970000     0.9043670000
    2      C       2.3854050000     0.5201810000    -0.3303020000
    3      C       3.6533730000    -0.2288960000    -0.7564730000
    4      C       1.2020780000    -0.3872910000    -0.0672130000
    5      C       1.2966880000    -1.6889320000     0.2548120000
    6      C       0.1109190000    -2.5198300000     0.5442590000
    7      O       0.2223730000    -3.7015340000     0.8410270000
    8      C      -1.2155880000    -1.8745680000     0.4686280000
    9      C      -1.3803580000    -0.5809910000     0.1391660000
   10      C      -2.7583640000     0.0502520000     0.0649790000
   11      C      -2.9377660000     1.1961460000     1.0803730000
   12      C      -3.1246430000     0.4976200000    -1.3643280000
   13      C      -0.1624600000     0.2429440000    -0.1710790000
   14      O      -0.2688420000     1.4092700000    -0.5157630000
   15      H       3.4711970000     2.1073590000     0.6889990000
   16      H       2.9553830000     0.7967340000     1.7619670000
   17      H       1.7785280000     1.9908870000     1.1801110000
   18      H       2.0854250000     1.1887120000    -1.1432330000
   19      H       4.4326390000     0.4886290000    -1.0253760000
   20      H       3.4728400000    -0.8698950000    -1.6233460000
   21      H       4.0516370000    -0.8514280000     0.0503890000
   22      H       2.2478750000    -2.2038710000     0.3253330000
   23      H      -2.0600520000    -2.5177600000     0.6961600000
   24      H      -3.4577220000    -0.7454020000     0.3456850000
   25      H      -2.3031840000     2.0475150000     0.8321230000
   26      H      -3.9787350000     1.5314510000     1.0751050000
   27      H      -2.6981090000     0.8672580000     2.0953560000
   28      H      -4.1663020000     0.8300750000    -1.3890170000
   29      H      -3.0197000000    -0.3260510000    -2.0757990000
   30      H      -2.4932690000     1.3233170000    -1.6937660000
 ----------------------------------------------------------------

   15    -617.5176494175      2.27e-09  Convergence criterion met
 Total energy in the final basis set =     -617.5298481973

                    Orbital Energies (a.u.)
 --------------------------------------------------------------

 Alpha MOs
 -- Occupied --
-19.1387 -19.1316 -10.2844 -10.2768 -10.2143 -10.2139 -10.2002 -10.1992
-10.1919 -10.1897 -10.1639 -10.1617 -10.1608 -10.1606  -1.0711  -1.0606
 -0.8676  -0.8349  -0.7918  -0.7562  -0.7013  -0.6890  -0.6882  -0.6466
 -0.6241  -0.5731  -0.5639  -0.5270  -0.5015  -0.4751  -0.4679  -0.4539
 -0.4501  -0.4444  -0.4403  -0.4251  -0.4191  -0.4143  -0.4136  -0.4018
 -0.3865  -0.3831  -0.3621  -0.3579  -0.3525  -0.3505  -0.3443  -0.3409
 -0.2999  -0.2839  -0.2819  -0.2696

          Ground-State Mulliken Net Atomic Charges

     Atom                 Charge (a.u.)
  ----------------------------------------
      1 C                    -0.677329
      2 C                     0.169819
      3 C                    -0.257705
      4 C                     1.231181
      5 C                    -0.100060
      6 C                    -1.007611
      7 O                    -0.351740
      8 C                    -0.331601
      9 C                     0.916411
     10 C                     0.626007
     11 C                    -0.644436
     12 C                    -0.638825
     13 C                    -1.518750
     14 O                    -0.231022
     15 H                     0.177005
     16 H                     0.147858
     17 H                     0.141036
     18 H                     0.175958
     19 H                     0.202874
     20 H                     0.145366
     21 H                     0.155414
     22 H                     0.257002
     23 H                     0.280510
     24 H                     0.246501
     25 H                     0.129346
     26 H                     0.177924
     27 H                     0.134207
     28 H                     0.179195
     29 H                     0.132838
     30 H                     0.132628
  ----------------------------------------
  Sum of atomic charges =     0.000000

                    Cartesian Multipole Moments
 -----------------------------------------------------------------
    Charge (ESU x 10^10)
                -0.0000
    Dipole Moment (Debye)
         X      -0.0509      Y       1.8226      Z      -0.3287
       Tot       1.8527
    Quadrupole Moments (Debye-Ang)
        XX     -73.6259     XY       2.8955     YY    -105.1596
        XZ      -1.4955     YZ       4.9142     ZZ     -86.8207

 Total job time:  606.41s(wall), 4762.14s(cpu)
        *  Thank you very much for using Q-Chem.  Have a nice day.  *
