 Q-Chem 5.4, Q-Chem, Inc., Pleasanton, CA (2021)
 Q-Chem 5.4.0 for Intel X86 EM64T Linux

User input:
--------------------------------------------------------------
$molecule
-2 1
C                 -0.2739730000      3.8292160000     -0.1158160000
C                 -1.4973120000      3.2379570000     -0.3635600000
C                 -1.5594260000      1.8812820000     -0.7685760000
C                  0.9397550000      3.1090410000     -0.2562370000
C                  0.8778010000      1.7282300000     -0.6706430000
C                 -0.3853600000      1.1579890000     -0.9143110000
C                  2.2029290000      3.7324340000      0.0069580000
C                  3.3567280000      2.9052200000     -0.1702690000
C                  3.3404840000      1.5710130000     -0.5637330000
C                  2.0884370000      0.9145470000     -0.8408170000
O                  2.3864200000      4.9600200000      0.3869030000
O                  2.0285100000     -0.3053390000     -1.2068060000
H                 -0.2027400000      4.8666120000      0.1953890000
H                 -2.4137910000      3.8133520000     -0.2485980000
H                 -2.5210690000      1.4128580000     -0.9645720000
H                 -0.3990270000      0.1179880000     -1.2249450000
O                  4.5335980000      3.5645720000      0.1001020000
C                  4.6181760000      0.7819360000     -0.6999410000
C                  5.1980150000      0.7643450000     -2.1296520000
C                  6.4853220000     -0.0619500000     -2.2475610000
C                  7.0994820000     -0.0827220000     -3.6540100000
C                  8.3896550000     -0.9075830000     -3.7560120000
H                  4.1778100000      4.4533660000      0.3463920000
H                  4.4077670000     -0.2533130000     -0.4074170000
H                  5.3756580000      1.1879040000     -0.0191240000
H                  5.3949320000      1.7957600000     -2.4470390000
H                  4.4355290000      0.3603220000     -2.8044340000
H                  6.2785100000     -1.0936920000     -1.9313220000
H                  7.2302250000      0.3286920000     -1.5394950000
H                  7.3044630000      0.9481040000     -3.9727840000
H                  6.3606690000     -0.4768470000     -4.3642620000
H                  8.1826530000     -1.9392870000     -3.4406550000
H                  9.1241990000     -0.5155460000     -3.0392880000
C                  9.0177420000     -0.9271690000     -5.1561190000
H                  9.2263140000      0.1029350000     -5.4741090000
H                  8.2886470000     -1.3224130000     -5.8757140000
C                 10.3092660000     -1.7509270000     -5.2454750000
C                 10.9414600000     -1.7660430000     -6.6407450000
H                 10.1008310000     -2.7817760000     -4.9308790000
H                 11.0365310000     -1.3585770000     -4.5227900000
H                 10.2590900000     -2.1916690000     -7.3855520000
H                 11.8605650000     -2.3614700000     -6.6669310000
H                 11.2027350000     -0.7547430000     -6.9732720000
$end
$rem
MAX_SCF_CYCLES=200
BASIS  =  6-311++G(d,p)
GUI  =  2
JOB_TYPE  =  SP
METHOD  =  B3LYP
SCF_ALGORITHM = DIIS_GDM
THRESH = 14
SOLVENT_METHOD = PCM
$end
$pcm
theory = CPCM
$end
$solvent
dielectric 37.219
opticaldielectric 1.43
$end

--------------------------------------------------------------

             Standard Nuclear Orientation (Angstroms)
    I     Atom           X                Y                Z
 ----------------------------------------------------------------
    1      C      -0.2739730000     3.8292160000    -0.1158160000
    2      C      -1.4973120000     3.2379570000    -0.3635600000
    3      C      -1.5594260000     1.8812820000    -0.7685760000
    4      C       0.9397550000     3.1090410000    -0.2562370000
    5      C       0.8778010000     1.7282300000    -0.6706430000
    6      C      -0.3853600000     1.1579890000    -0.9143110000
    7      C       2.2029290000     3.7324340000     0.0069580000
    8      C       3.3567280000     2.9052200000    -0.1702690000
    9      C       3.3404840000     1.5710130000    -0.5637330000
   10      C       2.0884370000     0.9145470000    -0.8408170000
   11      O       2.3864200000     4.9600200000     0.3869030000
   12      O       2.0285100000    -0.3053390000    -1.2068060000
   13      H      -0.2027400000     4.8666120000     0.1953890000
   14      H      -2.4137910000     3.8133520000    -0.2485980000
   15      H      -2.5210690000     1.4128580000    -0.9645720000
   16      H      -0.3990270000     0.1179880000    -1.2249450000
   17      O       4.5335980000     3.5645720000     0.1001020000
   18      C       4.6181760000     0.7819360000    -0.6999410000
   19      C       5.1980150000     0.7643450000    -2.1296520000
   20      C       6.4853220000    -0.0619500000    -2.2475610000
   21      C       7.0994820000    -0.0827220000    -3.6540100000
   22      C       8.3896550000    -0.9075830000    -3.7560120000
   23      H       4.1778100000     4.4533660000     0.3463920000
   24      H       4.4077670000    -0.2533130000    -0.4074170000
   25      H       5.3756580000     1.1879040000    -0.0191240000
   26      H       5.3949320000     1.7957600000    -2.4470390000
   27      H       4.4355290000     0.3603220000    -2.8044340000
   28      H       6.2785100000    -1.0936920000    -1.9313220000
   29      H       7.2302250000     0.3286920000    -1.5394950000
   30      H       7.3044630000     0.9481040000    -3.9727840000
   31      H       6.3606690000    -0.4768470000    -4.3642620000
   32      H       8.1826530000    -1.9392870000    -3.4406550000
   33      H       9.1241990000    -0.5155460000    -3.0392880000
   34      C       9.0177420000    -0.9271690000    -5.1561190000
   35      H       9.2263140000     0.1029350000    -5.4741090000
   36      H       8.2886470000    -1.3224130000    -5.8757140000
   37      C      10.3092660000    -1.7509270000    -5.2454750000
   38      C      10.9414600000    -1.7660430000    -6.6407450000
   39      H      10.1008310000    -2.7817760000    -4.9308790000
   40      H      11.0365310000    -1.3585770000    -4.5227900000
   41      H      10.2590900000    -2.1916690000    -7.3855520000
   42      H      11.8605650000    -2.3614700000    -6.6669310000
   43      H      11.2027350000    -0.7547430000    -6.9732720000
 ----------------------------------------------------------------

   16    -925.3710443430      3.66e-06  Convergence criterion met
 Total energy in the final basis set =     -925.3710443430

                    Orbital Energies (a.u.)
 --------------------------------------------------------------

 Alpha MOs
 -- Occupied --
-19.1120 -19.0272 -19.0200 -10.1756 -10.1731 -10.1614 -10.1562 -10.1531
-10.1524 -10.1511 -10.1502 -10.1489 -10.1472 -10.1450 -10.1441 -10.1436
-10.1426 -10.1403 -10.1354 -10.1314 -10.1232  -1.0264  -0.9432  -0.9335
 -0.8235  -0.8007  -0.7827  -0.7637  -0.7387  -0.7209  -0.7096  -0.6778
 -0.6421  -0.6221  -0.5925  -0.5802  -0.5679  -0.5642  -0.5522  -0.5342
 -0.5023  -0.4739  -0.4701  -0.4548  -0.4441  -0.4296  -0.4258  -0.4199
 -0.4124  -0.4111  -0.4002  -0.3917  -0.3899  -0.3792  -0.3729  -0.3693
 -0.3609  -0.3515  -0.3495  -0.3464  -0.3434  -0.3378  -0.3243  -0.3228
 -0.3177  -0.3147  -0.3120  -0.3099  -0.3079  -0.3026  -0.2979  -0.2911
 -0.2294  -0.2251  -0.2163  -0.1984  -0.1919  -0.1074

          Ground-State Mulliken Net Atomic Charges

     Atom                 Charge (a.u.)
  ----------------------------------------
      1 C                    -0.082967
      2 C                    -0.397674
      3 C                    -0.521769
      4 C                     0.474850
      5 C                    -0.119271
      6 C                     0.009341
      7 C                    -0.920659
      8 C                    -0.624380
      9 C                     1.942190
     10 C                    -0.650568
     11 O                    -0.753391
     12 O                    -0.674327
     13 H                     0.143151
     14 H                     0.170496
     15 H                     0.164308
     16 H                     0.143993
     17 O                    -0.350938
     18 C                    -0.363115
     19 C                    -0.692676
     20 C                    -0.112121
     21 C                    -0.039347
     22 C                    -0.121763
     23 H                     0.286800
     24 H                     0.169087
     25 H                     0.200425
     26 H                     0.156110
     27 H                     0.173940
     28 H                     0.115975
     29 H                     0.110355
     30 H                     0.128232
     31 H                     0.128112
     32 H                     0.132623
     33 H                     0.131194
     34 C                    -0.353465
     35 H                     0.128658
     36 H                     0.129079
     37 C                    -0.257093
     38 C                    -0.713031
     39 H                     0.135197
     40 H                     0.134702
     41 H                     0.145070
     42 H                     0.149679
     43 H                     0.144987
  ----------------------------------------
  Sum of atomic charges =    -2.000000

                    Cartesian Multipole Moments
 -----------------------------------------------------------------
    Charge (ESU x 10^10)
                -9.6064
    Dipole Moment (Debye)
         X     -19.9281      Y     -22.2674      Z       4.1886
       Tot      30.1746
    Quadrupole Moments (Debye-Ang)
        XX    -199.0681     XY     -47.8766     YY    -237.0716
        XZ       8.6525     YZ      -4.1248     ZZ    -148.7937

 Total job time:  296.40s(wall), 2029.21s(cpu)
        *  Thank you very much for using Q-Chem.  Have a nice day.  *
