 Gaussian 16, Revision A.03,
 Gaussian 16:  ES64L-G16RevA.03 25-Dec-2016

 ----------------------------------------------------------------------
 #P UB3LYP/6-311++G(d,p) nosym opt freq SCRF=(PCM,Solvent=n,n-DiMethylF
 ormamide)
 ----------------------------------------------------------------------

 --------
 Oxidized
 --------
 Symbolic Z-matrix:
 Charge =  0 Multiplicity = 1

 SCF Done:  E(UB3LYP) =  -765.440014170     A.U. after   14 cycles
 SCF Done:  E(UB3LYP) =  -765.440128226     A.U. after   11 cycles
 SCF Done:  E(UB3LYP) =  -765.440153591     A.U. after   12 cycles
 SCF Done:  E(UB3LYP) =  -765.440161011     A.U. after    9 cycles
 SCF Done:  E(UB3LYP) =  -765.440161429     A.U. after    8 cycles
 SCF Done:  E(UB3LYP) =  -765.440163094     A.U. after   10 cycles
 SCF Done:  E(UB3LYP) =  -765.440164713     A.U. after   10 cycles
 SCF Done:  E(UB3LYP) =  -765.440165964     A.U. after   10 cycles
 SCF Done:  E(UB3LYP) =  -765.440166979     A.U. after   10 cycles
 SCF Done:  E(UB3LYP) =  -765.440168424     A.U. after   11 cycles
 SCF Done:  E(UB3LYP) =  -765.440168675     A.U. after   10 cycles
 Optimization completed.
    -- Stationary point found.
 Normal termination of Gaussian 16 at Sun Feb 11 16:07:35 2024.

 ----------------------------------------------------------------------
 #P Geom=AllCheck Guess=TCheck SCRF=Check GenChk UB3LYP/6-311++G(d,p) F
 req
 ----------------------------------------------------------------------

 Structure from the checkpoint file:  "340.chk"
 --------
 Oxidized
 --------
 Charge =  0 Multiplicity = 1

                          Input orientation:
 ---------------------------------------------------------------------
 Center     Atomic      Atomic             Coordinates (Angstroms)
 Number     Number       Type             X           Y           Z
 ---------------------------------------------------------------------
      1          8           0        2.312555    2.776608   -0.207109
      2          6           0        2.379571    1.431033   -0.166114
      3          6           0        3.643356    0.840189   -0.172724
      4          6           0        3.756703   -0.543273   -0.129809
      5          6           0        2.624274   -1.357608   -0.082283
      6          6           0        1.353911   -0.790466   -0.076395
      7          6           0        0.144867   -1.686334   -0.055660
      8          6           0       -1.195608   -1.014350    0.071686
      9          6           0       -2.340058   -1.793714    0.206612
     10          6           0       -3.594607   -1.189199    0.298275
     11          6           0       -3.729163    0.192390    0.256619
     12          6           0       -2.595144    0.993972    0.123427
     13          8           0       -2.768342    2.330224    0.089352
     14          6           0       -1.305639    0.393586    0.031150
     15          6           0       -0.112604    1.228020   -0.082079
     16          8           0       -0.226155    2.485985   -0.135813
     17          6           0        1.212217    0.614710   -0.114963
     18          1           0        1.355319    3.017553   -0.195378
     19          1           0        4.517775    1.478188   -0.210523
     20          1           0        4.742062   -0.995563   -0.133146
     21          1           0        2.731597   -2.435776   -0.051285
     22          1           0        0.255830   -2.418555    0.750970
     23          1           0        0.143338   -2.280451   -0.978522
     24          1           0       -2.253768   -2.873676    0.239125
     25          1           0       -4.480005   -1.805937    0.404195
     26          1           0       -4.699571    0.668262    0.326700
     27          1           0       -1.872713    2.734178   -0.006302
 ---------------------------------------------------------------------

 SCF Done:  E(UB3LYP) =  -765.440168675     A.U. after    1 cycles

 Alpha  occ. eigenvalues --  -19.15776 -19.15774 -19.14161 -10.29023 -10.26130
 Alpha  occ. eigenvalues --  -10.26129 -10.21270 -10.21268 -10.20297 -10.20296
 Alpha  occ. eigenvalues --  -10.19724 -10.19701 -10.19701 -10.18294 -10.18294
 Alpha  occ. eigenvalues --  -10.18162 -10.18159  -1.09157  -1.07717  -1.05196
 Alpha  occ. eigenvalues --   -0.89479  -0.87097  -0.81642  -0.78624  -0.76933
 Alpha  occ. eigenvalues --   -0.75939  -0.71591  -0.66676  -0.65881  -0.61726
 Alpha  occ. eigenvalues --   -0.61244  -0.58542  -0.54865  -0.54258  -0.53978
 Alpha  occ. eigenvalues --   -0.49903  -0.48975  -0.48613  -0.47289  -0.46231
 Alpha  occ. eigenvalues --   -0.45449  -0.44044  -0.43539  -0.42974  -0.42799
 Alpha  occ. eigenvalues --   -0.41415  -0.40710  -0.40000  -0.38927  -0.38507
 Alpha  occ. eigenvalues --   -0.36179  -0.35989  -0.35638  -0.34498  -0.29024
 Alpha  occ. eigenvalues --   -0.28508  -0.27411  -0.24356  -0.23948
 Alpha virt. eigenvalues --   -0.09353  -0.03555  -0.02828  -0.00980  -0.00807
 Alpha virt. eigenvalues --    0.00282   0.00654   0.01439   0.02104   0.02756
 Alpha virt. eigenvalues --    0.03300   0.03601   0.03907   0.04067   0.05908

  Beta  occ. eigenvalues --  -19.15776 -19.15774 -19.14161 -10.29023 -10.26130
  Beta  occ. eigenvalues --  -10.26129 -10.21270 -10.21268 -10.20297 -10.20296
  Beta  occ. eigenvalues --  -10.19724 -10.19701 -10.19701 -10.18294 -10.18294
  Beta  occ. eigenvalues --  -10.18162 -10.18159  -1.09157  -1.07717  -1.05196
  Beta  occ. eigenvalues --   -0.89479  -0.87097  -0.81642  -0.78624  -0.76933
  Beta  occ. eigenvalues --   -0.75939  -0.71591  -0.66676  -0.65881  -0.61726
  Beta  occ. eigenvalues --   -0.61244  -0.58542  -0.54865  -0.54258  -0.53978
  Beta  occ. eigenvalues --   -0.49903  -0.48975  -0.48613  -0.47289  -0.46231
  Beta  occ. eigenvalues --   -0.45449  -0.44044  -0.43539  -0.42974  -0.42799
  Beta  occ. eigenvalues --   -0.41415  -0.40710  -0.40000  -0.38927  -0.38507
  Beta  occ. eigenvalues --   -0.36179  -0.35989  -0.35638  -0.34498  -0.29024
  Beta  occ. eigenvalues --   -0.28508  -0.27411  -0.24356  -0.23948
  Beta virt. eigenvalues --   -0.09353  -0.03555  -0.02828  -0.00980  -0.00807
  Beta virt. eigenvalues --    0.00282   0.00654   0.01439   0.02104   0.02756
  Beta virt. eigenvalues --    0.03300   0.03601   0.03907   0.04067   0.05908

 Mulliken charges and spin densities:
               1          2
     1  O   -0.336663  -0.000000
     2  C    0.044388  -0.000000
     3  C   -0.294311  -0.000000
     4  C   -0.212486   0.000000
     5  C   -0.267469  -0.000000
     6  C   -0.672892   0.000000
     7  C   -0.426310  -0.000000
     8  C   -0.675473   0.000000
     9  C   -0.266737   0.000000
    10  C   -0.213170  -0.000000
    11  C   -0.294356   0.000000
    12  C    0.044653  -0.000000
    13  O   -0.336360  -0.000000
    14  C    1.109926  -0.000000
    15  C   -0.276895  -0.000000
    16  O   -0.399800  -0.000000
    17  C    1.110346  -0.000000
    18  H    0.376534   0.000000
    19  H    0.202483   0.000000
    20  H    0.206108  -0.000000
    21  H    0.186529  -0.000000
    22  H    0.185819   0.000000
    23  H    0.234375   0.000000
    24  H    0.186807  -0.000000
    25  H    0.206143   0.000000
    26  H    0.202465  -0.000000
    27  H    0.376346   0.000000
 Sum of Mulliken charges =  -0.00000  -0.00000

 Dipole moment (field-independent basis, Debye):
    X=              0.5814    Y=             -6.5713    Z=              0.0954  Tot=              6.5976
 Quadrupole moment (field-independent basis, Debye-Ang):
   XX=            -91.8227   YY=           -100.2846   ZZ=           -101.9178
   XY=              0.7560   XZ=             -0.6053   YZ=              0.0863

  Exact polarizability: 349.912   5.621 282.949 -12.859  -5.831 121.606
 Approx polarizability: 369.025   0.615 357.711 -12.541  -7.740 142.934

                      1                      2                      3
                      A                      A                      A
 Frequencies --     26.8008                75.8842               127.9104
 Red. masses --      3.9113                 6.5268                 5.7946
 Frc consts  --      0.0017                 0.0221                 0.0559
 IR Inten    --      0.4783                 0.0088                 0.9235

                      4                      5                      6
                      A                      A                      A
 Frequencies --    195.6290               203.0118               216.9586
 Red. masses --      2.6707                 4.2756                 5.8189
 Frc consts  --      0.0602                 0.1038                 0.1614
 IR Inten    --      8.7701                 0.0285                 1.2775

                      7                      8                      9
                      A                      A                      A
 Frequencies --    235.1956               274.6636               332.8982
 Red. masses --      5.2106                 6.5131                 6.3301
 Frc consts  --      0.1698                 0.2895                 0.4133
 IR Inten    --      1.1401                 0.0156                25.2048

                     10                     11                     12
                      A                      A                      A
 Frequencies --    343.5259               447.0710               451.5285
 Red. masses --      6.7585                 3.6925                10.9842
 Frc consts  --      0.4699                 0.4348                 1.3194
 IR Inten    --     11.4718                 6.2351                15.9849

                     13                     14                     15
                      A                      A                      A
 Frequencies --    480.7454               489.6227               491.4400
 Red. masses --      5.0462                 3.8131                 6.5438
 Frc consts  --      0.6871                 0.5386                 0.9312
 IR Inten    --      1.7670                 0.1059                 1.6460

                     16                     17                     18
                      A                      A                      A
 Frequencies --    510.7763               550.9928               554.5210
 Red. masses --      6.6383                 3.1589                 7.7662
 Frc consts  --      1.0204                 0.5650                 1.4070
 IR Inten    --      8.6619                 2.2756                 4.4027

                     19                     20                     21
                      A                      A                      A
 Frequencies --    591.1432               617.4409               619.4764
 Red. masses --      4.0679                 4.8780                 8.0858
 Frc consts  --      0.8375                 1.0957                 1.8282
 IR Inten    --      0.1849                59.8020                36.8883

                     22                     23                     24
                      A                      A                      A
 Frequencies --    647.4534               682.0887               728.4095
 Red. masses --      5.3467                 3.8799                 2.6726
 Frc consts  --      1.3205                 1.0635                 0.8355
 IR Inten    --     13.4855                12.8644                 0.5034

                     25                     26                     27
                      A                      A                      A
 Frequencies --    749.2955               759.5499               781.3289
 Red. masses --      1.0869                 1.1753                 6.4688
 Frc consts  --      0.3595                 0.3995                 2.3267
 IR Inten    --    402.8154                 2.9042                74.7339

                     28                     29                     30
                      A                      A                      A
 Frequencies --    784.8671               795.5334               804.6220
 Red. masses --      2.6192                 1.8554                 1.4195
 Frc consts  --      0.9506                 0.6918                 0.5415
 IR Inten    --     61.1762                16.9765                 0.1966

                     31                     32                     33
                      A                      A                      A
 Frequencies --    809.1880               885.1473               898.9665
 Red. masses --      6.0118                 1.5794                 1.3898
 Frc consts  --      2.3193                 0.7291                 0.6618
 IR Inten    --      7.8421                 9.7589                 0.0095

                     34                     35                     36
                      A                      A                      A
 Frequencies --    928.3904               949.9056              1000.0793
 Red. masses --      5.9862                 2.1835                 1.3180
 Frc consts  --      3.0399                 1.1608                 0.7767
 IR Inten    --     83.3284                10.8236                 0.2003

                     37                     38                     39
                      A                      A                      A
 Frequencies --   1000.6402              1033.9273              1034.2352
 Red. masses --      1.3197                 4.9254                 4.1272
 Frc consts  --      0.7785                 3.1022                 2.6010
 IR Inten    --      1.1972                64.7757                 0.7872

                     40                     41                     42
                      A                      A                      A
 Frequencies --   1091.7081              1092.0656              1178.5253
 Red. masses --      2.2117                 1.8834                 1.7649
 Frc consts  --      1.5531                 1.3234                 1.4443
 IR Inten    --     51.6586                11.6979                34.4623

                     43                     44                     45
                      A                      A                      A
 Frequencies --   1190.2955              1191.6062              1206.5509
 Red. masses --      1.1881                 1.7309                 1.7244
 Frc consts  --      0.9917                 1.4481                 1.4791
 IR Inten    --     47.8495                 1.3960               159.7984

                     46                     47                     48
                      A                      A                      A
 Frequencies --   1234.2403              1243.7781              1254.2590
 Red. masses --      1.0966                 2.0671                 1.8357
 Frc consts  --      0.9842                 1.8841                 1.7015
 IR Inten    --      4.7974               124.2144               338.6224

                     49                     50                     51
                      A                      A                      A
 Frequencies --   1300.5568              1321.8096              1324.8875
 Red. masses --      5.0078                 3.8429                 3.1252
 Frc consts  --      4.9906                 3.9559                 3.2321
 IR Inten    --    393.8599                 6.6488               136.6823

                     52                     53                     54
                      A                      A                      A
 Frequencies --   1337.2751              1379.5222              1392.2421
 Red. masses --      3.5570                 3.2217                 4.4858
 Frc consts  --      3.7478                 3.6123                 5.1229
 IR Inten    --    223.5612               214.0617               320.6311

                     55                     56                     57
                      A                      A                      A
 Frequencies --   1418.0866              1431.0089              1471.6642
 Red. masses --      2.0105                 1.1314                 2.1544
 Frc consts  --      2.3821                 1.3651                 2.7492
 IR Inten    --     93.1588                15.4084               127.8047

                     58                     59                     60
                      A                      A                      A
 Frequencies --   1475.0014              1509.0772              1516.4036
 Red. masses --      2.2867                 3.0414                 2.6493
 Frc consts  --      2.9312                 4.0808                 3.5893
 IR Inten    --    282.2316               544.3342                 0.3877

                     61                     62                     63
                      A                      A                      A
 Frequencies --   1585.0270              1602.0851              1622.1972
 Red. masses --      3.3456                 5.1820                 6.7775
 Frc consts  --      4.9522                 7.8364                10.5081
 IR Inten    --     66.1792                72.8655               563.2331

                     64                     65                     66
                      A                      A                      A
 Frequencies --   1642.1891              1660.6187              3013.7465
 Red. masses --      5.1582                 4.2732                 1.0681
 Frc consts  --      8.1959                 6.9429                 5.7156
 IR Inten    --    557.3139               172.1276                 2.4304

                     67                     68                     69
                      A                      A                      A
 Frequencies --   3047.2734              3171.1650              3171.6360
 Red. masses --      1.0918                 1.0874                 1.0873
 Frc consts  --      5.9732                 6.4430                 6.4444
 IR Inten    --      4.5194                 4.7579                 4.1571

                     70                     71                     72
                      A                      A                      A
 Frequencies --   3183.8563              3184.3670              3196.9733
 Red. masses --      1.0924                 1.0924                 1.0956
 Frc consts  --      6.5242                 6.5263                 6.5977
 IR Inten    --     16.7120                26.7258                23.1079

                     73                     74                     75
                      A                      A                      A
 Frequencies --   3197.2735              3318.0611              3352.9267
 Red. masses --      1.0956                 1.0671                 1.0688
 Frc consts  --      6.5990                 6.9220                 7.0794
 IR Inten    --      6.8976              1373.9914                70.6005

 - Thermochemistry -
 -------------------
 Temperature   298.150 Kelvin.  Pressure   1.00000 Atm.
 Atom     1 has atomic number  8 and mass  15.99491

 Molecular mass:   226.06299 amu.
 Principal axes and moments of inertia in atomic units:
                           1         2         3
     Eigenvalues --  1885.707294822.840056693.93262
           X            0.99449  -0.08913   0.05516
           Y            0.08737   0.99561   0.03359
           Z           -0.05792  -0.02859   0.99791
 This molecule is an asymmetric top.
 Rotational symmetry number  1.
 Warning -- assumption of classical behavior for rotation
           may cause significant error
 Rotational temperatures (Kelvin)      0.04593     0.01796     0.01294
 Rotational constants (GHZ):           0.95706     0.37421     0.26961
 Zero-point vibrational energy     542032.9 (Joules/Mol)
                                  129.54897 (Kcal/Mol)
 Warning -- explicit consideration of  21 degrees of freedom as
           vibrations may cause significant error
 Vibrational temperatures:     38.56   109.18   184.03   281.47   292.09
          (Kelvin)            312.16   338.39   395.18   478.97   494.26
                              643.24   649.65   691.69   704.46   707.07
                              734.89   792.76   797.83   850.52   888.36
                              891.29   931.54   981.37  1048.02  1078.07
                             1092.82  1124.16  1129.25  1144.60  1157.67
                             1164.24  1273.53  1293.41  1335.75  1366.70
                             1438.89  1439.70  1487.59  1488.03  1570.72
                             1571.24  1695.64  1712.57  1714.46  1735.96
                             1775.80  1789.52  1804.60  1871.21  1901.79
                             1906.22  1924.04  1984.82  2003.13  2040.31
                             2058.90  2117.40  2122.20  2171.23  2181.77
                             2280.50  2305.04  2333.98  2362.74  2389.26
                             4336.11  4384.35  4562.60  4563.28  4580.86
                             4581.59  4599.73  4600.16  4773.95  4824.11

 Zero-point correction=                           0.206449 (Hartree/Particle)
 Thermal correction to Energy=                    0.218839
 Thermal correction to Enthalpy=                  0.219783
 Thermal correction to Gibbs Free Energy=         0.167278
 Sum of electronic and zero-point Energies=           -765.233719
 Sum of electronic and thermal Energies=              -765.221330
 Sum of electronic and thermal Enthalpies=            -765.220386
 Sum of electronic and thermal Free Energies=         -765.272891

                     E (Thermal)             CV                S
                      KCal/Mol        Cal/Mol-Kelvin    Cal/Mol-Kelvin
 Total                  137.324             51.281            110.507
 Electronic               0.000              0.000              0.000
 Translational            0.889              2.981             42.149
 Rotational               0.889              2.981             32.476
 Vibrational            135.546             45.319             35.882
 Vibration     1          0.593              1.984              6.053
 Vibration     2          0.599              1.965              3.995
 Vibration     3          0.611              1.925              2.977
 Vibration     4          0.636              1.846              2.174
 Vibration     5          0.639              1.836              2.106
 Vibration     6          0.646              1.815              1.984
 Vibration     7          0.655              1.787              1.839
 Vibration     8          0.677              1.720              1.567
 Vibration     9          0.715              1.610              1.246
 Vibration    10          0.722              1.588              1.196
 Vibration    11          0.806              1.367              0.805
 Vibration    12          0.810              1.358              0.791
 Vibration    13          0.837              1.293              0.708
 Vibration    14          0.845              1.273              0.685
 Vibration    15          0.847              1.269              0.680
 Vibration    16          0.866              1.226              0.632
 Vibration    17          0.906              1.138              0.542
 Vibration    18          0.910              1.130              0.535
 Vibration    19          0.949              1.051              0.465
 Vibration    20          0.977              0.995              0.421
 Vibration    21          0.979              0.991              0.417

 Optimization completed.
    -- Stationary point found.
 Normal termination of Gaussian 16 at Sun Feb 11 17:08:28 2024.
