 Q-Chem 5.4, Q-Chem, Inc., Pleasanton, CA (2021)
 Q-Chem 5.4.0 for Intel X86 EM64T Linux

User input:
--------------------------------------------------------------
$molecule
0 1
C                 -3.1102520000     -3.1753350000     -0.8321460000
C                 -2.0715450000     -2.0937120000     -0.9780740000
C                 -2.4639930000     -0.8035050000     -0.8278200000
C                 -3.8413120000     -0.4062430000     -0.5033620000
C                 -4.8552650000     -1.4842220000     -0.3871110000
C                 -4.5100470000     -2.7659620000     -0.5501720000
O                 -2.8290500000     -4.3578220000     -0.9176320000
O                 -4.1529330000      0.7678660000     -0.3489660000
C                 -0.6746550000     -2.4527160000     -1.2106840000
C                 -0.0801230000     -3.4451720000     -2.0892910000
C                  0.3774980000     -1.7949770000     -0.6031460000
C                  1.3261540000     -3.3126360000     -1.9620760000
N                  1.5679800000     -2.3040560000     -1.0449680000
C                 -0.5787450000     -4.3912660000     -2.9999230000
C                  0.3134540000     -5.1642760000     -3.7269780000
C                  1.7050580000     -5.0205780000     -3.5716550000
C                  2.2304790000     -4.0906720000     -2.6872580000
H                 -1.7655980000      0.0157500000     -0.9571360000
H                 -5.8697200000     -1.1703170000     -0.1669990000
H                 -5.2214960000     -3.5809270000     -0.4740170000
H                  0.3504150000     -1.0170810000      0.1438510000
H                  2.4752690000     -2.0290910000     -0.7063340000
H                 -1.6440300000     -4.5341590000     -3.1168810000
H                 -0.0671420000     -5.9010280000     -4.4249750000
H                  2.3751550000     -5.6444650000     -4.1517420000
H                  3.3014850000     -3.9695170000     -2.5682540000
$end

$rem
BASIS  =  6-311++G(d,p)
GUI  =  2
JOB_TYPE  =  SP
METHOD  =  B3LYP
SCF_CONVERGENCE  = 8
SOLVENT_METHOD = sm12
$end

$smx
solvent dimethylformamide
charges CM5
$end

--------------------------------------------------------------

             Standard Nuclear Orientation (Angstroms)
    I     Atom           X                Y                Z
 ----------------------------------------------------------------
    1      C      -3.1102520000    -3.1753350000    -0.8321460000
    2      C      -2.0715450000    -2.0937120000    -0.9780740000
    3      C      -2.4639930000    -0.8035050000    -0.8278200000
    4      C      -3.8413120000    -0.4062430000    -0.5033620000
    5      C      -4.8552650000    -1.4842220000    -0.3871110000
    6      C      -4.5100470000    -2.7659620000    -0.5501720000
    7      O      -2.8290500000    -4.3578220000    -0.9176320000
    8      O      -4.1529330000     0.7678660000    -0.3489660000
    9      C      -0.6746550000    -2.4527160000    -1.2106840000
   10      C      -0.0801230000    -3.4451720000    -2.0892910000
   11      C       0.3774980000    -1.7949770000    -0.6031460000
   12      C       1.3261540000    -3.3126360000    -1.9620760000
   13      N       1.5679800000    -2.3040560000    -1.0449680000
   14      C      -0.5787450000    -4.3912660000    -2.9999230000
   15      C       0.3134540000    -5.1642760000    -3.7269780000
   16      C       1.7050580000    -5.0205780000    -3.5716550000
   17      C       2.2304790000    -4.0906720000    -2.6872580000
   18      H      -1.7655980000     0.0157500000    -0.9571360000
   19      H      -5.8697200000    -1.1703170000    -0.1669990000
   20      H      -5.2214960000    -3.5809270000    -0.4740170000
   21      H       0.3504150000    -1.0170810000     0.1438510000
   22      H       2.4752690000    -2.0290910000    -0.7063340000
   23      H      -1.6440300000    -4.5341590000    -3.1168810000
   24      H      -0.0671420000    -5.9010280000    -4.4249750000
   25      H       2.3751550000    -5.6444650000    -4.1517420000
   26      H       3.3014850000    -3.9695170000    -2.5682540000
 ----------------------------------------------------------------

   15    -744.2753223250      6.78e-09  Convergence criterion met
 Total energy in the final basis set =     -744.3058361888

                    Orbital Energies (a.u.)
 --------------------------------------------------------------

 Alpha MOs
 -- Occupied --
-19.1380 -19.1296 -14.3722 -10.2850 -10.2759 -10.2229 -10.2229 -10.2182
-10.2074 -10.2066 -10.1982 -10.1904 -10.1880 -10.1849 -10.1805 -10.1797
-10.1756  -1.0702  -1.0586  -0.9981  -0.8650  -0.8543  -0.8191  -0.7775
 -0.7502  -0.7330  -0.7052  -0.6525  -0.6372  -0.6164  -0.6027  -0.5719
 -0.5517  -0.5204  -0.5034  -0.4959  -0.4883  -0.4770  -0.4586  -0.4491
 -0.4442  -0.4408  -0.4377  -0.4358  -0.4242  -0.4154  -0.4072  -0.3998
 -0.3731  -0.3546  -0.3514  -0.3210  -0.3057  -0.2858  -0.2798  -0.2738
 -0.2425  -0.2200

          Ground-State Mulliken Net Atomic Charges

     Atom                 Charge (a.u.)
  ----------------------------------------
      1 C                    -1.787483
      2 C                     1.446054
      3 C                    -0.303114
      4 C                    -0.894724
      5 C                     0.358106
      6 C                     0.658714
      7 O                    -0.292130
      8 O                    -0.349832
      9 C                    -0.074447
     10 C                     0.362748
     11 C                     1.186440
     12 C                     0.050307
     13 N                     0.115801
     14 C                    -1.677842
     15 C                    -0.874818
     16 C                    -0.398247
     17 C                    -0.242231
     18 H                     0.286056
     19 H                     0.315832
     20 H                     0.323890
     21 H                     0.439702
     22 H                     0.521052
     23 H                     0.080327
     24 H                     0.217605
     25 H                     0.238856
     26 H                     0.293378
  ----------------------------------------
  Sum of atomic charges =     0.000000

                    Cartesian Multipole Moments
 -----------------------------------------------------------------
    Charge (ESU x 10^10)
                 0.0000
    Dipole Moment (Debye)
         X       3.8282      Y       0.2299      Z       0.9899
       Tot       3.9608
    Quadrupole Moments (Debye-Ang)
        XX     -84.5872     XY       1.8665     YY    -116.8219
        XZ      -2.0605     YZ      -0.5308     ZZ    -100.3734

 Total job time:  497.19s(wall), 3875.11s(cpu)
        *  Thank you very much for using Q-Chem.  Have a nice day.  *
