 Gaussian 16, Revision A.03,
 Gaussian 16:  ES64L-G16RevA.03 25-Dec-2016

 --------------------------------------
 #P UB3LYP/6-311++G(d,p) nosym opt freq
 --------------------------------------

 --------
 Oxidized
 --------
 Symbolic Z-matrix:
 Charge =  0 Multiplicity = 1

 SCF Done:  E(UB3LYP) =  -744.278507601     A.U. after   16 cycles
 Optimization completed.
    -- Stationary point found.
 Normal termination of Gaussian 16 at Wed Jan 10 16:54:59 2024.

 ----------------------------------------------------------------------
 #P Geom=AllCheck Guess=TCheck SCRF=Check GenChk UB3LYP/6-311++G(d,p) F
 req
 ----------------------------------------------------------------------

 Structure from the checkpoint file:  "114.chk"
 --------
 Oxidized
 --------
 Charge =  0 Multiplicity = 1

                          Input orientation:
 ---------------------------------------------------------------------
 Center     Atomic      Atomic             Coordinates (Angstroms)
 Number     Number       Type             X           Y           Z
 ---------------------------------------------------------------------
      1          6           0       -3.110252   -3.175335   -0.832146
      2          6           0       -2.071545   -2.093712   -0.978074
      3          6           0       -2.463993   -0.803505   -0.827820
      4          6           0       -3.841312   -0.406243   -0.503362
      5          6           0       -4.855265   -1.484222   -0.387111
      6          6           0       -4.510047   -2.765962   -0.550172
      7          8           0       -2.829050   -4.357822   -0.917632
      8          8           0       -4.152933    0.767866   -0.348966
      9          6           0       -0.674655   -2.452716   -1.210684
     10          6           0       -0.080123   -3.445172   -2.089291
     11          6           0        0.377498   -1.794977   -0.603146
     12          6           0        1.326154   -3.312636   -1.962076
     13          7           0        1.567980   -2.304056   -1.044968
     14          6           0       -0.578745   -4.391266   -2.999923
     15          6           0        0.313454   -5.164276   -3.726978
     16          6           0        1.705058   -5.020578   -3.571655
     17          6           0        2.230479   -4.090672   -2.687258
     18          1           0       -1.765598    0.015750   -0.957136
     19          1           0       -5.869720   -1.170317   -0.166999
     20          1           0       -5.221496   -3.580927   -0.474017
     21          1           0        0.350415   -1.017081    0.143851
     22          1           0        2.475269   -2.029091   -0.706334
     23          1           0       -1.644030   -4.534159   -3.116881
     24          1           0       -0.067142   -5.901028   -4.424975
     25          1           0        2.375155   -5.644465   -4.151742
     26          1           0        3.301485   -3.969517   -2.568254
 ---------------------------------------------------------------------

 SCF Done:  E(UB3LYP) =  -744.278507601     A.U. after    1 cycles

 Alpha  occ. eigenvalues --  -19.13879 -19.13028 -14.38175 -10.28641 -10.27702
 Alpha  occ. eigenvalues --  -10.23004 -10.22603 -10.22127 -10.21327 -10.21241
 Alpha  occ. eigenvalues --  -10.20242 -10.19568 -10.18868 -10.18614 -10.18029
 Alpha  occ. eigenvalues --  -10.17851 -10.17394  -1.07074  -1.05862  -1.00628
 Alpha  occ. eigenvalues --   -0.86889  -0.85602  -0.82416  -0.78153  -0.75272
 Alpha  occ. eigenvalues --   -0.73616  -0.70865  -0.65829  -0.64096  -0.62041
 Alpha  occ. eigenvalues --   -0.60782  -0.57524  -0.55720  -0.52308  -0.50724
 Alpha  occ. eigenvalues --   -0.50183  -0.49168  -0.48123  -0.46363  -0.45150
 Alpha  occ. eigenvalues --   -0.44573  -0.44394  -0.43998  -0.43889  -0.42747
 Alpha  occ. eigenvalues --   -0.41552  -0.40992  -0.40443  -0.37324  -0.35484
 Alpha  occ. eigenvalues --   -0.35246  -0.32372  -0.30965  -0.28549  -0.28072
 Alpha  occ. eigenvalues --   -0.27363  -0.24344  -0.22318
 Alpha virt. eigenvalues --   -0.13254  -0.04621  -0.02908  -0.02110  -0.00452
 Alpha virt. eigenvalues --   -0.00256  -0.00058   0.00260   0.00960   0.01826
 Alpha virt. eigenvalues --    0.02460   0.02837   0.03326   0.04153   0.04280

  Beta  occ. eigenvalues --  -19.13879 -19.13028 -14.38175 -10.28641 -10.27702
  Beta  occ. eigenvalues --  -10.23004 -10.22603 -10.22127 -10.21327 -10.21241
  Beta  occ. eigenvalues --  -10.20242 -10.19568 -10.18868 -10.18614 -10.18029
  Beta  occ. eigenvalues --  -10.17851 -10.17394  -1.07074  -1.05862  -1.00628
  Beta  occ. eigenvalues --   -0.86889  -0.85602  -0.82416  -0.78153  -0.75272
  Beta  occ. eigenvalues --   -0.73616  -0.70865  -0.65829  -0.64096  -0.62041
  Beta  occ. eigenvalues --   -0.60782  -0.57524  -0.55720  -0.52308  -0.50724
  Beta  occ. eigenvalues --   -0.50183  -0.49168  -0.48123  -0.46363  -0.45150
  Beta  occ. eigenvalues --   -0.44573  -0.44394  -0.43998  -0.43889  -0.42747
  Beta  occ. eigenvalues --   -0.41552  -0.40992  -0.40443  -0.37324  -0.35484
  Beta  occ. eigenvalues --   -0.35246  -0.32372  -0.30965  -0.28549  -0.28072
  Beta  occ. eigenvalues --   -0.27363  -0.24344  -0.22318
  Beta virt. eigenvalues --   -0.13254  -0.04621  -0.02908  -0.02110  -0.00452
  Beta virt. eigenvalues --   -0.00256  -0.00058   0.00260   0.00960   0.01826
  Beta virt. eigenvalues --    0.02460   0.02837   0.03326   0.04153   0.04280

 Mulliken charges and spin densities:
               1          2
     1  C   -1.244412   0.000000
     2  C    1.436132   0.000000
     3  C   -0.669999   0.000000
     4  C   -0.429669  -0.000000
     5  C    0.060355   0.000000
     6  C    0.162902  -0.000000
     7  O   -0.187694  -0.000000
     8  O   -0.241373   0.000000
     9  C    0.643015  -0.000000
    10  C    1.360708  -0.000000
    11  C   -0.281620   0.000000
    12  C    0.025784  -0.000000
    13  N   -0.079908  -0.000000
    14  C   -0.983850   0.000000
    15  C   -0.529064  -0.000000
    16  C   -0.241247   0.000000
    17  C   -0.560798   0.000000
    18  H    0.209601   0.000000
    19  H    0.223202  -0.000000
    20  H    0.223349  -0.000000
    21  H    0.184572  -0.000000
    22  H    0.305276   0.000000
    23  H    0.139728   0.000000
    24  H    0.168249  -0.000000
    25  H    0.161603   0.000000
    26  H    0.145158  -0.000000
 Sum of Mulliken charges =  -0.00000  -0.00000

 Dipole moment (field-independent basis, Debye):
    X=              3.1084    Y=             -0.2246    Z=              0.4342  Tot=              3.1466
 Quadrupole moment (field-independent basis, Debye-Ang):
   XX=            -86.5571   YY=           -112.6155   ZZ=            -98.3522
   XY=              2.5929   XZ=             -1.2298   YZ=              2.0690

  Exact polarizability: 231.951 -49.761 207.788 -30.934  53.647 130.961
 Approx polarizability: 344.089 -76.038 397.120 -23.405  91.985 208.776

                      1                      2                      3
                      A                      A                      A
 Frequencies --     39.6768                60.7179                74.8305
 Red. masses --      7.4023                 4.9913                 5.5437
 Frc consts  --      0.0069                 0.0108                 0.0183
 IR Inten    --      0.3954                 6.8418                 0.4757

                      4                      5                      6
                      A                      A                      A
 Frequencies --    110.3841               179.5255               203.1853
 Red. masses --      7.9935                 5.6456                 6.5331
 Frc consts  --      0.0574                 0.1072                 0.1589
 IR Inten    --      4.7344                 2.1274                 1.4747

                      7                      8                      9
                      A                      A                      A
 Frequencies --    222.1778               255.8958               277.2181
 Red. masses --      3.9793                 6.0734                 5.6847
 Frc consts  --      0.1157                 0.2343                 0.2574
 IR Inten    --      9.3544                 1.1585                 0.5207

                     10                     11                     12
                      A                      A                      A
 Frequencies --    331.6870               414.8509               423.9097
 Red. masses --      6.4369                 2.6238                 8.0875
 Frc consts  --      0.4172                 0.2660                 0.8563
 IR Inten    --      0.5424                30.5644                45.0108

                     13                     14                     15
                      A                      A                      A
 Frequencies --    431.8475               446.2526               469.6366
 Red. masses --      2.8445                 1.6391                 8.8461
 Frc consts  --      0.3126                 0.1923                 1.1495
 IR Inten    --      0.9895                51.6759                 2.2507

                     16                     17                     18
                      A                      A                      A
 Frequencies --    479.1851               544.4735               561.2097
 Red. masses --      3.7266                 5.2167                 5.6570
 Frc consts  --      0.5042                 0.9112                 1.0498
 IR Inten    --      5.0254                 7.8521                 0.8552

                     19                     20                     21
                      A                      A                      A
 Frequencies --    580.4199               608.6101               628.4927
 Red. masses --      3.2957                 3.3293                 4.5206
 Frc consts  --      0.6542                 0.7266                 1.0521
 IR Inten    --      8.3150                 4.5598                 0.7909

                     22                     23                     24
                      A                      A                      A
 Frequencies --    653.6943               666.5253               748.9450
 Red. masses --      3.4177                 4.3589                 1.3178
 Frc consts  --      0.8605                 1.1409                 0.4355
 IR Inten    --      1.1354                 0.9695                75.0978

                     25                     26                     27
                      A                      A                      A
 Frequencies --    766.2803               772.5274               787.3141
 Red. masses --      3.8644                 4.7720                 3.7349
 Frc consts  --      1.3369                 1.6779                 1.3640
 IR Inten    --      8.1485                 4.2051                13.1247

                     28                     29                     30
                      A                      A                      A
 Frequencies --    801.7109               820.8885               827.2655
 Red. masses --      2.9404                 2.8654                 2.7057
 Frc consts  --      1.1135                 1.1376                 1.0910
 IR Inten    --      5.9766                 4.7831                 0.8574

                     31                     32                     33
                      A                      A                      A
 Frequencies --    851.1261               859.2134               890.0097
 Red. masses --      1.5292                 2.3287                 4.9329
 Frc consts  --      0.6527                 1.0129                 2.3022
 IR Inten    --      3.4197                16.3439                 2.0635

                     34                     35                     36
                      A                      A                      A
 Frequencies --    925.1341               943.1770               966.2206
 Red. masses --      1.5739                 1.3632                 3.7514
 Frc consts  --      0.7936                 0.7145                 2.0634
 IR Inten    --     45.2128                 1.5040                55.1867

                     37                     38                     39
                      A                      A                      A
 Frequencies --    978.6593              1020.1654              1038.0477
 Red. masses --      1.2817                 1.2641                 2.1467
 Frc consts  --      0.7233                 0.7751                 1.3629
 IR Inten    --      0.3205                 0.3829                11.4251

                     40                     41                     42
                      A                      A                      A
 Frequencies --   1083.2539              1117.9826              1128.3573
 Red. masses --      2.9173                 1.7851                 1.4516
 Frc consts  --      2.0169                 1.3146                 1.0889
 IR Inten    --     67.0390                52.7800                12.2144

                     43                     44                     45
                      A                      A                      A
 Frequencies --   1156.7492              1179.6959              1213.4597
 Red. masses --      1.3784                 1.1897                 1.8282
 Frc consts  --      1.0867                 0.9755                 1.5861
 IR Inten    --     13.8780                 1.6464                 8.4918

                     46                     47                     48
                      A                      A                      A
 Frequencies --   1249.4164              1271.3291              1291.4770
 Red. masses --      1.8258                 2.2584                 3.0811
 Frc consts  --      1.6792                 2.1506                 3.0278
 IR Inten    --      2.1590                41.4121               233.4561

                     49                     50                     51
                      A                      A                      A
 Frequencies --   1311.7444              1356.4429              1361.5746
 Red. masses --      2.1177                 2.1996                 4.0216
 Frc consts  --      2.1469                 2.3845                 4.3927
 IR Inten    --     17.6976                26.3163                20.3300

                     52                     53                     54
                      A                      A                      A
 Frequencies --   1376.1955              1390.9183              1444.2883
 Red. masses --      3.9147                 2.2939                 2.4138
 Frc consts  --      4.3682                 2.6147                 2.9666
 IR Inten    --     30.0849                 7.5206                85.5311

                     55                     56                     57
                      A                      A                      A
 Frequencies --   1481.7207              1522.7201              1552.3869
 Red. masses --      2.4941                 2.8711                 4.6951
 Frc consts  --      3.2262                 3.9223                 6.6664
 IR Inten    --     17.2802                20.5463               198.7313

                     58                     59                     60
                      A                      A                      A
 Frequencies --   1608.2733              1618.9756              1656.5494
 Red. masses --      6.1012                 7.3081                 6.2380
 Frc consts  --      9.2979                11.2859                10.0856
 IR Inten    --     61.2514               153.5409                 6.5211

                     61                     62                     63
                      A                      A                      A
 Frequencies --   1670.8908              1706.4256              1725.3575
 Red. masses --      9.0839                 8.8540                11.4218
 Frc consts  --     14.9423                15.1902                20.0328
 IR Inten    --     11.6747               348.3981               186.7568

                     64                     65                     66
                      A                      A                      A
 Frequencies --   3164.8839              3174.2139              3174.3734
 Red. masses --      1.0862                 1.0871                 1.0904
 Frc consts  --      6.4101                 6.4535                 6.4738
 IR Inten    --      0.4440                 1.5726                13.9819

                     67                     68                     69
                      A                      A                      A
 Frequencies --   3181.0885              3188.2526              3192.6458
 Red. masses --      1.0912                 1.0955                 1.0995
 Frc consts  --      6.5058                 6.5612                 6.6029
 IR Inten    --      4.1129                21.6921                 4.8272

                     70                     71                     72
                      A                      A                      A
 Frequencies --   3213.6449              3248.5506              3664.4232
 Red. masses --      1.0930                 1.0968                 1.0805
 Frc consts  --      6.6507                 6.8198                 8.5480
 IR Inten    --      4.2433                 0.8685               106.7303

 - Thermochemistry -
 -------------------
 Temperature   298.150 Kelvin.  Pressure   1.00000 Atm.
 Atom     1 has atomic number  6 and mass  12.00000

 Molecular mass:   223.06333 amu.
 Principal axes and moments of inertia in atomic units:
                           1         2         3
     Eigenvalues --  1618.649556213.448677358.60613
           X            0.80922   0.57067   0.13961
           Y           -0.47640   0.77646  -0.41249
           Z           -0.34380   0.26728   0.90020
 This molecule is an asymmetric top.
 Rotational symmetry number  1.
 Warning -- assumption of classical behavior for rotation
           may cause significant error
 Rotational temperatures (Kelvin)      0.05351     0.01394     0.01177
 Rotational constants (GHZ):           1.11497     0.29046     0.24526
 Zero-point vibrational energy     510442.7 (Joules/Mol)
                                  121.99873 (Kcal/Mol)
 Warning -- explicit consideration of  20 degrees of freedom as
           vibrations may cause significant error
 Vibrational temperatures:     57.09    87.36   107.66   158.82   258.30
          (Kelvin)            292.34   319.66   368.18   398.86   477.22
                              596.88   609.91   621.33   642.06   675.70
                              689.44   783.38   807.46   835.09   875.65
                              904.26   940.52   958.98  1077.56  1102.51
                             1111.49  1132.77  1153.48  1181.08  1190.25
                             1224.58  1236.22  1280.53  1331.06  1357.02
                             1390.18  1408.07  1467.79  1493.52  1558.56
                             1608.53  1623.45  1664.30  1697.32  1745.90
                             1797.63  1829.16  1858.15  1887.31  1951.62
                             1959.00  1980.04  2001.22  2078.01  2131.87
                             2190.85  2233.54  2313.95  2329.34  2383.41
                             2404.04  2455.17  2482.40  4553.56  4566.99
                             4567.22  4576.88  4587.18  4593.51  4623.72
                             4673.94  5272.29

 Zero-point correction=                           0.194417 (Hartree/Particle)
 Thermal correction to Energy=                    0.207370
 Thermal correction to Enthalpy=                  0.208314
 Thermal correction to Gibbs Free Energy=         0.154209
 Sum of electronic and zero-point Energies=           -744.084090
 Sum of electronic and thermal Energies=              -744.071138
 Sum of electronic and thermal Enthalpies=            -744.070194
 Sum of electronic and thermal Free Energies=         -744.124299

                     E (Thermal)             CV                S
                      KCal/Mol        Cal/Mol-Kelvin    Cal/Mol-Kelvin
 Total                  130.127             51.665            113.874
 Electronic               0.000              0.000              0.000
 Translational            0.889              2.981             42.109
 Rotational               0.889              2.981             32.670
 Vibrational            128.349             45.703             39.094
 Vibration     1          0.594              1.981              5.275
 Vibration     2          0.597              1.973              4.434
 Vibration     3          0.599              1.966              4.022
 Vibration     4          0.606              1.941              3.262
 Vibration     5          0.629              1.867              2.333
 Vibration     6          0.639              1.835              2.104
 Vibration     7          0.648              1.807              1.941
 Vibration     8          0.666              1.753              1.690
 Vibration     9          0.678              1.716              1.551
 Vibration    10          0.714              1.612              1.252
 Vibration    11          0.778              1.438              0.910
 Vibration    12          0.786              1.418              0.879
 Vibration    13          0.793              1.401              0.853
 Vibration    14          0.806              1.369              0.807
 Vibration    15          0.827              1.317              0.739
 Vibration    16          0.836              1.296              0.712
 Vibration    17          0.900              1.152              0.556
 Vibration    18          0.917              1.115              0.521
 Vibration    19          0.937              1.074              0.485
 Vibration    20          0.967              1.014              0.435

 Optimization completed.
    -- Stationary point found.
 Normal termination of Gaussian 16 at Wed Jan 10 17:56:56 2024.
