 Q-Chem 5.4, Q-Chem, Inc., Pleasanton, CA (2021)
 Q-Chem 5.4.0 for Intel X86 EM64T Linux

User input:
--------------------------------------------------------------
$molecule
0 1
C                  0.0496400000      1.7013130000     -0.0000480000
C                 -1.2177320000      0.9082910000     -0.0007990000
C                 -1.2060420000     -0.4436970000      0.0001900000
C                  0.0748570000     -1.2146860000      0.0020100000
C                  1.3547220000     -0.4230690000      0.0029190000
C                  1.3430030000      0.9319450000      0.0019110000
O                  0.0573660000      2.9080610000     -0.0011130000
O                  0.1034410000     -2.4211220000      0.0028840000
C                  2.5365310000      1.7083180000      0.0026430000
C                  2.5615010000     -1.1786810000      0.0048270000
N                  3.5049420000      2.3367040000      0.0032490000
N                  3.5406450000     -1.7902070000      0.0063830000
Cl                -2.6644430000      1.8333760000     -0.0029780000
Cl                -2.6365430000     -1.3936580000     -0.0005890000
$end
$rem
MAX_SCF_CYCLES=200
BASIS  =  6-311++G(d,p)
GUI  =  2
JOB_TYPE  =  SP
METHOD  =  B3LYP
SOLVENT_METHOD = PCM
$end
$pcm
theory = CPCM
$end
$solvent
dielectric 37.219
opticaldielectric 1.43
$end

--------------------------------------------------------------

             Standard Nuclear Orientation (Angstroms)
    I     Atom           X                Y                Z
 ----------------------------------------------------------------
    1      C       0.0496400000     1.7013130000    -0.0000480000
    2      C      -1.2177320000     0.9082910000    -0.0007990000
    3      C      -1.2060420000    -0.4436970000     0.0001900000
    4      C       0.0748570000    -1.2146860000     0.0020100000
    5      C       1.3547220000    -0.4230690000     0.0029190000
    6      C       1.3430030000     0.9319450000     0.0019110000
    7      O       0.0573660000     2.9080610000    -0.0011130000
    8      O       0.1034410000    -2.4211220000     0.0028840000
    9      C       2.5365310000     1.7083180000     0.0026430000
   10      C       2.5615010000    -1.1786810000     0.0048270000
   11      N       3.5049420000     2.3367040000     0.0032490000
   12      N       3.5406450000    -1.7902070000     0.0063830000
   13      Cl     -2.6644430000     1.8333760000    -0.0029780000
   14      Cl     -2.6365430000    -1.3936580000    -0.0005890000
 ----------------------------------------------------------------

    9   -1485.3217729491      4.01e-06  Convergence criterion met
 Total energy in the final basis set =    -1485.3217729491

                    Orbital Energies (a.u.)
 --------------------------------------------------------------

 Alpha MOs
 -- Occupied --
********-101.5972 -19.1830 -19.1830 -14.3668 -14.3667 -10.3390 -10.3390
-10.3033 -10.3025 -10.3009 -10.3002 -10.2626 -10.2626  -9.5116  -9.5116
 -7.2766  -7.2766  -7.2667  -7.2667  -7.2653  -7.2653  -1.1222  -1.1200
 -0.9699  -0.9591  -0.9554  -0.9094  -0.8991  -0.8120  -0.7827  -0.7004
 -0.6792  -0.6096  -0.5948  -0.5746  -0.5208  -0.5088  -0.5038  -0.4887
 -0.4773  -0.4680  -0.4418  -0.4210  -0.4200  -0.4077  -0.4028  -0.3943
 -0.3868  -0.3743  -0.3671  -0.3465  -0.3382  -0.3368  -0.3279  -0.2996

          Ground-State Mulliken Net Atomic Charges

     Atom                 Charge (a.u.)
  ----------------------------------------
      1 C                    -1.551384
      2 C                     0.635407
      3 C                     0.636966
      4 C                    -1.552111
      5 C                     2.102244
      6 C                     2.103339
      7 O                    -0.162943
      8 O                    -0.162994
      9 C                    -1.343672
     10 C                    -1.343966
     11 N                    -0.185608
     12 N                    -0.185550
     13 Cl                    0.505075
     14 Cl                    0.505197
  ----------------------------------------
  Sum of atomic charges =     0.000000

                    Cartesian Multipole Moments
 -----------------------------------------------------------------
    Charge (ESU x 10^10)
                 0.0000
    Dipole Moment (Debye)
         X      -5.6765      Y      -0.0495      Z      -0.0058
       Tot       5.6767
    Quadrupole Moments (Debye-Ang)
        XX    -113.8680     XY      -1.3596     YY    -115.9271
        XZ      -0.0349     YZ       0.0201     ZZ     -87.4043

 Total job time:  21.98s(wall), 129.79s(cpu)
        *  Thank you very much for using Q-Chem.  Have a nice day.  *
