 Q-Chem 5.4, Q-Chem, Inc., Pleasanton, CA (2021)
 Q-Chem 5.4.0 for Intel X86 EM64T Linux

User input:
--------------------------------------------------------------
$molecule
0 1
C                 -6.7650100000      5.7615670000      0.9787980000
C                 -7.8785580000      5.0108890000      0.6145770000
C                 -7.7595820000      4.0097360000     -0.3511340000
C                 -6.5298560000      3.7555430000     -0.9557820000
C                 -5.4084700000      4.5016300000     -0.5974920000
C                 -5.5313120000      5.5080180000      0.3745280000
C                 -4.3421890000      6.2946560000      0.7491070000
C                 -3.0484180000      5.9802270000      0.0774420000
C                 -2.9070470000      5.0210850000     -0.8703700000
C                 -4.0872320000      4.2193110000     -1.2560970000
O                 -4.3489670000      7.1947690000      1.5814730000
O                 -3.9997140000      3.3389200000     -2.1007740000
C                 -1.5871780000      4.7191340000     -1.5223920000
C                 -0.8045570000      3.6019900000     -0.7990550000
C                  0.5363500000      3.2937600000     -1.4729460000
C                  1.3306960000      2.1892480000     -0.7667400000
C                  2.6742500000      1.8780530000     -1.4359500000
C                  3.4691990000      0.7733700000     -0.7306000000
C                  4.8125020000      0.4615760000     -1.3997810000
C                  5.6060220000     -0.6432560000     -0.6924760000
C                  6.9497690000     -0.9503240000     -1.3673270000
C                  7.7253870000     -2.0517420000     -0.6462310000
S                  9.3298120000     -2.3698720000     -1.5109220000
C                 10.0144160000     -3.6689860000     -0.4749290000
C                  9.7585830000     -5.0136650000     -0.7589650000
C                 10.8388610000     -3.3529120000      0.6088890000
C                 11.3848560000     -4.3636170000      1.3966770000
C                 11.1316150000     -5.7121330000      1.1233960000
C                 10.3084790000     -6.0179780000      0.0342470000
C                 11.7536460000     -6.8046880000      1.9586670000
H                 -6.8323680000      6.5437500000      1.7250090000
H                 -8.8375600000      5.2040970000      1.0811400000
H                 -8.6283440000      3.4259150000     -0.6334980000
H                 -6.4201930000      2.9830270000     -1.7067070000
O                 -2.0218570000      6.7417710000      0.4897460000
H                 -0.9815380000      5.6287810000     -1.5428350000
H                 -1.7732000000      4.4098090000     -2.5538670000
H                 -1.4189990000      2.6958350000     -0.7732560000
H                 -0.6326430000      3.9000610000      0.2414410000
H                  1.1420290000      4.2084210000     -1.5102050000
H                  0.3577150000      3.0020940000     -2.5156380000
H                  0.7242700000      1.2751670000     -0.7302460000
H                  1.5054320000      2.4803050000      0.2771440000
H                  3.2804000000      2.7924690000     -1.4729520000
H                  2.4994200000      1.5874680000     -2.4798840000
H                  2.8627210000     -0.1408330000     -0.6934810000
H                  3.6439800000      1.0640770000      0.3134260000
H                  5.4194680000      1.3752250000     -1.4369170000
H                  4.6382690000      0.1699360000     -2.4433690000
H                  5.0002220000     -1.5575240000     -0.6563940000
H                  5.7816720000     -0.3514050000      0.3506870000
H                  7.5582110000     -0.0394030000     -1.4012180000
H                  6.7764720000     -1.2484870000     -2.4076100000
H                  7.1545140000     -2.9830060000     -0.6306820000
H                  7.9437350000     -1.7625660000      0.3843440000
H                  9.1302310000     -5.2699550000     -1.6040890000
H                 11.0526940000     -2.3137980000      0.8308260000
H                 12.0204510000     -4.0982080000      2.2357930000
H                 10.0958570000     -7.0563630000     -0.2004400000
H                 11.9156410000     -6.4765750000      2.9880200000
H                 12.7270470000     -7.1014410000      1.5527340000
H                 11.1237830000     -7.6969920000      1.9813910000
H                 -2.3900960000      7.3542630000      1.1547020000
$end

$rem
BASIS  =  6-311++G(d,p)
GUI  =  2
JOB_TYPE  =  SP
METHOD  =  B3LYP
SCF_CONVERGENCE  = 8
SOLVENT_METHOD = sm12
$end

$smx
solvent dimethylformamide
charges CM5
$end

--------------------------------------------------------------

             Standard Nuclear Orientation (Angstroms)
    I     Atom           X                Y                Z
 ----------------------------------------------------------------
    1      C      -6.7650100000     5.7615670000     0.9787980000
    2      C      -7.8785580000     5.0108890000     0.6145770000
    3      C      -7.7595820000     4.0097360000    -0.3511340000
    4      C      -6.5298560000     3.7555430000    -0.9557820000
    5      C      -5.4084700000     4.5016300000    -0.5974920000
    6      C      -5.5313120000     5.5080180000     0.3745280000
    7      C      -4.3421890000     6.2946560000     0.7491070000
    8      C      -3.0484180000     5.9802270000     0.0774420000
    9      C      -2.9070470000     5.0210850000    -0.8703700000
   10      C      -4.0872320000     4.2193110000    -1.2560970000
   11      O      -4.3489670000     7.1947690000     1.5814730000
   12      O      -3.9997140000     3.3389200000    -2.1007740000
   13      C      -1.5871780000     4.7191340000    -1.5223920000
   14      C      -0.8045570000     3.6019900000    -0.7990550000
   15      C       0.5363500000     3.2937600000    -1.4729460000
   16      C       1.3306960000     2.1892480000    -0.7667400000
   17      C       2.6742500000     1.8780530000    -1.4359500000
   18      C       3.4691990000     0.7733700000    -0.7306000000
   19      C       4.8125020000     0.4615760000    -1.3997810000
   20      C       5.6060220000    -0.6432560000    -0.6924760000
   21      C       6.9497690000    -0.9503240000    -1.3673270000
   22      C       7.7253870000    -2.0517420000    -0.6462310000
   23      S       9.3298120000    -2.3698720000    -1.5109220000
   24      C      10.0144160000    -3.6689860000    -0.4749290000
   25      C       9.7585830000    -5.0136650000    -0.7589650000
   26      C      10.8388610000    -3.3529120000     0.6088890000
   27      C      11.3848560000    -4.3636170000     1.3966770000
   28      C      11.1316150000    -5.7121330000     1.1233960000
   29      C      10.3084790000    -6.0179780000     0.0342470000
   30      C      11.7536460000    -6.8046880000     1.9586670000
   31      H      -6.8323680000     6.5437500000     1.7250090000
   32      H      -8.8375600000     5.2040970000     1.0811400000
   33      H      -8.6283440000     3.4259150000    -0.6334980000
   34      H      -6.4201930000     2.9830270000    -1.7067070000
   35      O      -2.0218570000     6.7417710000     0.4897460000
   36      H      -0.9815380000     5.6287810000    -1.5428350000
   37      H      -1.7732000000     4.4098090000    -2.5538670000
   38      H      -1.4189990000     2.6958350000    -0.7732560000
   39      H      -0.6326430000     3.9000610000     0.2414410000
   40      H       1.1420290000     4.2084210000    -1.5102050000
   41      H       0.3577150000     3.0020940000    -2.5156380000
   42      H       0.7242700000     1.2751670000    -0.7302460000
   43      H       1.5054320000     2.4803050000     0.2771440000
   44      H       3.2804000000     2.7924690000    -1.4729520000
   45      H       2.4994200000     1.5874680000    -2.4798840000
   46      H       2.8627210000    -0.1408330000    -0.6934810000
   47      H       3.6439800000     1.0640770000     0.3134260000
   48      H       5.4194680000     1.3752250000    -1.4369170000
   49      H       4.6382690000     0.1699360000    -2.4433690000
   50      H       5.0002220000    -1.5575240000    -0.6563940000
   51      H       5.7816720000    -0.3514050000     0.3506870000
   52      H       7.5582110000    -0.0394030000    -1.4012180000
   53      H       6.7764720000    -1.2484870000    -2.4076100000
   54      H       7.1545140000    -2.9830060000    -0.6306820000
   55      H       7.9437350000    -1.7625660000     0.3843440000
   56      H       9.1302310000    -5.2699550000    -1.6040890000
   57      H      11.0526940000    -2.3137980000     0.8308260000
   58      H      12.0204510000    -4.0982080000     2.2357930000
   59      H      10.0958570000    -7.0563630000    -0.2004400000
   60      H      11.9156410000    -6.4765750000     2.9880200000
   61      H      12.7270470000    -7.1014410000     1.5527340000
   62      H      11.1237830000    -7.6969920000     1.9813910000
   63      H      -2.3900960000     7.3542630000     1.1547020000
 ----------------------------------------------------------------

   15   -1672.4113366315      5.99e-09  Convergence criterion met
 Total energy in the final basis set =    -1672.4450237973

                    Orbital Energies (a.u.)
 --------------------------------------------------------------

 Alpha MOs
 -- Occupied --
-88.8396 -19.1786 -19.1481 -19.1257 -10.2920 -10.2778 -10.2668 -10.2103
-10.2089 -10.2071 -10.2038 -10.2003 -10.1984 -10.1970 -10.1966 -10.1965
-10.1939 -10.1859 -10.1859 -10.1819 -10.1819 -10.1764 -10.1719 -10.1690
-10.1686 -10.1670 -10.1636 -10.1634 -10.1625 -10.1624 -10.1619  -7.9258
 -5.8899  -5.8863  -5.8791  -1.1085  -1.0663  -1.0590  -0.8917  -0.8737
 -0.8443  -0.8218  -0.8114  -0.7998  -0.7880  -0.7791  -0.7721  -0.7579
 -0.7505  -0.7271  -0.7056  -0.6892  -0.6711  -0.6554  -0.6441  -0.6224
 -0.6200  -0.6055  -0.6001  -0.5864  -0.5814  -0.5775  -0.5759  -0.5729
 -0.5416  -0.5174  -0.5003  -0.4964  -0.4905  -0.4811  -0.4782  -0.4753
 -0.4716  -0.4641  -0.4611  -0.4581  -0.4516  -0.4448  -0.4376  -0.4321
 -0.4316  -0.4283  -0.4257  -0.4247  -0.4225  -0.4129  -0.4087  -0.4000
 -0.3984  -0.3971  -0.3908  -0.3833  -0.3800  -0.3754  -0.3717  -0.3686
 -0.3669  -0.3663  -0.3519  -0.3509  -0.3459  -0.3434  -0.3353  -0.3325
 -0.3268  -0.3257  -0.3235  -0.3190  -0.3082  -0.3010  -0.2885  -0.2788
 -0.2761  -0.2675  -0.2568  -0.2515  -0.2307

          Ground-State Mulliken Net Atomic Charges

     Atom                 Charge (a.u.)
  ----------------------------------------
      1 C                     0.415434
      2 C                     0.365557
      3 C                     0.460153
      4 C                    -0.001394
      5 C                    -0.449598
      6 C                     0.232896
      7 C                    -0.980161
      8 C                    -0.600529
      9 C                     1.366725
     10 C                    -1.494763
     11 O                    -0.294813
     12 O                    -0.282763
     13 C                    -0.179327
     14 C                    -0.646313
     15 C                    -0.006877
     16 C                    -0.156714
     17 C                    -0.210539
     18 C                    -0.288832
     19 C                    -0.174757
     20 C                    -0.036878
     21 C                    -0.108422
     22 C                    -0.767913
     23 S                    -0.184396
     24 C                     0.797806
     25 C                    -0.649869
     26 C                    -0.661763
     27 C                    -0.484741
     28 C                     0.279985
     29 C                    -0.491390
     30 C                    -0.047392
     31 H                     0.220736
     32 H                     0.325872
     33 H                     0.318753
     34 H                     0.182150
     35 O                    -0.197429
     36 H                     0.226321
     37 H                     0.180976
     38 H                     0.115282
     39 H                     0.139972
     40 H                     0.104480
     41 H                     0.104235
     42 H                     0.107886
     43 H                     0.109898
     44 H                     0.112745
     45 H                     0.111843
     46 H                     0.110778
     47 H                     0.111791
     48 H                     0.113368
     49 H                     0.112433
     50 H                     0.121085
     51 H                     0.121433
     52 H                     0.103604
     53 H                     0.103550
     54 H                     0.195166
     55 H                     0.195956
     56 H                     0.223306
     57 H                     0.223875
     58 H                     0.243923
     59 H                     0.243899
     60 H                     0.195698
     61 H                     0.208405
     62 H                     0.195835
     63 H                     0.293759
  ----------------------------------------
  Sum of atomic charges =     0.000000

                    Cartesian Multipole Moments
 -----------------------------------------------------------------
    Charge (ESU x 10^10)
                -0.0000
    Dipole Moment (Debye)
         X      -3.5407      Y      -0.9438      Z       2.9362
       Tot       4.6956
    Quadrupole Moments (Debye-Ang)
        XX    -165.5381     XY     -23.5390     YY    -184.2766
        XZ      17.9764     YZ      -4.1097     ZZ    -202.4605

 Total job time:  3773.28s(wall), 25629.29s(cpu)
        *  Thank you very much for using Q-Chem.  Have a nice day.  *
