 Gaussian 16, Revision A.03,
 Gaussian 16:  ES64L-G16RevA.03 25-Dec-2016

 ----------------------------------------------------------------------
 #P UB3LYP/6-311++G(d,p) nosym opt freq SCRF=(PCM,Solvent=n,n-DiMethylF
 ormamide)
 ----------------------------------------------------------------------

 -------
 Reduced
 -------
 Symbolic Z-matrix:
 Charge = -2 Multiplicity = 1

 SCF Done:  E(UB3LYP) =  -574.836734259     A.U. after   17 cycles
 SCF Done:  E(UB3LYP) =  -574.838213656     A.U. after   13 cycles
 SCF Done:  E(UB3LYP) =  -574.838458940     A.U. after   14 cycles
 SCF Done:  E(UB3LYP) =  -574.838454352     A.U. after   12 cycles
 SCF Done:  E(UB3LYP) =  -574.838472117     A.U. after   11 cycles
 SCF Done:  E(UB3LYP) =  -574.838472754     A.U. after   11 cycles
 SCF Done:  E(UB3LYP) =  -574.838473425     A.U. after    9 cycles
 SCF Done:  E(UB3LYP) =  -574.838474085     A.U. after   10 cycles
 SCF Done:  E(UB3LYP) =  -574.838474455     A.U. after   10 cycles
 SCF Done:  E(UB3LYP) =  -574.838474558     A.U. after   10 cycles
 Optimization completed.
    -- Stationary point found.
 Normal termination of Gaussian 16 at Sun Feb 11 02:13:06 2024.

 ----------------------------------------------------------------------
 #P Geom=AllCheck Guess=TCheck SCRF=Check GenChk UB3LYP/6-311++G(d,p) F
 req
 ----------------------------------------------------------------------

 Structure from the checkpoint file:  "238-an.chk"
 -------
 Reduced
 -------
 Charge = -2 Multiplicity = 1

                          Input orientation:
 ---------------------------------------------------------------------
 Center     Atomic      Atomic             Coordinates (Angstroms)
 Number     Number       Type             X           Y           Z
 ---------------------------------------------------------------------
      1          6           0        5.608401   -5.411219    1.247914
      2          6           0        6.582936   -5.297047    0.278342
      3          6           0        6.558728   -4.219218   -0.647397
      4          6           0        4.548277   -4.477495    1.372922
      5          6           0        4.512701   -3.376452    0.441317
      6          6           0        5.534903   -3.296808   -0.542576
      7          6           0        3.542599   -4.641562    2.414964
      8          6           0        2.559492   -3.637417    2.431718
      9          6           0        2.526238   -2.554857    1.518247
     10          6           0        3.467916   -2.363859    0.492263
     11          8           0        3.576307   -5.647274    3.257392
     12          8           0        3.427694   -1.363794   -0.359187
     13          1           0        5.632343   -6.236867    1.951363
     14          1           0        7.378383   -6.035839    0.218516
     15          1           0        1.782882   -3.703118    3.193268
     16          1           0        1.723956   -1.822978    1.605998
     17          6           0        7.630338   -4.104948   -1.707014
     18          1           0        5.487261   -2.461856   -1.234354
     19          1           0        8.627727   -4.007286   -1.262900
     20          1           0        7.463878   -3.235239   -2.347100
     21          1           0        7.657359   -4.992764   -2.349246
 ---------------------------------------------------------------------

 SCF Done:  E(UB3LYP) =  -574.838474558     A.U. after    1 cycles

 Alpha  occ. eigenvalues --  -19.01135 -19.01039 -10.16574 -10.16465 -10.15649
 Alpha  occ. eigenvalues --  -10.15351 -10.14584 -10.14487 -10.14043 -10.13663
 Alpha  occ. eigenvalues --  -10.13571 -10.11703 -10.11616  -0.91850  -0.91414
 Alpha  occ. eigenvalues --   -0.82735  -0.76805  -0.73372  -0.71061  -0.66681
 Alpha  occ. eigenvalues --   -0.63384  -0.58327  -0.56313  -0.52325  -0.46993
 Alpha  occ. eigenvalues --   -0.45482  -0.43535  -0.40663  -0.40650  -0.39977
 Alpha  occ. eigenvalues --   -0.38697  -0.36836  -0.36334  -0.35841  -0.34836
 Alpha  occ. eigenvalues --   -0.33619  -0.30938  -0.30922  -0.30504  -0.29788
 Alpha  occ. eigenvalues --   -0.22506  -0.21652  -0.20910  -0.19212  -0.19012
 Alpha  occ. eigenvalues --   -0.11209
 Alpha virt. eigenvalues --   -0.00365   0.00089   0.00890   0.01148   0.01662
 Alpha virt. eigenvalues --    0.02892   0.03300   0.04142   0.05059   0.05334
 Alpha virt. eigenvalues --    0.06418   0.06456   0.07445   0.07727   0.07946

  Beta  occ. eigenvalues --  -19.01135 -19.01039 -10.16574 -10.16465 -10.15649
  Beta  occ. eigenvalues --  -10.15351 -10.14584 -10.14487 -10.14043 -10.13663
  Beta  occ. eigenvalues --  -10.13571 -10.11703 -10.11616  -0.91850  -0.91414
  Beta  occ. eigenvalues --   -0.82735  -0.76805  -0.73372  -0.71061  -0.66681
  Beta  occ. eigenvalues --   -0.63384  -0.58327  -0.56313  -0.52325  -0.46993
  Beta  occ. eigenvalues --   -0.45482  -0.43535  -0.40663  -0.40650  -0.39977
  Beta  occ. eigenvalues --   -0.38697  -0.36836  -0.36334  -0.35841  -0.34836
  Beta  occ. eigenvalues --   -0.33619  -0.30938  -0.30922  -0.30504  -0.29788
  Beta  occ. eigenvalues --   -0.22506  -0.21652  -0.20910  -0.19212  -0.19012
  Beta  occ. eigenvalues --   -0.11209
  Beta virt. eigenvalues --   -0.00365   0.00089   0.00890   0.01148   0.01662
  Beta virt. eigenvalues --    0.02892   0.03300   0.04142   0.05059   0.05334
  Beta virt. eigenvalues --    0.06418   0.06456   0.07445   0.07727   0.07946

 Mulliken charges and spin densities:
               1          2
     1  C    0.027629  -0.000000
     2  C   -0.446002   0.000000
     3  C    0.475915   0.000000
     4  C    0.161245   0.000000
     5  C    0.007394  -0.000000
     6  C   -0.359173  -0.000000
     7  C   -0.681685  -0.000000
     8  C    0.082314   0.000000
     9  C   -0.017970  -0.000000
    10  C   -0.469851   0.000000
    11  O   -0.738595   0.000000
    12  O   -0.739434   0.000000
    13  H    0.143297   0.000000
    14  H    0.156551   0.000000
    15  H    0.123094  -0.000000
    16  H    0.126403   0.000000
    17  C   -0.420620  -0.000000
    18  H    0.114461  -0.000000
    19  H    0.151429  -0.000000
    20  H    0.153657   0.000000
    21  H    0.149940  -0.000000
 Sum of Mulliken charges =  -2.00000   0.00000

 Dipole moment (field-independent basis, Debye):
    X=            -34.7711    Y=             34.1467    Z=            -13.3640  Tot=             50.5334
 Quadrupole moment (field-independent basis, Debye-Ang):
   XX=           -214.9130   YY=           -243.9192   ZZ=           -131.0113
   XY=            125.6282   XZ=            -48.7204   YZ=             76.3943

  Exact polarizability: 276.824 -60.232 240.625 -79.096 -43.034 238.502
 Approx polarizability: 302.963 -68.731 271.193 -85.065 -52.263 263.160

                      1                      2                      3
                      A                      A                      A
 Frequencies --     85.8824               103.6243               112.6250
 Red. masses --      2.0937                 1.3553                 5.7596
 Frc consts  --      0.0091                 0.0086                 0.0430
 IR Inten    --      3.8827                 0.9989                16.2147

                      4                      5                      6
                      A                      A                      A
 Frequencies --    179.1671               205.9861               280.4466
 Red. masses --      5.2812                 4.7297                 3.9422
 Frc consts  --      0.0999                 0.1182                 0.1827
 IR Inten    --      1.8694                10.9793                 2.5947

                      7                      8                      9
                      A                      A                      A
 Frequencies --    323.6660               355.1915               378.2491
 Red. masses --      7.1262                 4.1557                 6.1161
 Frc consts  --      0.4398                 0.3089                 0.5156
 IR Inten    --     14.4459                 6.6516                 0.1731

                     10                     11                     12
                      A                      A                      A
 Frequencies --    435.2201               453.7736               471.7857
 Red. masses --      3.0809                 6.6549                 7.6703
 Frc consts  --      0.3438                 0.8074                 1.0059
 IR Inten    --     10.8564                 0.1147                 0.2928

                     13                     14                     15
                      A                      A                      A
 Frequencies --    500.1799               538.5224               601.6020
 Red. masses --      3.5175                 7.4104                 4.7435
 Frc consts  --      0.5185                 1.2662                 1.0115
 IR Inten    --      6.8596                 4.4913                 1.0706

                     16                     17                     18
                      A                      A                      A
 Frequencies --    635.5418               659.3779               687.8981
 Red. masses --      2.3727                 3.3728                 4.7073
 Frc consts  --      0.5646                 0.8640                 1.3124
 IR Inten    --      0.0694                 9.6399                26.3220

                     19                     20                     21
                      A                      A                      A
 Frequencies --    718.8228               769.1412               780.9767
 Red. masses --      6.4536                 7.0920                 2.4948
 Frc consts  --      1.9647                 2.4719                 0.8965
 IR Inten    --      2.5567               267.1794                27.4574

                     22                     23                     24
                      A                      A                      A
 Frequencies --    802.3628               822.9127               868.4599
 Red. masses --      1.8717                 1.9530                 1.4044
 Frc consts  --      0.7099                 0.7792                 0.6241
 IR Inten    --    113.2115                18.4440                 0.0926

                     25                     26                     27
                      A                      A                      A
 Frequencies --    902.4109               920.0826               974.1721
 Red. masses --      3.6513                 1.3546                 1.3081
 Frc consts  --      1.7519                 0.6757                 0.7314
 IR Inten    --     34.7355                14.7116                 2.0784

                     28                     29                     30
                      A                      A                      A
 Frequencies --   1006.1601              1041.8776              1056.2838
 Red. masses --      1.5212                 1.9295                 1.4981
 Frc consts  --      0.9073                 1.2340                 0.9848
 IR Inten    --     18.1351                58.3397                 5.4545

                     31                     32                     33
                      A                      A                      A
 Frequencies --   1072.4656              1123.6920              1156.7580
 Red. masses --      3.6201                 1.4975                 1.5401
 Frc consts  --      2.4532                 1.1140                 1.2142
 IR Inten    --     96.0312                27.9886                 3.0139

                     34                     35                     36
                      A                      A                      A
 Frequencies --   1199.5768              1210.8104              1223.3776
 Red. masses --      1.9769                 5.7144                 2.3489
 Frc consts  --      1.6760                 4.9359                 2.0713
 IR Inten    --    495.6440               234.9196               211.4188

                     37                     38                     39
                      A                      A                      A
 Frequencies --   1287.0192              1304.3115              1351.9348
 Red. masses --      1.8765                 5.8841                 4.7936
 Frc consts  --      1.8314                 5.8979                 5.1620
 IR Inten    --    582.1848               121.5281               917.5461

                     40                     41                     42
                      A                      A                      A
 Frequencies --   1358.0354              1400.6801              1406.5323
 Red. masses --      5.3611                 1.5918                 1.9014
 Frc consts  --      5.8254                 1.8399                 2.2163
 IR Inten    --    300.2988                91.4025               196.5110

                     43                     44                     45
                      A                      A                      A
 Frequencies --   1455.1455              1472.4106              1479.8319
 Red. masses --      3.4202                 1.0443                 1.3059
 Frc consts  --      4.2669                 1.3339                 1.6849
 IR Inten    --    109.0692                 8.8829                25.1808

                     46                     47                     48
                      A                      A                      A
 Frequencies --   1508.7335              1536.3986              1590.2762
 Red. masses --      2.5778                 4.7434                 7.3324
 Frc consts  --      3.4571                 6.5970                10.9255
 IR Inten    --     84.2517               358.2126                10.2466

                     49                     50                     51
                      A                      A                      A
 Frequencies --   1626.0729              3002.3922              3041.5870
 Red. masses --      5.9065                 1.0382                 1.1001
 Frc consts  --      9.2015                 5.5140                 5.9961
 IR Inten    --     28.2248               149.6381                46.6286

                     52                     53                     54
                      A                      A                      A
 Frequencies --   3084.8948              3086.0708              3108.1061
 Red. masses --      1.0846                 1.0986                 1.0920
 Frc consts  --      6.0815                 6.1647                 6.2155
 IR Inten    --    115.9790                44.2666               166.4810

                     55                     56                     57
                      A                      A                      A
 Frequencies --   3130.5373              3160.3922              3163.1266
 Red. masses --      1.0872                 1.0887                 1.0909
 Frc consts  --      6.2774                 6.4065                 6.4307
 IR Inten    --     39.3730                38.3786                38.6399

 - Thermochemistry -
 -------------------
 Temperature   298.150 Kelvin.  Pressure   1.00000 Atm.
 Atom     1 has atomic number  6 and mass  12.00000

 Molecular mass:   172.05243 amu.
 Principal axes and moments of inertia in atomic units:
                           1         2         3
     Eigenvalues --  1473.806942478.449473941.09204
           X            0.78174  -0.27730   0.55855
           Y           -0.09518   0.83214   0.54634
           Z           -0.61629  -0.48026   0.62412
 This molecule is an asymmetric top.
 Rotational symmetry number  1.
 Warning -- assumption of classical behavior for rotation
           may cause significant error
 Rotational temperatures (Kelvin)      0.05877     0.03495     0.02198
 Rotational constants (GHZ):           1.22454     0.72817     0.45793
 Zero-point vibrational energy     408007.8 (Joules/Mol)
                                   97.51620 (Kcal/Mol)
 Warning -- explicit consideration of  15 degrees of freedom as
           vibrations may cause significant error
 Vibrational temperatures:    123.57   149.09   162.04   257.78   296.37
          (Kelvin)            403.50   465.68   511.04   544.22   626.18
                              652.88   678.79   719.65   774.81   865.57
                              914.40   948.70   989.73  1034.23  1106.62
                             1123.65  1154.42  1183.99  1249.52  1298.37
                             1323.79  1401.62  1447.64  1499.03  1519.76
                             1543.04  1616.74  1664.32  1725.92  1742.09
                             1760.17  1851.73  1876.61  1945.13  1953.91
                             2015.27  2023.69  2093.63  2118.47  2129.15
                             2170.73  2210.53  2288.05  2339.56  4319.77
                             4376.17  4438.48  4440.17  4471.87  4504.14
                             4547.10  4551.03

 Zero-point correction=                           0.155402 (Hartree/Particle)
 Thermal correction to Energy=                    0.165791
 Thermal correction to Enthalpy=                  0.166735
 Thermal correction to Gibbs Free Energy=         0.119371
 Sum of electronic and zero-point Energies=           -574.683073
 Sum of electronic and thermal Energies=              -574.672684
 Sum of electronic and thermal Enthalpies=            -574.671739
 Sum of electronic and thermal Free Energies=         -574.719103

                     E (Thermal)             CV                S
                      KCal/Mol        Cal/Mol-Kelvin    Cal/Mol-Kelvin
 Total                  104.035             41.170             99.686
 Electronic               0.000              0.000              0.000
 Translational            0.889              2.981             41.335
 Rotational               0.889              2.981             31.043
 Vibrational            102.258             35.208             27.307
 Vibration     1          0.601              1.959              3.752
 Vibration     2          0.605              1.946              3.385
 Vibration     3          0.607              1.939              3.223
 Vibration     4          0.629              1.868              2.337
 Vibration     5          0.640              1.831              2.079
 Vibration     6          0.680              1.710              1.531
 Vibration     7          0.708              1.628              1.292
 Vibration     8          0.731              1.565              1.143
 Vibration     9          0.749              1.517              1.046
 Vibration    10          0.796              1.393              0.842
 Vibration    11          0.812              1.353              0.784
 Vibration    12          0.829              1.313              0.733
 Vibration    13          0.856              1.250              0.658
 Vibration    14          0.894              1.165              0.568
 Vibration    15          0.960              1.028              0.447

 Optimization completed.
    -- Stationary point found.
 Normal termination of Gaussian 16 at Sun Feb 11 02:32:35 2024.
