 Gaussian 16, Revision A.03,
 Gaussian 16:  ES64L-G16RevA.03 25-Dec-2016

 ----------------------------------------------------------------------
 #P UB3LYP/6-311++G(d,p) nosym opt freq SCRF=(PCM,Solvent=n,n-DiMethylF
 ormamide)
 ----------------------------------------------------------------------

 -------
 Radical
 -------
 Symbolic Z-matrix:
 Charge = -1 Multiplicity = 2

 SCF Done:  E(UB3LYP) =  -3777.62832738     A.U. after   20 cycles
 SCF Done:  E(UB3LYP) =  -3777.62866543     A.U. after   14 cycles
 SCF Done:  E(UB3LYP) =  -3777.62872307     A.U. after   15 cycles
 SCF Done:  E(UB3LYP) =  -3777.62875176     A.U. after   13 cycles
 SCF Done:  E(UB3LYP) =  -3777.62875682     A.U. after   13 cycles
 SCF Done:  E(UB3LYP) =  -3777.62876376     A.U. after   11 cycles
 SCF Done:  E(UB3LYP) =  -3777.62876598     A.U. after   12 cycles
 SCF Done:  E(UB3LYP) =  -3777.62876633     A.U. after   10 cycles
 SCF Done:  E(UB3LYP) =  -3777.62876654     A.U. after   10 cycles
 SCF Done:  E(UB3LYP) =  -3777.62876661     A.U. after   10 cycles
 SCF Done:  E(UB3LYP) =  -3777.62876664     A.U. after    9 cycles
 SCF Done:  E(UB3LYP) =  -3777.62876665     A.U. after    9 cycles
 Optimization completed.
    -- Stationary point found.
 Normal termination of Gaussian 16 at Sat Feb 10 18:09:43 2024.

 ----------------------------------------------------------------------
 #P Geom=AllCheck Guess=TCheck SCRF=Check GenChk UB3LYP/6-311++G(d,p) F
 req
 ----------------------------------------------------------------------

 Structure from the checkpoint file:  "161-rad.chk"
 -------
 Radical
 -------
 Charge = -1 Multiplicity = 2

                          Input orientation:
 ---------------------------------------------------------------------
 Center     Atomic      Atomic             Coordinates (Angstroms)
 Number     Number       Type             X           Y           Z
 ---------------------------------------------------------------------
      1          7           0       -4.543493    1.020021   -0.456545
      2          6           0       -3.288742    0.453671   -0.378054
      3          6           0       -3.148570   -0.961717   -0.380728
      4         17           0       -4.599910   -1.958958   -0.556408
      5          6           0       -1.932185   -1.570941   -0.264540
      6          6           0       -0.752762   -0.818150   -0.119977
      7          6           0        0.495851   -1.571214   -0.010159
      8          8           0        0.508303   -2.832550   -0.041025
      9          6           0        1.717691   -0.794486    0.130993
     10          6           0        2.965087   -1.452103    0.223579
     11          6           0        4.138589   -0.738780    0.361164
     12          6           0        4.097573    0.671130    0.412475
     13          6           0        2.888496    1.331994    0.326185
     14          6           0        1.671819    0.624150    0.182094
     15          6           0        0.420081    1.382881    0.098714
     16          8           0        0.443915    2.639423    0.196299
     17          6           0       -0.817650    0.615364   -0.090389
     18          6           0       -2.108999    1.198507   -0.237331
     19         35           0       -2.385368    3.115826   -0.302117
     20          1           0       -4.579185    1.992252   -0.726882
     21          1           0       -5.268157    0.445951   -0.861653
     22          1           0       -1.848146   -2.649039   -0.280208
     23          1           0        2.973654   -2.534504    0.182777
     24          1           0        5.088827   -1.257024    0.429779
     25          1           0        5.017922    1.235172    0.519597
     26          1           0        2.845356    2.413122    0.364948
 ---------------------------------------------------------------------

 SCF Done:  E(UB3LYP) =  -3777.62876665     A.U. after    1 cycles

 Alpha  occ. eigenvalues -- -482.82797-101.56306 -62.48078 -56.30110 -56.29743
 Alpha  occ. eigenvalues --  -56.29702 -19.07719 -19.07416 -14.33027 -10.24190
 Alpha  occ. eigenvalues --  -10.23885 -10.23277 -10.22825 -10.22822 -10.19486
 Alpha  occ. eigenvalues --  -10.18441 -10.18033 -10.17517 -10.17367 -10.17348
 Alpha  occ. eigenvalues --  -10.17296 -10.17152 -10.17008  -9.47766  -8.69054
 Alpha  occ. eigenvalues --   -7.24199  -7.23258  -7.23236  -6.52173  -6.50951
 Alpha  occ. eigenvalues --   -6.50847  -2.63270  -2.62940  -2.62863  -2.61888
 Alpha  occ. eigenvalues --   -2.61887  -1.00362  -1.00081  -0.94859  -0.87998
 Alpha  occ. eigenvalues --   -0.86065  -0.84936  -0.80333  -0.77851  -0.75143
 Alpha  occ. eigenvalues --   -0.73596  -0.73413  -0.66905  -0.64115  -0.62170
 Alpha  occ. eigenvalues --   -0.59868  -0.56545  -0.54768  -0.53370  -0.51856
 Alpha  occ. eigenvalues --   -0.49696  -0.47045  -0.46563  -0.45891  -0.43628
 Alpha  occ. eigenvalues --   -0.43130  -0.42441  -0.42217  -0.41708  -0.40835
 Alpha  occ. eigenvalues --   -0.40596  -0.40206  -0.38387  -0.36404  -0.35833
 Alpha  occ. eigenvalues --   -0.35583  -0.35163  -0.33820  -0.32944  -0.31639
 Alpha  occ. eigenvalues --   -0.30811  -0.29742  -0.26537  -0.25733  -0.25125
 Alpha  occ. eigenvalues --   -0.24653  -0.23132  -0.22502  -0.14316
 Alpha virt. eigenvalues --   -0.05853  -0.02457  -0.02325  -0.00876  -0.00311
 Alpha virt. eigenvalues --    0.00396   0.01202   0.01476   0.02088   0.02903
 Alpha virt. eigenvalues --    0.03815   0.04016   0.04592   0.04756   0.05169

  Beta  occ. eigenvalues -- -482.82796-101.56303 -62.48078 -56.30111 -56.29739
  Beta  occ. eigenvalues --  -56.29702 -19.07218 -19.06792 -14.33008 -10.24156
  Beta  occ. eigenvalues --  -10.23844 -10.23212 -10.22664 -10.22636 -10.19392
  Beta  occ. eigenvalues --  -10.18451 -10.17974 -10.17449 -10.17329 -10.17274
  Beta  occ. eigenvalues --  -10.17248 -10.17151 -10.17000  -9.47763  -8.69052
  Beta  occ. eigenvalues --   -7.24200  -7.23249  -7.23234  -6.52175  -6.50944
  Beta  occ. eigenvalues --   -6.50847  -2.63270  -2.62937  -2.62864  -2.61885
  Beta  occ. eigenvalues --   -2.61884  -0.99434  -0.99037  -0.94786  -0.87928
  Beta  occ. eigenvalues --   -0.85815  -0.84823  -0.80211  -0.77545  -0.74926
  Beta  occ. eigenvalues --   -0.73448  -0.73224  -0.66223  -0.63935  -0.61934
  Beta  occ. eigenvalues --   -0.59785  -0.56339  -0.54604  -0.53247  -0.51717
  Beta  occ. eigenvalues --   -0.49528  -0.46779  -0.46471  -0.45808  -0.43216
  Beta  occ. eigenvalues --   -0.42792  -0.42381  -0.42068  -0.41398  -0.40269
  Beta  occ. eigenvalues --   -0.40029  -0.39794  -0.36518  -0.36302  -0.35490
  Beta  occ. eigenvalues --   -0.35270  -0.34482  -0.33694  -0.32914  -0.30907
  Beta  occ. eigenvalues --   -0.30327  -0.29644  -0.25274  -0.24730  -0.24461
  Beta  occ. eigenvalues --   -0.24184  -0.22625  -0.21836
  Beta virt. eigenvalues --   -0.08439  -0.04924  -0.02324  -0.01457  -0.00551
  Beta virt. eigenvalues --   -0.00290   0.00406   0.01225   0.01488   0.02101
  Beta virt. eigenvalues --    0.02918   0.03827   0.04076   0.04622   0.05167

 Mulliken charges and spin densities:
               1          2
     1  N   -0.214473   0.009557
     2  C   -0.697564   0.022871
     3  C    0.913777   0.029554
     4  Cl   0.405095   0.002285
     5  C   -0.162999   0.011866
     6  C   -0.203233   0.030428
     7  C   -0.617526   0.088522
     8  O   -0.456811   0.186143
     9  C    0.037105   0.023936
    10  C    0.027978   0.020893
    11  C   -0.430909   0.040195
    12  C   -0.488091   0.027479
    13  C    0.132983   0.035356
    14  C    0.155803   0.020719
    15  C   -1.036299   0.101060
    16  O   -0.365002   0.229894
    17  C    0.663730   0.067973
    18  C    0.059930   0.058518
    19  Br  -0.135382   0.002974
    20  H    0.261434  -0.000428
    21  H    0.247899   0.000035
    22  H    0.205543  -0.000872
    23  H    0.162247  -0.001004
    24  H    0.183611  -0.003166
    25  H    0.180984  -0.002448
    26  H    0.170172  -0.002337
 Sum of Mulliken charges =  -1.00000   1.00000

 Dipole moment (field-independent basis, Debye):
    X=             -1.1623    Y=              0.2903    Z=             -1.2538  Tot=              1.7342
 Quadrupole moment (field-independent basis, Debye-Ang):
   XX=           -127.8585   YY=           -168.1202   ZZ=           -135.0576
   XY=             -2.5877   XZ=              6.0300   YZ=             -2.9857

  Exact polarizability: 557.412 -13.357 424.759  40.646   6.181 162.263
 Approx polarizability: 563.945 -10.356 499.989  38.257   8.773 186.564

                      1                      2                      3
                      A                      A                      A
 Frequencies --     24.6990                36.9416                83.1119
 Red. masses --     11.5449                 8.7505                 6.3345
 Frc consts  --      0.0041                 0.0070                 0.0258
 IR Inten    --      4.2247                 8.9603                 0.8916

                      4                      5                      6
                      A                      A                      A
 Frequencies --    120.5370               133.8161               140.0946
 Red. masses --      4.8750                 9.1637                11.0316
 Frc consts  --      0.0417                 0.0967                 0.1276
 IR Inten    --      1.0767                 4.4051                 3.3007

                      7                      8                      9
                      A                      A                      A
 Frequencies --    177.2223               189.6648               236.3961
 Red. masses --     23.3456                 6.1066                11.2330
 Frc consts  --      0.4320                 0.1294                 0.3698
 IR Inten    --      0.8022                 0.5351                 2.5276

                     10                     11                     12
                      A                      A                      A
 Frequencies --    267.3418               284.7266               305.1670
 Red. masses --      5.6864                12.4616                 9.2219
 Frc consts  --      0.2395                 0.5952                 0.5060
 IR Inten    --      7.0027                 4.4691                 0.9036

                     13                     14                     15
                      A                      A                      A
 Frequencies --    327.7887               335.5307               369.4921
 Red. masses --      5.9728                 5.3002                 7.3210
 Frc consts  --      0.3781                 0.3516                 0.5889
 IR Inten    --      2.4546                12.3382                 2.1586

                     16                     17                     18
                      A                      A                      A
 Frequencies --    386.6915               394.5267               435.6897
 Red. masses --      8.3924                 1.1233                 5.1981
 Frc consts  --      0.7394                 0.1030                 0.5814
 IR Inten    --     38.1282                51.4957                 1.8993

                     19                     20                     21
                      A                      A                      A
 Frequencies --    444.6632               483.3607               491.1238
 Red. masses --      3.6382                 7.5658                 6.2328
 Frc consts  --      0.4238                 1.0415                 0.8858
 IR Inten    --     24.9894                10.3231                39.7246

                     22                     23                     24
                      A                      A                      A
 Frequencies --    495.8143               503.9248               554.0957
 Red. masses --      2.1140                 2.4281                 5.3910
 Frc consts  --      0.3062                 0.3633                 0.9752
 IR Inten    --    320.1167               263.0376                26.7202

                     25                     26                     27
                      A                      A                      A
 Frequencies --    570.9991               620.0442               672.3581
 Red. masses --      5.4066                 6.5417                 6.3440
 Frc consts  --      1.0386                 1.4818                 1.6897
 IR Inten    --     15.8657                32.1781                49.6087

                     28                     29                     30
                      A                      A                      A
 Frequencies --    682.5769               704.6509               706.4876
 Red. masses --      7.6786                 3.7122                 4.2930
 Frc consts  --      2.1078                 1.0860                 1.2625
 IR Inten    --     13.5967                66.3042                50.6162

                     31                     32                     33
                      A                      A                      A
 Frequencies --    720.7593               743.5708               770.7064
 Red. masses --      6.3208                 8.9629                 6.5574
 Frc consts  --      1.9346                 2.9197                 2.2949
 IR Inten    --      2.0487               131.7538                52.9906

                     34                     35                     36
                      A                      A                      A
 Frequencies --    788.3658               793.6457               880.7013
 Red. masses --      1.9573                 3.9641                 6.4128
 Frc consts  --      0.7167                 1.4711                 2.9306
 IR Inten    --     42.9534                 1.3626                 2.3405

                     37                     38                     39
                      A                      A                      A
 Frequencies --    885.3660               923.5338               967.7295
 Red. masses --      1.4676                 1.4082                 7.5041
 Frc consts  --      0.6778                 0.7076                 4.1405
 IR Inten    --      0.3697                19.0746                 1.4165

                     40                     41                     42
                      A                      A                      A
 Frequencies --    988.9909              1003.3003              1025.5184
 Red. masses --      1.3648                 1.2933                 3.9167
 Frc consts  --      0.7865                 0.7670                 2.4269
 IR Inten    --      2.8019                 0.2353                84.2996

                     43                     44                     45
                      A                      A                      A
 Frequencies --   1041.2753              1104.1897              1115.6360
 Red. masses --      1.9331                 2.0236                 2.3354
 Frc consts  --      1.2349                 1.4536                 1.7126
 IR Inten    --     38.6559                41.8602                28.5387

                     46                     47                     48
                      A                      A                      A
 Frequencies --   1147.3122              1149.1590              1184.0596
 Red. masses --      3.4709                 1.4618                 1.9485
 Frc consts  --      2.6919                 1.1374                 1.6095
 IR Inten    --     78.4018                 9.0879                22.5002

                     49                     50                     51
                      A                      A                      A
 Frequencies --   1219.9226              1222.2451              1285.6700
 Red. masses --      2.3128                 2.0904                 3.3865
 Frc consts  --      2.0280                 1.8399                 3.2981
 IR Inten    --     18.1711               106.9921                37.5689

                     52                     53                     54
                      A                      A                      A
 Frequencies --   1308.2858              1343.3366              1365.7822
 Red. masses --      2.8908                 5.6187                10.7826
 Frc consts  --      2.9152                 5.9738                11.8505
 IR Inten    --    155.9299               109.3207                11.7622

                     55                     56                     57
                      A                      A                      A
 Frequencies --   1385.8160              1438.2833              1466.4548
 Red. masses --      3.9507                 4.3763                 4.8614
 Frc consts  --      4.4703                 5.3339                 6.1596
 IR Inten    --    858.4519               739.3090               764.4515

                     58                     59                     60
                      A                      A                      A
 Frequencies --   1478.4319              1494.3320              1513.9942
 Red. masses --      2.9372                 3.9248                 7.6335
 Frc consts  --      3.7826                 5.1637                10.3092
 IR Inten    --     42.2427               868.8907               203.2139

                     61                     62                     63
                      A                      A                      A
 Frequencies --   1543.9097              1594.3054              1601.0008
 Red. masses --      6.3810                 3.5248                 8.4333
 Frc consts  --      8.9616                 5.2788                12.7359
 IR Inten    --     33.9095                15.3728                23.2101

                     64                     65                     66
                      A                      A                      A
 Frequencies --   1624.5416              1631.1040              3159.9271
 Red. masses --      2.1276                 2.5634                 1.0862
 Frc consts  --      3.3083                 4.0183                 6.3900
 IR Inten    --    216.2701               152.3662                14.0790

                     67                     68                     69
                      A                      A                      A
 Frequencies --   3174.1216              3190.8554              3196.9904
 Red. masses --      1.0906                 1.0930                 1.0929
 Frc consts  --      6.4739                 6.5569                 6.5815
 IR Inten    --     24.0240                26.4804                35.1372

                     70                     71                     72
                      A                      A                      A
 Frequencies --   3209.2614              3557.5081              3661.1873
 Red. masses --      1.0908                 1.0474                 1.1003
 Frc consts  --      6.6189                 7.8102                 8.6895
 IR Inten    --     10.1681                96.7265               102.6548

 - Thermochemistry -
 -------------------
 Temperature   298.150 Kelvin.  Pressure   1.00000 Atm.
 Atom     1 has atomic number  7 and mass  14.00307

 Molecular mass:   334.93487 amu.
 Principal axes and moments of inertia in atomic units:
                           1         2         3
     Eigenvalues --  4520.308028612.10237**********
           X            0.98194   0.15430  -0.10944
           Y           -0.15662   0.98757  -0.01285
           Z            0.10610   0.02976   0.99391
 This molecule is an asymmetric top.
 Rotational symmetry number  1.
 Warning -- assumption of classical behavior for rotation
           may cause significant error
 Rotational temperatures (Kelvin)      0.01916     0.01006     0.00660
 Rotational constants (GHZ):           0.39925     0.20956     0.13749
 Zero-point vibrational energy     455063.2 (Joules/Mol)
                                  108.76271 (Kcal/Mol)
 Warning -- explicit consideration of  26 degrees of freedom as
           vibrations may cause significant error
 Vibrational temperatures:     35.54    53.15   119.58   173.43   192.53
          (Kelvin)            201.56   254.98   272.89   340.12   384.65
                              409.66   439.07   471.61   482.75   531.62
                              556.36   567.64   626.86   639.77   695.45
                              706.62   713.37   725.04   797.22   821.54
                              892.11   967.37   982.08  1013.84  1016.48
                             1037.01  1069.83  1108.87  1134.28  1141.88
                             1267.13  1273.84  1328.76  1392.35  1422.94
                             1443.53  1475.49  1498.16  1588.68  1605.15
                             1650.73  1653.38  1703.60  1755.20  1758.54
                             1849.79  1882.33  1932.76  1965.06  1993.88
                             2069.37  2109.90  2127.13  2150.01  2178.30
                             2221.34  2293.85  2303.48  2337.35  2346.79
                             4546.43  4566.85  4590.93  4599.76  4617.41
                             5118.46  5267.63

 Zero-point correction=                           0.173324 (Hartree/Particle)
 Thermal correction to Energy=                    0.188907
 Thermal correction to Enthalpy=                  0.189851
 Thermal correction to Gibbs Free Energy=         0.128201
 Sum of electronic and zero-point Energies=          -3777.455442
 Sum of electronic and thermal Energies=             -3777.439860
 Sum of electronic and thermal Enthalpies=           -3777.438916
 Sum of electronic and thermal Free Energies=        -3777.500566

                     E (Thermal)             CV                S
                      KCal/Mol        Cal/Mol-Kelvin    Cal/Mol-Kelvin
 Total                  118.541             60.322            129.754
 Electronic               0.000              0.000              1.377
 Translational            0.889              2.981             43.321
 Rotational               0.889              2.981             34.590
 Vibrational            116.763             54.361             50.466
 Vibration     1          0.593              1.985              6.215
 Vibration     2          0.594              1.982              5.417
 Vibration     3          0.600              1.961              3.816
 Vibration     4          0.609              1.932              3.092
 Vibration     5          0.613              1.920              2.890
 Vibration     6          0.615              1.913              2.803
 Vibration     7          0.628              1.870              2.357
 Vibration     8          0.633              1.854              2.231
 Vibration     9          0.655              1.785              1.830
 Vibration    10          0.672              1.733              1.613
 Vibration    11          0.683              1.702              1.505
 Vibration    12          0.696              1.664              1.388
 Vibration    13          0.711              1.620              1.271
 Vibration    14          0.717              1.605              1.233
 Vibration    15          0.742              1.535              1.082
 Vibration    16          0.755              1.499              1.013
 Vibration    17          0.761              1.482              0.983
 Vibration    18          0.796              1.392              0.840
 Vibration    19          0.804              1.373              0.812
 Vibration    20          0.840              1.287              0.701
 Vibration    21          0.847              1.270              0.681
 Vibration    22          0.851              1.259              0.669
 Vibration    23          0.859              1.241              0.648
 Vibration    24          0.910              1.131              0.536
 Vibration    25          0.927              1.094              0.502
 Vibration    26          0.980              0.990              0.416

 Optimization completed.
    -- Stationary point found.
 Normal termination of Gaussian 16 at Sat Feb 10 19:28:56 2024.
