 Gaussian 16, Revision A.03,
 Gaussian 16:  ES64L-G16RevA.03 25-Dec-2016

 ----------------------------------------------------------------------
 #P UB3LYP/6-311++G(d,p) nosym opt freq SCRF=(PCM,Solvent=n,n-DiMethylF
 ormamide)
 ----------------------------------------------------------------------

 --------
 Oxidized
 --------
 Symbolic Z-matrix:
 Charge =  0 Multiplicity = 1

 SCF Done:  E(UB3LYP) =  -964.452744800     A.U. after   16 cycles
 SCF Done:  E(UB3LYP) =  -964.452822023     A.U. after   11 cycles
 SCF Done:  E(UB3LYP) =  -964.452830872     A.U. after   11 cycles
 SCF Done:  E(UB3LYP) =  -964.452833479     A.U. after   10 cycles
 SCF Done:  E(UB3LYP) =  -964.452834510     A.U. after   11 cycles
 SCF Done:  E(UB3LYP) =  -964.452835245     A.U. after   11 cycles
 SCF Done:  E(UB3LYP) =  -964.452835761     A.U. after   11 cycles
 SCF Done:  E(UB3LYP) =  -964.452836014     A.U. after   10 cycles
 SCF Done:  E(UB3LYP) =  -964.452836112     A.U. after   10 cycles
 SCF Done:  E(UB3LYP) =  -964.452836122     A.U. after    8 cycles
 Optimization completed.
    -- Stationary point found.
 Normal termination of Gaussian 16 at Sun Feb 11 01:58:28 2024.

 ----------------------------------------------------------------------
 #P Geom=AllCheck Guess=TCheck SCRF=Check GenChk UB3LYP/6-311++G(d,p) F
 req
 ----------------------------------------------------------------------

 Structure from the checkpoint file:  "287.chk"
 --------
 Oxidized
 --------
 Charge =  0 Multiplicity = 1

                          Input orientation:
 ---------------------------------------------------------------------
 Center     Atomic      Atomic             Coordinates (Angstroms)
 Number     Number       Type             X           Y           Z
 ---------------------------------------------------------------------
      1          6           0       -0.318752    3.837154   -0.221688
      2          6           0       -1.543229    3.245217   -0.520269
      3          6           0       -1.593150    1.904843   -0.905261
      4          6           0        0.855741    3.086203   -0.308968
      5          6           0        0.809063    1.735339   -0.696285
      6          6           0       -0.421769    1.152569   -0.992551
      7          6           0        2.157402    3.698863    0.004104
      8          6           0        3.380612    2.851983   -0.110489
      9          6           0        3.360061    1.546344   -0.476073
     10          6           0        2.063424    0.917676   -0.792780
     11          8           0        2.303461    4.865913    0.354570
     12          8           0        2.003876   -0.261782   -1.128712
     13          1           0       -0.261798    4.875828    0.078982
     14          1           0       -2.455307    3.826027   -0.453429
     15          1           0       -2.546035    1.444187   -1.137964
     16          1           0       -0.452226    0.112305   -1.290339
     17          8           0        4.522456    3.492654    0.185922
     18          6           0        4.615721    0.728566   -0.599553
     19          6           0        5.229584    0.782703   -2.015427
     20          6           0        6.505821   -0.056352   -2.136687
     21          6           0        7.135581   -0.002294   -3.533226
     22          6           0        8.414158   -0.838270   -3.661551
     23          1           0        4.275682    4.405286    0.429050
     24          1           0        4.383153   -0.309465   -0.350663
     25          1           0        5.351056    1.088988    0.124409
     26          1           0        5.450494    1.825075   -2.271147
     27          1           0        4.488879    0.431220   -2.742004
     28          1           0        6.278889   -1.099124   -1.880657
     29          1           0        7.237674    0.289881   -1.395669
     30          1           0        7.359740    1.041709   -3.787573
     31          1           0        6.402478   -0.347183   -4.273786
     32          1           0        8.189367   -1.883020   -3.410508
     33          1           0        9.145602   -0.495764   -2.918081
     34          6           0        9.047500   -0.779385   -5.056357
     35          1           0        9.272613    0.265628   -5.306416
     36          1           0        8.315413   -1.120407   -5.799982
     37          6           0       10.325528   -1.615306   -5.187393
     38          1           0       10.100971   -2.661285   -4.940289
     39          1           0       11.057781   -1.276336   -4.442766
     40          6           0       10.961244   -1.553690   -6.581031
     41          6           0       12.237099   -2.392422   -6.702722
     42          1           0       11.186796   -0.508952   -6.827778
     43          1           0       10.230098   -1.891982   -7.325488
     44          1           0       12.999930   -2.055398   -5.993367
     45          1           0       12.664895   -2.326290   -7.707237
     46          1           0       12.036260   -3.448544   -6.495509
 ---------------------------------------------------------------------

 SCF Done:  E(UB3LYP) =  -964.452836122     A.U. after    2 cycles

 Alpha  occ. eigenvalues --  -19.18102 -19.15111 -19.13030 -10.29533 -10.28232
 Alpha  occ. eigenvalues --  -10.26923 -10.21328 -10.21217 -10.20549 -10.20383
 Alpha  occ. eigenvalues --  -10.20194 -10.20025 -10.20007 -10.17796 -10.16908
 Alpha  occ. eigenvalues --  -10.16288 -10.16162 -10.16087 -10.15991 -10.15948
 Alpha  occ. eigenvalues --  -10.15922 -10.15529  -1.11023  -1.06872  -1.06156
 Alpha  occ. eigenvalues --   -0.89496  -0.84625  -0.81316  -0.80005  -0.78391
 Alpha  occ. eigenvalues --   -0.78176  -0.75876  -0.72719  -0.70002  -0.67773
 Alpha  occ. eigenvalues --   -0.65769  -0.64076  -0.61456  -0.60673  -0.58718
 Alpha  occ. eigenvalues --   -0.57706  -0.57513  -0.57309  -0.54495  -0.52078
 Alpha  occ. eigenvalues --   -0.49996  -0.48562  -0.48071  -0.47365  -0.46931
 Alpha  occ. eigenvalues --   -0.46800  -0.45539  -0.45220  -0.43908  -0.43654
 Alpha  occ. eigenvalues --   -0.43414  -0.42566  -0.41581  -0.41396  -0.40784
 Alpha  occ. eigenvalues --   -0.40514  -0.40010  -0.38604  -0.37934  -0.37629
 Alpha  occ. eigenvalues --   -0.37332  -0.37194  -0.35660  -0.34868  -0.34783
 Alpha  occ. eigenvalues --   -0.33277  -0.33097  -0.32391  -0.32271  -0.32028
 Alpha  occ. eigenvalues --   -0.30816  -0.30300  -0.29173  -0.28238  -0.28055
 Alpha  occ. eigenvalues --   -0.25851
 Alpha virt. eigenvalues --   -0.12793  -0.05861  -0.02813  -0.00975  -0.00343
 Alpha virt. eigenvalues --    0.00170   0.00597   0.00676   0.01169   0.01486
 Alpha virt. eigenvalues --    0.01982   0.02230   0.02335   0.02654   0.03295

  Beta  occ. eigenvalues --  -19.18102 -19.15111 -19.13030 -10.29533 -10.28232
  Beta  occ. eigenvalues --  -10.26923 -10.21328 -10.21217 -10.20549 -10.20383
  Beta  occ. eigenvalues --  -10.20194 -10.20025 -10.20007 -10.17796 -10.16908
  Beta  occ. eigenvalues --  -10.16288 -10.16162 -10.16087 -10.15991 -10.15948
  Beta  occ. eigenvalues --  -10.15922 -10.15529  -1.11023  -1.06872  -1.06156
  Beta  occ. eigenvalues --   -0.89496  -0.84625  -0.81316  -0.80005  -0.78391
  Beta  occ. eigenvalues --   -0.78176  -0.75876  -0.72719  -0.70002  -0.67773
  Beta  occ. eigenvalues --   -0.65769  -0.64076  -0.61456  -0.60673  -0.58718
  Beta  occ. eigenvalues --   -0.57706  -0.57513  -0.57309  -0.54495  -0.52078
  Beta  occ. eigenvalues --   -0.49996  -0.48562  -0.48071  -0.47365  -0.46931
  Beta  occ. eigenvalues --   -0.46800  -0.45539  -0.45220  -0.43908  -0.43654
  Beta  occ. eigenvalues --   -0.43414  -0.42566  -0.41581  -0.41396  -0.40784
  Beta  occ. eigenvalues --   -0.40514  -0.40010  -0.38604  -0.37934  -0.37629
  Beta  occ. eigenvalues --   -0.37332  -0.37194  -0.35660  -0.34868  -0.34783
  Beta  occ. eigenvalues --   -0.33277  -0.33097  -0.32391  -0.32271  -0.32028
  Beta  occ. eigenvalues --   -0.30816  -0.30300  -0.29173  -0.28238  -0.28055
  Beta  occ. eigenvalues --   -0.25851
  Beta virt. eigenvalues --   -0.12793  -0.05861  -0.02813  -0.00975  -0.00343
  Beta virt. eigenvalues --    0.00170   0.00597   0.00676   0.01169   0.01486
  Beta virt. eigenvalues --    0.01982   0.02230   0.02335   0.02654   0.03295

 Mulliken charges and spin densities:
               1          2
     1  C    0.138684  -0.000000
     2  C   -0.376293   0.000000
     3  C   -0.395900   0.000000
     4  C    0.584179  -0.000000
     5  C   -0.138129   0.000000
     6  C    0.143921   0.000000
     7  C   -0.839087   0.000000
     8  C   -0.457216  -0.000000
     9  C    1.918265   0.000000
    10  C   -0.779559   0.000000
    11  O   -0.314803  -0.000000
    12  O   -0.281558   0.000000
    13  H    0.191270   0.000000
    14  H    0.211600   0.000000
    15  H    0.207681  -0.000000
    16  H    0.192274  -0.000000
    17  O   -0.219673  -0.000000
    18  C   -0.373673  -0.000000
    19  C   -0.783352   0.000000
    20  C   -0.215472  -0.000000
    21  C    0.045407  -0.000000
    22  C    0.015956  -0.000000
    23  H    0.307741  -0.000000
    24  H    0.220602  -0.000000
    25  H    0.234499  -0.000000
    26  H    0.177487   0.000000
    27  H    0.179611  -0.000000
    28  H    0.121771   0.000000
    29  H    0.119000   0.000000
    30  H    0.126680  -0.000000
    31  H    0.126637   0.000000
    32  H    0.132113  -0.000000
    33  H    0.131465  -0.000000
    34  C   -0.189443  -0.000000
    35  H    0.127443   0.000000
    36  H    0.127614   0.000000
    37  C   -0.396911   0.000000
    38  H    0.123557  -0.000000
    39  H    0.123487  -0.000000
    40  C   -0.266361  -0.000000
    41  C   -0.689383   0.000000
    42  H    0.130799  -0.000000
    43  H    0.130968  -0.000000
    44  H    0.139811  -0.000000
    45  H    0.146473   0.000000
    46  H    0.139818  -0.000000
 Sum of Mulliken charges =  -0.00000   0.00000

 Dipole moment (field-independent basis, Debye):
    X=             -2.5850    Y=              1.5881    Z=             -0.0798  Tot=              3.0349
 Quadrupole moment (field-independent basis, Debye-Ang):
   XX=           -129.3092   YY=           -137.4730   ZZ=           -136.5763
   XY=             -3.1640   XZ=              1.9295   YZ=             -2.7650

  Exact polarizability: 379.475 -14.367 363.485  -0.262  47.542 239.499
 Approx polarizability: 394.387   7.377 457.320  17.538  62.632 264.285

                      1                      2                      3
                      A                      A                      A
 Frequencies --     11.7744                20.7131                23.4371
 Red. masses --      5.4117                 4.8564                 1.7924
 Frc consts  --      0.0004                 0.0012                 0.0006
 IR Inten    --      0.2153                 1.0528                 0.0346

                      4                      5                      6
                      A                      A                      A
 Frequencies --     39.2058                51.0063                71.2609
 Red. masses --      3.0692                 5.2222                 3.1130
 Frc consts  --      0.0028                 0.0080                 0.0093
 IR Inten    --      0.2523                 3.8400                 1.6614

                      7                      8                      9
                      A                      A                      A
 Frequencies --     76.8342                95.8548               104.6578
 Red. masses --      3.1303                 2.0989                 4.9527
 Frc consts  --      0.0109                 0.0114                 0.0320
 IR Inten    --      2.2030                 0.1206                 0.0817

                     10                     11                     12
                      A                      A                      A
 Frequencies --    121.5688               124.0500               143.7055
 Red. masses --      5.8135                 1.9565                 4.0089
 Frc consts  --      0.0506                 0.0177                 0.0488
 IR Inten    --      0.0050                 0.0541                 0.0183

                     13                     14                     15
                      A                      A                      A
 Frequencies --    150.7907               161.7372               171.9103
 Red. masses --      2.0599                 1.9606                 6.5323
 Frc consts  --      0.0276                 0.0302                 0.1137
 IR Inten    --      0.0517                 0.0051                 1.3596

                     16                     17                     18
                      A                      A                      A
 Frequencies --    214.3244               243.7090               252.7786
 Red. masses --      4.0218                 1.1205                 4.3511
 Frc consts  --      0.1088                 0.0392                 0.1638
 IR Inten    --      0.0238                 0.0031                 0.4428

                     19                     20                     21
                      A                      A                      A
 Frequencies --    285.1823               305.2748               318.6862
 Red. masses --      3.9234                 2.9068                 4.7244
 Frc consts  --      0.1880                 0.1596                 0.2827
 IR Inten    --      0.2389                 6.5902                 2.4232

                     22                     23                     24
                      A                      A                      A
 Frequencies --    356.0178               371.9513               387.2637
 Red. masses --      5.3570                 3.5500                 9.9366
 Frc consts  --      0.4001                 0.2894                 0.8780
 IR Inten    --     22.0029                 0.4934                35.4923

                     25                     26                     27
                      A                      A                      A
 Frequencies --    418.7446               427.0121               444.8014
 Red. masses --      9.8644                 3.4958                 4.8645
 Frc consts  --      1.0191                 0.3756                 0.5670
 IR Inten    --     15.5894                 2.9865                 7.6200

                     28                     29                     30
                      A                      A                      A
 Frequencies --    449.5976               477.6770               490.8310
 Red. masses --      4.7322                 3.4033                 4.5003
 Frc consts  --      0.5636                 0.4575                 0.6388
 IR Inten    --      9.8362                 2.2309                 3.4443

                     31                     32                     33
                      A                      A                      A
 Frequencies --    528.1571               583.0721               608.0191
 Red. masses --      6.1996                 2.7690                 1.3915
 Frc consts  --      1.0189                 0.5547                 0.3031
 IR Inten    --      6.3406                63.9910                77.8892

                     34                     35                     36
                      A                      A                      A
 Frequencies --    653.5316               676.1781               705.6839
 Red. masses --      6.3525                 5.9751                 3.0446
 Frc consts  --      1.5986                 1.6096                 0.8933
 IR Inten    --      9.0643                 5.2178                 2.6541

                     37                     38                     39
                      A                      A                      A
 Frequencies --    711.5834               728.4211               730.9972
 Red. masses --      4.6963                 1.0623                 1.1267
 Frc consts  --      1.4011                 0.3321                 0.3547
 IR Inten    --      9.3026                15.8015                 1.2194

                     40                     41                     42
                      A                      A                      A
 Frequencies --    734.0975               742.1167               769.8678
 Red. masses --      2.3601                 1.2041                 1.2585
 Frc consts  --      0.7494                 0.3907                 0.4395
 IR Inten    --    114.0873                 4.9956                 0.1277

                     43                     44                     45
                      A                      A                      A
 Frequencies --    773.8254               805.8663               815.0455
 Red. masses --      7.2758                 1.9767                 1.4260
 Frc consts  --      2.5669                 0.7563                 0.5581
 IR Inten    --      1.8163                16.0174                 1.6469

                     46                     47                     48
                      A                      A                      A
 Frequencies --    860.6420               893.9571               906.4030
 Red. masses --      1.9181                 1.9644                 1.5436
 Frc consts  --      0.8371                 0.9249                 0.7472
 IR Inten    --     19.5956                 3.0763                 9.4376

                     49                     50                     51
                      A                      A                      A
 Frequencies --    910.6515               945.5128               968.8427
 Red. masses --      1.3448                 5.7913                 1.3856
 Frc consts  --      0.6571                 3.0504                 0.7663
 IR Inten    --      0.0151                62.3047                 6.3986

                     52                     53                     54
                      A                      A                      A
 Frequencies --    988.0853               995.3653               997.8298
 Red. masses --      4.5019                 3.6837                 1.4439
 Frc consts  --      2.5896                 2.1503                 0.8470
 IR Inten    --     33.6752                 3.9388                 2.0189

                     55                     56                     57
                      A                      A                      A
 Frequencies --   1018.9263              1021.6135              1027.5948
 Red. masses --      3.0175                 1.3342                 2.1818
 Frc consts  --      1.8458                 0.8205                 1.3574
 IR Inten    --     35.4061                 0.0878                 2.3385

                     58                     59                     60
                      A                      A                      A
 Frequencies --   1044.6431              1050.1858              1057.0519
 Red. masses --      1.7203                 2.7470                 1.8171
 Frc consts  --      1.1061                 1.7850                 1.1962
 IR Inten    --     34.6011                 1.9037                10.0856

                     61                     62                     63
                      A                      A                      A
 Frequencies --   1062.1934              1064.6282              1070.3326
 Red. masses --      2.5600                 2.2481                 2.6012
 Frc consts  --      1.7018                 1.5013                 1.7558
 IR Inten    --      1.3526                 0.5801                 5.4464

                     64                     65                     66
                      A                      A                      A
 Frequencies --   1109.6359              1130.8677              1135.6127
 Red. masses --      2.1582                 1.6366                 2.6490
 Frc consts  --      1.5657                 1.2332                 2.0128
 IR Inten    --      4.9917                66.2681                11.9114

                     67                     68                     69
                      A                      A                      A
 Frequencies --   1178.9277              1192.1128              1206.9234
 Red. masses --      1.1847                 2.2096                 1.7664
 Frc consts  --      0.9702                 1.8501                 1.5160
 IR Inten    --     46.4845                52.7971                25.8367

                     70                     71                     72
                      A                      A                      A
 Frequencies --   1226.4768              1232.8658              1246.7550
 Red. masses --      2.5030                 1.2539                 1.5363
 Frc consts  --      2.2184                 1.1229                 1.4069
 IR Inten    --    124.0198                 0.3527               146.6522

                     73                     74                     75
                      A                      A                      A
 Frequencies --   1271.7362              1279.3414              1284.1616
 Red. masses --      1.3791                 1.4343                 1.8100
 Frc consts  --      1.3141                 1.3832                 1.7586
 IR Inten    --     26.1456               126.3990               185.5617

                     76                     77                     78
                      A                      A                      A
 Frequencies --   1301.7352              1308.1650              1314.6177
 Red. masses --      1.6647                 1.5797                 1.3859
 Frc consts  --      1.6620                 1.5927                 1.4112
 IR Inten    --    254.6448                28.7657                 2.5025

                     79                     80                     81
                      A                      A                      A
 Frequencies --   1322.8985              1324.9047              1331.8440
 Red. masses --      1.4499                 1.0233                 1.1672
 Frc consts  --      1.4950                 1.0584                 1.2198
 IR Inten    --     69.9832                 0.7790                24.6131

                     82                     83                     84
                      A                      A                      A
 Frequencies --   1333.6266              1338.6979              1346.4883
 Red. masses --      1.1455                 1.6136                 1.3877
 Frc consts  --      1.2003                 1.7038                 1.4824
 IR Inten    --      9.9205                79.1659                 2.4582

                     85                     86                     87
                      A                      A                      A
 Frequencies --   1367.2368              1368.9236              1378.8093
 Red. masses --      6.2265                 1.4288                 2.1821
 Frc consts  --      6.8578                 1.5775                 2.4441
 IR Inten    --    120.0382                 1.2557               590.3130

                     88                     89                     90
                      A                      A                      A
 Frequencies --   1385.7935              1395.2579              1396.8385
 Red. masses --      1.5205                 1.5843                 1.6242
 Frc consts  --      1.7205                 1.8172                 1.8672
 IR Inten    --     14.7005                 1.8921                 0.7679

                     91                     92                     93
                      A                      A                      A
 Frequencies --   1403.7762              1470.0599              1470.6906
 Red. masses --      1.2642                 1.1066                 1.0715
 Frc consts  --      1.4678                 1.4090                 1.3654
 IR Inten    --      2.3725                 8.5934                 0.7572

                     94                     95                     96
                      A                      A                      A
 Frequencies --   1472.2118              1476.4907              1482.4882
 Red. masses --      1.0754                 1.0812                 1.1419
 Frc consts  --      1.3733                 1.3887                 1.4786
 IR Inten    --      1.5732                 1.7913                 2.0627

                     97                     98                     99
                      A                      A                      A
 Frequencies --   1484.0561              1487.9783              1489.7279
 Red. masses --      2.0783                 1.0401                 1.0898
 Frc consts  --      2.6969                 1.3569                 1.4250
 IR Inten    --      7.2921                10.1585                 2.0264

                    100                    101                    102
                      A                      A                      A
 Frequencies --   1496.9879              1503.3300              1504.7363
 Red. masses --      1.0941                 1.1048                 2.6447
 Frc consts  --      1.4445                 1.4710                 3.5282
 IR Inten    --      4.9760                 0.1378                 8.3985

                    103                    104                    105
                      A                      A                      A
 Frequencies --   1507.6179              1610.1049              1618.9439
 Red. masses --      1.0993                 6.6167                 6.0654
 Frc consts  --      1.4721                10.1065                 9.3663
 IR Inten    --     27.7467                29.0654               309.5834

                    106                    107                    108
                      A                      A                      A
 Frequencies --   1673.2055              1686.2532              1688.0725
 Red. masses --     10.4977                12.0012                 7.5653
 Frc consts  --     17.3158                20.1058                12.7015
 IR Inten    --    603.8201               369.3431               134.6729

                    109                    110                    111
                      A                      A                      A
 Frequencies --   2988.3083              2989.5407              2992.4014
 Red. masses --      1.0572                 1.0575                 1.0578
 Frc consts  --      5.5624                 5.5683                 5.5806
 IR Inten    --      2.4260                 1.8097                 3.5451

                    112                    113                    114
                      A                      A                      A
 Frequencies --   2994.8960              2999.9033              3002.9908
 Red. masses --      1.0585                 1.0592                 1.0595
 Frc consts  --      5.5940                 5.6160                 5.6293
 IR Inten    --      3.2418               117.3643               245.5678

                    115                    116                    117
                      A                      A                      A
 Frequencies --   3004.4142              3008.9096              3013.1215
 Red. masses --      1.0983                 1.0999                 1.0355
 Frc consts  --      5.8413                 5.8670                 5.5389
 IR Inten    --      0.4769                 0.0015                58.0142

                    118                    119                    120
                      A                      A                      A
 Frequencies --   3015.8546              3016.6422              3026.4085
 Red. masses --      1.0699                 1.0901                 1.1042
 Frc consts  --      5.7335                 5.8449                 5.9587
 IR Inten    --     48.5857                18.7981                 2.5137

                    121                    122                    123
                      A                      A                      A
 Frequencies --   3036.2874              3043.8118              3046.9646
 Red. masses --      1.1053                 1.1049                 1.0606
 Frc consts  --      6.0039                 6.0312                 5.8016
 IR Inten    --      0.5749               228.4181                66.4135

                    124                    125                    126
                      A                      A                      A
 Frequencies --   3054.2289              3071.7742              3076.7368
 Red. masses --      1.1035                 1.1026                 1.1011
 Frc consts  --      6.0651                 6.1299                 6.1413
 IR Inten    --    154.7419               117.9957                72.5020

                    127                    128                    129
                      A                      A                      A
 Frequencies --   3093.1369              3180.1732              3192.0757
 Red. masses --      1.1048                 1.0875                 1.0911
 Frc consts  --      6.2277                 6.4801                 6.5501
 IR Inten    --     34.2741                 3.1076                 8.2008

                    130                    131                    132
                      A                      A                      A
 Frequencies --   3202.9291              3206.8766              3618.2050
 Red. masses --      1.0935                 1.0952                 1.0645
 Frc consts  --      6.6093                 6.6362                 8.2111
 IR Inten    --      5.2803                14.0349               280.7092

 - Thermochemistry -
 -------------------
 Temperature   298.150 Kelvin.  Pressure   1.00000 Atm.
 Atom     1 has atomic number  6 and mass  12.00000

 Molecular mass:   300.17254 amu.
 Principal axes and moments of inertia in atomic units:
                           1         2         3
     Eigenvalues --  2517.95270********************
           X            0.82681   0.53786   0.16462
           Y           -0.36099   0.73184  -0.57801
           Z           -0.43136   0.41847   0.79925
 This molecule is an asymmetric top.
 Rotational symmetry number  1.
 Warning -- assumption of classical behavior for rotation
           may cause significant error
 Rotational temperatures (Kelvin)      0.03440     0.00342     0.00324
 Rotational constants (GHZ):           0.71675     0.07121     0.06756
 Zero-point vibrational energy    1025067.2 (Joules/Mol)
                                  244.99695 (Kcal/Mol)
 Warning -- explicit consideration of  33 degrees of freedom as
           vibrations may cause significant error
 Vibrational temperatures:     16.94    29.80    33.72    56.41    73.39
          (Kelvin)            102.53   110.55   137.91   150.58   174.91
                              178.48   206.76   216.95   232.70   247.34
                              308.37   350.64   363.69   410.31   439.22
                              458.52   512.23   535.16   557.19   602.48
                              614.38   639.97   646.87   687.27   706.20
                              759.90   838.91   874.80   940.29   972.87
                             1015.32  1023.81  1048.04  1051.74  1056.20
                             1067.74  1107.67  1113.36  1159.46  1172.67
                             1238.27  1286.20  1304.11  1310.22  1360.38
                             1393.95  1421.63  1432.11  1435.65  1466.01
                             1469.87  1478.48  1503.01  1510.98  1520.86
                             1528.26  1531.76  1539.97  1596.52  1627.07
                             1633.89  1696.21  1715.18  1736.49  1764.63
                             1773.82  1793.80  1829.74  1840.69  1847.62
                             1872.91  1882.16  1891.44  1903.36  1906.24
                             1916.23  1918.79  1926.09  1937.30  1967.15
                             1969.58  1983.80  1993.85  2007.46  2009.74
                             2019.72  2115.09  2116.00  2118.18  2124.34
                             2132.97  2135.23  2140.87  2143.39  2153.83
                             2162.96  2164.98  2169.13  2316.58  2329.30
                             2407.37  2426.14  2428.76  4299.51  4301.28
                             4305.40  4308.99  4316.19  4320.63  4322.68
                             4329.15  4335.21  4339.14  4340.28  4354.33
                             4368.54  4379.37  4383.90  4394.35  4419.60
                             4426.74  4450.33  4575.56  4592.69  4608.30
                             4613.98  5205.79

 Zero-point correction=                           0.390427 (Hartree/Particle)
 Thermal correction to Energy=                    0.412816
 Thermal correction to Enthalpy=                  0.413760
 Thermal correction to Gibbs Free Energy=         0.334824
 Sum of electronic and zero-point Energies=           -964.062409
 Sum of electronic and thermal Energies=              -964.040020
 Sum of electronic and thermal Enthalpies=            -964.039076
 Sum of electronic and thermal Free Energies=         -964.118013

                     E (Thermal)             CV                S
                      KCal/Mol        Cal/Mol-Kelvin    Cal/Mol-Kelvin
 Total                  259.046             83.268            166.137
 Electronic               0.000              0.000              0.000
 Translational            0.889              2.981             42.994
 Rotational               0.889              2.981             35.787
 Vibrational            257.269             77.306             87.355
 Vibration     1          0.593              1.987              7.687
 Vibration     2          0.593              1.986              6.565
 Vibration     3          0.593              1.985              6.319
 Vibration     4          0.594              1.981              5.299
 Vibration     5          0.595              1.977              4.778
 Vibration     6          0.598              1.968              4.118
 Vibration     7          0.599              1.965              3.970
 Vibration     8          0.603              1.952              3.537
 Vibration     9          0.605              1.945              3.366
 Vibration    10          0.609              1.931              3.075
 Vibration    11          0.610              1.929              3.036
 Vibration    12          0.616              1.909              2.754
 Vibration    13          0.618              1.902              2.662
 Vibration    14          0.622              1.889              2.529
 Vibration    15          0.626              1.877              2.414
 Vibration    16          0.644              1.819              2.007
 Vibration    17          0.659              1.773              1.776
 Vibration    18          0.664              1.758              1.711
 Vibration    19          0.683              1.701              1.502
 Vibration    20          0.696              1.664              1.388
 Vibration    21          0.705              1.638              1.317
 Vibration    22          0.732              1.563              1.139
 Vibration    23          0.744              1.530              1.072
 Vibration    24          0.756              1.497              1.011
 Vibration    25          0.782              1.430              0.896
 Vibration    26          0.789              1.411              0.868
 Vibration    27          0.804              1.372              0.812
 Vibration    28          0.808              1.362              0.797
 Vibration    29          0.834              1.300              0.716
 Vibration    30          0.847              1.270              0.681
 Vibration    31          0.883              1.188              0.591
 Vibration    32          0.940              1.068              0.480
 Vibration    33          0.967              1.015              0.436

 Optimization completed.
    -- Stationary point found.
 Normal termination of Gaussian 16 at Sun Feb 11 03:54:21 2024.
