 Gaussian 16, Revision A.03,
 Gaussian 16:  ES64L-G16RevA.03 25-Dec-2016

 --------------------------------------
 #P UB3LYP/6-311++G(d,p) nosym opt freq
 --------------------------------------

 -------
 Radical
 -------
 Symbolic Z-matrix:
 Charge = -1 Multiplicity = 2

 SCF Done:  E(UB3LYP) =  -2015.35321135     A.U. after   28 cycles
 SCF Done:  E(UB3LYP) =  -2015.40733472     A.U. after   20 cycles
 SCF Done:  E(UB3LYP) =  -2015.44350677     A.U. after   20 cycles
 SCF Done:  E(UB3LYP) =  -2015.44647833     A.U. after   18 cycles
 SCF Done:  E(UB3LYP) =  -2015.44734674     A.U. after   17 cycles
 SCF Done:  E(UB3LYP) =  -2015.44803932     A.U. after   23 cycles
 SCF Done:  E(UB3LYP) =  -2015.44820926     A.U. after   17 cycles
 SCF Done:  E(UB3LYP) =  -2015.44835121     A.U. after   16 cycles
 SCF Done:  E(UB3LYP) =  -2015.44838051     A.U. after   17 cycles
 SCF Done:  E(UB3LYP) =  -2015.44839511     A.U. after   14 cycles
 SCF Done:  E(UB3LYP) =  -2015.44841074     A.U. after   14 cycles
 SCF Done:  E(UB3LYP) =  -2015.44841736     A.U. after   13 cycles
 SCF Done:  E(UB3LYP) =  -2015.44842001     A.U. after   13 cycles
 SCF Done:  E(UB3LYP) =  -2015.44842032     A.U. after   12 cycles
 SCF Done:  E(UB3LYP) =  -2015.44842035     A.U. after   11 cycles
 Optimization completed.
    -- Stationary point found.
 Normal termination of Gaussian 16 at Thu Dec 21 23:11:09 2023.

 ----------------------------------------------------------------------
 #P Geom=AllCheck Guess=TCheck SCRF=Check GenChk UB3LYP/6-311++G(d,p) F
 req
 ----------------------------------------------------------------------

 Structure from the checkpoint file:  "217-rad.chk"
 -------
 Radical
 -------
 Charge = -1 Multiplicity = 2

                          Input orientation:
 ---------------------------------------------------------------------
 Center     Atomic      Atomic             Coordinates (Angstroms)
 Number     Number       Type             X           Y           Z
 ---------------------------------------------------------------------
      1          6           0        4.987371   -2.043190    0.490842
      2          6           0        5.729149   -1.338044   -0.438167
      3          6           0        5.116362   -0.606462   -1.481224
      4          6           0        3.585637   -2.041330    0.408441
      5          6           0        2.945637   -1.313130   -0.636385
      6          6           0        3.743165   -0.603052   -1.564139
      7          6           0        2.821644   -2.800286    1.410608
      8          6           0        1.358627   -2.760001    1.262051
      9          6           0        0.725788   -2.029894    0.214201
     10          6           0        1.491032   -1.276508   -0.777805
     11          6           0        0.570989   -3.467937    2.183992
     12          6           0       -0.686422   -2.033687    0.133008
     13          6           0       -1.455885   -2.728599    1.037270
     14          8           0        3.376750   -3.438648    2.321485
     15          8           0        0.930680   -0.635242   -1.699833
     16          1           0        5.458012   -2.597886    1.292853
     17         16           0        7.494548   -1.377783   -0.346054
     18          1           0       -2.536883   -2.723155    0.982510
     19          1           0        3.231052   -0.052166   -2.343573
     20          1           0        1.066908   -4.013711    2.976842
     21          1           0       -1.141706   -1.464987   -0.668587
     22          6           0       -0.806113   -3.447113    2.066887
     23         16           0       -1.785610   -4.371785    3.212488
     24          8           0       -1.065294   -4.623250    4.457931
     25          8           0       -3.146086   -3.837510    3.276933
     26          8           0       -1.861004   -5.810869    2.382954
     27          6           0       -2.562274   -6.871437    3.056757
     28          1           0       -2.071779   -7.117055    4.001627
     29          1           0       -2.512201   -7.722738    2.379373
     30          1           0       -3.605280   -6.594997    3.231340
     31          1           0        5.726960   -0.054255   -2.183962
     32          8           0        7.957150   -1.721300    0.996002
     33          8           0        8.072867   -0.213850   -1.017906
     34          8           0        7.772662   -2.696180   -1.320390
     35          6           0        9.153005   -3.080117   -1.453756
     36          1           0        9.571764   -3.353187   -0.482262
     37          1           0        9.736361   -2.273485   -1.905174
     38          1           0        9.146207   -3.947185   -2.112710
 ---------------------------------------------------------------------

 SCF Done:  E(UB3LYP) =  -2015.44842035     A.U. after    2 cycles

 Alpha  occ. eigenvalues --  -88.99359 -88.99358 -19.08865 -19.08864 -19.04177
 Alpha  occ. eigenvalues --  -19.04175 -19.04175 -19.04175 -18.98894 -18.98181
 Alpha  occ. eigenvalues --  -10.15981 -10.15981 -10.14233 -10.13062 -10.12579
 Alpha  occ. eigenvalues --  -10.12578 -10.10310 -10.10310 -10.10258 -10.10258
 Alpha  occ. eigenvalues --  -10.09316 -10.09315 -10.09239 -10.09238 -10.08963
 Alpha  occ. eigenvalues --  -10.08963  -8.05476  -8.05476  -6.01864  -6.01863
 Alpha  occ. eigenvalues --   -6.01671  -6.01671  -6.01512  -6.01512  -1.06222
 Alpha  occ. eigenvalues --   -1.06222  -0.95895  -0.95895  -0.93350  -0.93349
 Alpha  occ. eigenvalues --   -0.91969  -0.90828  -0.78962  -0.78412  -0.72288
 Alpha  occ. eigenvalues --   -0.69777  -0.68190  -0.67335  -0.65926  -0.64842
 Alpha  occ. eigenvalues --   -0.59998  -0.57796  -0.57508  -0.53213  -0.52710
 Alpha  occ. eigenvalues --   -0.50945  -0.48294  -0.47306  -0.47174  -0.43906
 Alpha  occ. eigenvalues --   -0.43595  -0.42315  -0.41629  -0.40793  -0.40580
 Alpha  occ. eigenvalues --   -0.39331  -0.38535  -0.38170  -0.37667  -0.37063
 Alpha  occ. eigenvalues --   -0.36968  -0.35131  -0.34737  -0.34113  -0.33775
 Alpha  occ. eigenvalues --   -0.33592  -0.32464  -0.32385  -0.32221  -0.30847
 Alpha  occ. eigenvalues --   -0.29652  -0.29068  -0.28925  -0.27239  -0.26812
 Alpha  occ. eigenvalues --   -0.26772  -0.26714  -0.26348  -0.25940  -0.25500
 Alpha  occ. eigenvalues --   -0.24200  -0.24171  -0.23989  -0.23901  -0.21313
 Alpha  occ. eigenvalues --   -0.21311  -0.18561  -0.18266  -0.17644  -0.17493
 Alpha  occ. eigenvalues --   -0.15444  -0.14518  -0.05609
 Alpha virt. eigenvalues --    0.02263   0.03267   0.05910   0.06075   0.07468
 Alpha virt. eigenvalues --    0.08085   0.08451   0.09327   0.09483   0.09548
 Alpha virt. eigenvalues --    0.09854   0.10023   0.10307   0.10746   0.11728

  Beta  occ. eigenvalues --  -88.99358 -88.99357 -19.08857 -19.08856 -19.04174
  Beta  occ. eigenvalues --  -19.04172 -19.04168 -19.04167 -18.98397 -18.97476
  Beta  occ. eigenvalues --  -10.15977 -10.15977 -10.14173 -10.12944 -10.12503
  Beta  occ. eigenvalues --  -10.12503 -10.10357 -10.10357 -10.10196 -10.10195
  Beta  occ. eigenvalues --  -10.09202 -10.09200 -10.09143 -10.09143 -10.08966
  Beta  occ. eigenvalues --  -10.08966  -8.05475  -8.05475  -6.01858  -6.01857
  Beta  occ. eigenvalues --   -6.01671  -6.01670  -6.01514  -6.01513  -1.06205
  Beta  occ. eigenvalues --   -1.06205  -0.95879  -0.95879  -0.93339  -0.93338
  Beta  occ. eigenvalues --   -0.91135  -0.89622  -0.78730  -0.78290  -0.71903
  Beta  occ. eigenvalues --   -0.69633  -0.67989  -0.67218  -0.65801  -0.64750
  Beta  occ. eigenvalues --   -0.59598  -0.57469  -0.57358  -0.53075  -0.52576
  Beta  occ. eigenvalues --   -0.50873  -0.48194  -0.47246  -0.46941  -0.43844
  Beta  occ. eigenvalues --   -0.43515  -0.42216  -0.41535  -0.40737  -0.40560
  Beta  occ. eigenvalues --   -0.39186  -0.38475  -0.38096  -0.37603  -0.37029
  Beta  occ. eigenvalues --   -0.36919  -0.35106  -0.34719  -0.33900  -0.33669
  Beta  occ. eigenvalues --   -0.32544  -0.32439  -0.32248  -0.31933  -0.30342
  Beta  occ. eigenvalues --   -0.29438  -0.28834  -0.27166  -0.26824  -0.26689
  Beta  occ. eigenvalues --   -0.26669  -0.26278  -0.26069  -0.25916  -0.25124
  Beta  occ. eigenvalues --   -0.24190  -0.24161  -0.23918  -0.23576  -0.21294
  Beta  occ. eigenvalues --   -0.21292  -0.17922  -0.16849  -0.16759  -0.16084
  Beta  occ. eigenvalues --   -0.14939  -0.13901
  Beta virt. eigenvalues --    0.00183   0.02909   0.04209   0.05947   0.06172
  Beta virt. eigenvalues --    0.07679   0.08103   0.08456   0.09388   0.09483
  Beta virt. eigenvalues --    0.09697   0.10028   0.10030   0.10600   0.10753

 Mulliken charges and spin densities:
               1          2
     1  C    0.036127  -0.029339
     2  C   -0.771075   0.039643
     3  C   -0.307654   0.050856
     4  C    0.438170   0.061411
     5  C    0.488790   0.073690
     6  C   -0.117322   0.022929
     7  C   -0.958973   0.030406
     8  C    0.431864   0.061171
     9  C    0.485237   0.073327
    10  C   -0.539277   0.072460
    11  C    0.031222  -0.029328
    12  C   -0.115348   0.022867
    13  C   -0.307078   0.050794
    14  O   -0.296037   0.184198
    15  O   -0.339534   0.264418
    16  H    0.233038   0.001155
    17  S    0.247457   0.006029
    18  H    0.208435  -0.003634
    19  H    0.169093  -0.001906
    20  H    0.232716   0.001149
    21  H    0.169132  -0.001914
    22  C   -0.764721   0.039686
    23  S    0.248756   0.005916
    24  O   -0.179863   0.002525
    25  O   -0.175103  -0.000946
    26  O   -0.044210   0.000418
    27  C   -0.134757   0.001099
    28  H    0.162548   0.000154
    29  H    0.157787   0.000462
    30  H    0.157256   0.000152
    31  H    0.208285  -0.003642
    32  O   -0.178163   0.002514
    33  O   -0.176461  -0.000975
    34  O   -0.043640   0.000393
    35  C   -0.134176   0.001087
    36  H    0.162506   0.000155
    37  H    0.157215   0.000153
    38  H    0.157759   0.000466
 Sum of Mulliken charges =  -1.00000   1.00000

 Dipole moment (field-independent basis, Debye):
    X=            -11.7674    Y=              8.4316    Z=             -6.3598  Tot=             15.8117
 Quadrupole moment (field-independent basis, Debye-Ang):
   XX=           -257.6973   YY=           -186.8744   ZZ=           -207.4843
   XY=              7.0052   XZ=             -7.3307   YZ=             29.5716

  Exact polarizability: 492.719  69.021 232.318 -81.738 -84.380 262.358
 Approx polarizability: 670.400  54.750 363.321 -50.597-146.998 451.667

                      1                      2                      3
                      A                      A                      A
 Frequencies --     16.6752                16.8158                28.7593
 Red. masses --      5.2224                 5.2934                 6.4595
 Frc consts  --      0.0009                 0.0009                 0.0031
 IR Inten    --      1.7324                 1.3494                 2.1871

                      4                      5                      6
                      A                      A                      A
 Frequencies --     46.2840                48.8067                52.7575
 Red. masses --      3.9712                 3.7666                 3.9787
 Frc consts  --      0.0050                 0.0053                 0.0065
 IR Inten    --      1.8274                 1.1783                 0.0002

                      7                      8                      9
                      A                      A                      A
 Frequencies --     75.9803                79.3797               118.2295
 Red. masses --      6.7772                 9.7553                 4.6004
 Frc consts  --      0.0231                 0.0362                 0.0379
 IR Inten    --      2.9291                 1.6520                 0.0045

                     10                     11                     12
                      A                      A                      A
 Frequencies --    132.8788               136.1041               144.4742
 Red. masses --      5.3736                 5.9266                 1.1417
 Frc consts  --      0.0559                 0.0647                 0.0140
 IR Inten    --      0.0232                 6.2822                 0.9232

                     13                     14                     15
                      A                      A                      A
 Frequencies --    145.8236               161.7475               188.8445
 Red. masses --      1.2315                 7.1504                11.3631
 Frc consts  --      0.0154                 0.1102                 0.2388
 IR Inten    --      0.1748                 4.5891                 1.5819

                     16                     17                     18
                      A                      A                      A
 Frequencies --    194.1036               222.9150               244.9991
 Red. masses --      5.4244                10.4247                 4.9490
 Frc consts  --      0.1204                 0.3052                 0.1750
 IR Inten    --      5.1389                 2.8871                11.8778

                     19                     20                     21
                      A                      A                      A
 Frequencies --    254.0723               266.0653               268.2353
 Red. masses --      9.3389                10.9536                 5.7651
 Frc consts  --      0.3552                 0.4569                 0.2444
 IR Inten    --      2.1084                 4.7232                13.0808

                     22                     23                     24
                      A                      A                      A
 Frequencies --    327.2461               352.5907               365.6941
 Red. masses --      5.6675                 5.6369                 7.2686
 Frc consts  --      0.3576                 0.4129                 0.5727
 IR Inten    --      2.0670                 0.3686                13.2165

                     25                     26                     27
                      A                      A                      A
 Frequencies --    369.3681               390.9406               423.3236
 Red. masses --      7.4749                10.4607                 3.5688
 Frc consts  --      0.6009                 0.9420                 0.3768
 IR Inten    --      0.0127                 0.2677                 0.8416

                     28                     29                     30
                      A                      A                      A
 Frequencies --    437.2498               452.6114               456.2996
 Red. masses --      8.6315                 7.9689                10.6606
 Frc consts  --      0.9723                 0.9618                 1.3078
 IR Inten    --      1.8892                 1.2620                55.7953

                     31                     32                     33
                      A                      A                      A
 Frequencies --    468.1480               474.2801               478.3983
 Red. masses --      3.3587                11.0823                 9.1794
 Frc consts  --      0.4337                 1.4688                 1.2378
 IR Inten    --      3.3439                 2.4741                 0.4993

                     34                     35                     36
                      A                      A                      A
 Frequencies --    494.6215               497.3471               505.7446
 Red. masses --     10.2480                 7.8804                 9.2765
 Frc consts  --      1.4772                 1.1485                 1.3980
 IR Inten    --      8.8396                 4.0267                 3.5906

                     37                     38                     39
                      A                      A                      A
 Frequencies --    549.6007               611.1208               611.3220
 Red. masses --      5.9899                 9.6891                 8.3356
 Frc consts  --      1.0660                 2.1320                 1.8354
 IR Inten    --     54.3339               311.5042                56.5384

                     40                     41                     42
                      A                      A                      A
 Frequencies --    634.4777               652.0276               666.1896
 Red. masses --      5.0189                 7.9222                 6.7142
 Frc consts  --      1.1904                 1.9844                 1.7557
 IR Inten    --     37.4131                 2.3446               279.2645

                     43                     44                     45
                      A                      A                      A
 Frequencies --    668.1818               699.5632               704.5103
 Red. masses --     10.2718                 7.9060                 7.2301
 Frc consts  --      2.7020                 2.2796                 2.1143
 IR Inten    --    365.0435               115.8568                44.4010

                     46                     47                     48
                      A                      A                      A
 Frequencies --    725.4114               732.9935               739.5175
 Red. masses --      5.0591                 5.5477                 8.0544
 Frc consts  --      1.5685                 1.7562                 2.5953
 IR Inten    --     28.6735                 1.6336               219.6972

                     49                     50                     51
                      A                      A                      A
 Frequencies --    806.1002               832.1274               845.6903
 Red. masses --      3.4135                 1.3693                 1.8611
 Frc consts  --      1.3069                 0.5586                 0.7842
 IR Inten    --      0.8156                 0.5434                29.7962

                     52                     53                     54
                      A                      A                      A
 Frequencies --    852.0327               933.9316               956.4322
 Red. masses --      7.2172                 6.6359                 1.3665
 Frc consts  --      3.0869                 3.4102                 0.7365
 IR Inten    --     13.2250                 3.2230                 0.3532

                     55                     56                     57
                      A                      A                      A
 Frequencies --    963.8428               987.9154               997.1624
 Red. masses --      1.4371                 5.8496                 1.3106
 Frc consts  --      0.7866                 3.3637                 0.7678
 IR Inten    --      3.7514                99.2954                 0.0935

                     58                     59                     60
                      A                      A                      A
 Frequencies --    999.2461              1003.2696              1005.3132
 Red. masses --      1.3272                 8.1550                 9.8038
 Frc consts  --      0.7808                 4.8362                 5.8378
 IR Inten    --      3.0540               497.4289               238.9071

                     61                     62                     63
                      A                      A                      A
 Frequencies --   1066.5668              1067.8564              1104.7817
 Red. masses --      2.3620                 2.3112                 6.8826
 Frc consts  --      1.5831                 1.5528                 4.9495
 IR Inten    --     78.6209                12.0338               143.8738

                     64                     65                     66
                      A                      A                      A
 Frequencies --   1107.3837              1134.9968              1136.8553
 Red. masses --      4.9050                 1.9437                 2.2905
 Frc consts  --      3.5440                 1.4753                 1.7442
 IR Inten    --   1010.2833                76.7978                19.6261

                     67                     68                     69
                      A                      A                      A
 Frequencies --   1167.6560              1167.6921              1180.7105
 Red. masses --      1.2681                 1.2680                 2.6672
 Frc consts  --      1.0187                 1.0186                 2.1907
 IR Inten    --      1.0607                 2.0376                15.5673

                     70                     71                     72
                      A                      A                      A
 Frequencies --   1184.1669              1185.6987              1188.2893
 Red. masses --      1.7133                 1.4233                 3.3900
 Frc consts  --      1.4155                 1.1789                 2.8203
 IR Inten    --    149.7149                10.7910                96.1146

                     73                     74                     75
                      A                      A                      A
 Frequencies --   1198.3896              1228.6759              1255.2901
 Red. masses --      2.6148                 1.5995                 1.6058
 Frc consts  --      2.2125                 1.4227                 1.4908
 IR Inten    --      2.3898                 8.6459                94.3130

                     76                     77                     78
                      A                      A                      A
 Frequencies --   1282.4727              1282.9438              1312.9657
 Red. masses --     18.9412                14.9284                 2.0953
 Frc consts  --     18.3550                14.4770                 2.1281
 IR Inten    --     68.1752               227.0528                20.7594

                     79                     80                     81
                      A                      A                      A
 Frequencies --   1366.1024              1367.2930              1389.3870
 Red. masses --     11.0705                11.7693                 3.7200
 Frc consts  --     12.1727                12.9635                 4.2310
 IR Inten    --     89.3793                 0.8975               138.5313

                     82                     83                     84
                      A                      A                      A
 Frequencies --   1450.3227              1456.8117              1456.9155
 Red. masses --      3.4575                 1.1375                 1.1373
 Frc consts  --      4.2849                 1.4224                 1.4223
 IR Inten    --      1.6995                 8.9495                 0.3103

                     85                     86                     87
                      A                      A                      A
 Frequencies --   1473.8186              1478.0338              1483.0554
 Red. masses --      3.3841                 2.3798                 1.0481
 Frc consts  --      4.3309                 3.0631                 1.3582
 IR Inten    --     47.4154                 8.0705                 7.1082

                     88                     89                     90
                      A                      A                      A
 Frequencies --   1483.1416              1506.0051              1506.0407
 Red. masses --      1.0481                 1.0496                 1.0512
 Frc consts  --      1.3583                 1.4026                 1.4047
 IR Inten    --      6.7739                 5.8528                18.4559

                     91                     92                     93
                      A                      A                      A
 Frequencies --   1507.7167              1546.8975              1551.6534
 Red. masses --      8.6947                 6.8785                 7.3691
 Frc consts  --     11.6452                 9.6977                10.4532
 IR Inten    --    417.1204               150.5277                69.4089

                     94                     95                     96
                      A                      A                      A
 Frequencies --   1602.4673              1602.6958              1644.5371
 Red. masses --      5.9605                 9.2693                 8.8849
 Frc consts  --      9.0180                14.0281                14.1577
 IR Inten    --    270.9056                24.9406                74.7693

                     97                     98                     99
                      A                      A                      A
 Frequencies --   3028.2140              3028.3541              3100.5310
 Red. masses --      1.0298                 1.0298                 1.1074
 Frc consts  --      5.5638                 5.5644                 6.2723
 IR Inten    --    123.1336                43.1142                14.2537

                    100                    101                    102
                      A                      A                      A
 Frequencies --   3100.5623              3133.2626              3133.3263
 Red. masses --      1.1074                 1.1039                 1.1039
 Frc consts  --      6.2724                 6.3854                 6.3856
 IR Inten    --     20.0169                11.2040                15.5485

                    103                    104                    105
                      A                      A                      A
 Frequencies --   3188.5309              3188.7028              3204.1460
 Red. masses --      1.0870                 1.0871                 1.0941
 Frc consts  --      6.5114                 6.5125                 6.6182
 IR Inten    --      7.8313                 0.5686                 0.4536

                    106                    107                    108
                      A                      A                      A
 Frequencies --   3204.3166              3205.3093              3205.7296
 Red. masses --      1.0941                 1.0911                 1.0912
 Frc consts  --      6.6187                 6.6046                 6.6070
 IR Inten    --      2.3340                 2.1630                 9.1606

 - Thermochemistry -
 -------------------
 Temperature   298.150 Kelvin.  Pressure   1.00000 Atm.
 Atom     1 has atomic number  6 and mass  12.00000

 Molecular mass:   395.99736 amu.
 Principal axes and moments of inertia in atomic units:
                           1         2         3
     Eigenvalues --  3975.30487********************
           X            0.89388  -0.44647   0.04047
           Y            0.28858   0.64214   0.71019
           Z           -0.34307  -0.62315   0.70284
 This molecule is an asymmetric top.
 Rotational symmetry number  1.
 Warning -- assumption of classical behavior for rotation
           may cause significant error
 Rotational temperatures (Kelvin)      0.02179     0.00331     0.00302
 Rotational constants (GHZ):           0.45399     0.06897     0.06296
 Zero-point vibrational energy     684043.1 (Joules/Mol)
                                  163.49021 (Kcal/Mol)
 Warning -- explicit consideration of  39 degrees of freedom as
           vibrations may cause significant error
 Vibrational temperatures:     23.99    24.19    41.38    66.59    70.22
          (Kelvin)             75.91   109.32   114.21   170.11   191.18
                              195.82   207.87   209.81   232.72   271.71
                              279.27   320.72   352.50   365.55   382.81
                              385.93   470.83   507.30   526.15   531.44
                              562.48   609.07   629.10   651.21   656.51
                              673.56   682.38   688.31   711.65   715.57
                              727.65   790.75   879.27   879.56   912.87
                              938.12   958.50   961.36  1006.52  1013.63
                             1043.71  1054.61  1064.00  1159.80  1197.25
                             1216.76  1225.88  1343.72  1376.09  1386.75
                             1421.39  1434.69  1437.69  1443.48  1446.42
                             1534.55  1536.41  1589.53  1593.28  1633.01
                             1635.68  1680.00  1680.05  1698.78  1703.75
                             1705.96  1709.68  1724.22  1767.79  1806.08
                             1845.19  1845.87  1889.06  1965.52  1967.23
                             1999.02  2086.69  2096.03  2096.18  2120.50
                             2126.56  2133.79  2133.91  2166.81  2166.86
                             2169.27  2225.64  2232.48  2305.59  2305.92
                             2366.12  4356.92  4357.13  4460.97  4461.02
                             4508.07  4508.16  4587.58  4587.83  4610.05
                             4610.30  4611.73  4612.33

 Zero-point correction=                           0.260538 (Hartree/Particle)
 Thermal correction to Energy=                    0.284490
 Thermal correction to Enthalpy=                  0.285434
 Thermal correction to Gibbs Free Energy=         0.202876
 Sum of electronic and zero-point Energies=          -2015.187882
 Sum of electronic and thermal Energies=             -2015.163930
 Sum of electronic and thermal Enthalpies=           -2015.162986
 Sum of electronic and thermal Free Energies=        -2015.245544

                     E (Thermal)             CV                S
                      KCal/Mol        Cal/Mol-Kelvin    Cal/Mol-Kelvin
 Total                  178.520             88.505            173.759
 Electronic               0.000              0.000              1.377
 Translational            0.889              2.981             43.820
 Rotational               0.889              2.981             36.343
 Vibrational            176.743             82.543             92.219
 Vibration     1          0.593              1.986              6.995
 Vibration     2          0.593              1.986              6.979
 Vibration     3          0.593              1.984              5.913
 Vibration     4          0.595              1.979              4.970
 Vibration     5          0.595              1.978              4.865
 Vibration     6          0.596              1.977              4.711
 Vibration     7          0.599              1.965              3.992
 Vibration     8          0.600              1.963              3.906
 Vibration     9          0.608              1.934              3.129
 Vibration    10          0.613              1.920              2.904
 Vibration    11          0.614              1.917              2.858
 Vibration    12          0.616              1.909              2.744
 Vibration    13          0.617              1.907              2.726
 Vibration    14          0.622              1.889              2.529
 Vibration    15          0.633              1.855              2.239
 Vibration    16          0.635              1.848              2.188
 Vibration    17          0.649              1.806              1.935
 Vibration    18          0.660              1.771              1.766
 Vibration    19          0.665              1.756              1.702
 Vibration    20          0.672              1.735              1.622
 Vibration    21          0.673              1.732              1.608
 Vibration    22          0.711              1.621              1.274
 Vibration    23          0.729              1.570              1.155
 Vibration    24          0.739              1.543              1.098
 Vibration    25          0.742              1.535              1.082
 Vibration    26          0.759              1.490              0.997
 Vibration    27          0.785              1.420              0.881
 Vibration    28          0.798              1.389              0.835
 Vibration    29          0.811              1.355              0.788
 Vibration    30          0.815              1.347              0.777
 Vibration    31          0.825              1.321              0.743
 Vibration    32          0.831              1.307              0.726
 Vibration    33          0.835              1.298              0.714
 Vibration    34          0.850              1.262              0.672
 Vibration    35          0.853              1.256              0.665
 Vibration    36          0.861              1.237              0.644
 Vibration    37          0.905              1.141              0.545
 Vibration    38          0.970              1.008              0.431
 Vibration    39          0.970              1.008              0.431

                           ! Non-Optimized Parameters !
 Normal termination of Gaussian 16 at Fri Dec 22 03:32:09 2023.
