 Q-Chem 5.4, Q-Chem, Inc., Pleasanton, CA (2021)
 Q-Chem 5.4.0 for Intel X86 EM64T Linux

User input:
--------------------------------------------------------------
$molecule
-1 2
C                  5.9103840000     -5.2109520000      1.0722550000
C                  6.7834000000     -5.0768970000      0.0077330000
C                  6.5531070000     -4.0900490000     -0.9692070000
C                  4.7867560000     -4.3711220000      1.1966590000
C                  4.5553060000     -3.3791100000      0.2146640000
C                  5.4543400000     -3.2566070000     -0.8623890000
C                  3.8845690000     -4.5525330000      2.3491450000
C                  2.7590930000     -3.6426270000      2.3897720000
C                  2.5323850000     -2.6707460000      1.4277830000
C                  3.3981670000     -2.4674650000      0.2852530000
O                  4.0913150000     -5.4296720000      3.2160240000
O                  3.1958960000     -1.5911260000     -0.5834920000
H                  6.0612130000     -5.9610780000      1.8398150000
H                  7.6454430000     -5.7320560000     -0.0744310000
H                  5.2506220000     -2.4876820000     -1.5984820000
Cl                 1.6687130000     -3.8378100000      3.7533860000
H                  7.2373520000     -3.9833310000     -1.8055810000
Cl                 1.1460900000     -1.5969380000      1.5353940000
$end

$rem
BASIS  =  6-311++G(d,p)
GUI  =  2
JOB_TYPE  =  SP
METHOD  =  B3LYP
SCF_CONVERGENCE  = 8
SOLVENT_METHOD = sm12
$end

$smx
solvent dimethylformamide
charges CM5
$end

--------------------------------------------------------------

             Standard Nuclear Orientation (Angstroms)
    I     Atom           X                Y                Z
 ----------------------------------------------------------------
    1      C       5.9103840000    -5.2109520000     1.0722550000
    2      C       6.7834000000    -5.0768970000     0.0077330000
    3      C       6.5531070000    -4.0900490000    -0.9692070000
    4      C       4.7867560000    -4.3711220000     1.1966590000
    5      C       4.5553060000    -3.3791100000     0.2146640000
    6      C       5.4543400000    -3.2566070000    -0.8623890000
    7      C       3.8845690000    -4.5525330000     2.3491450000
    8      C       2.7590930000    -3.6426270000     2.3897720000
    9      C       2.5323850000    -2.6707460000     1.4277830000
   10      C       3.3981670000    -2.4674650000     0.2852530000
   11      O       4.0913150000    -5.4296720000     3.2160240000
   12      O       3.1958960000    -1.5911260000    -0.5834920000
   13      H       6.0612130000    -5.9610780000     1.8398150000
   14      H       7.6454430000    -5.7320560000    -0.0744310000
   15      H       5.2506220000    -2.4876820000    -1.5984820000
   16      Cl      1.6687130000    -3.8378100000     3.7533860000
   17      H       7.2373520000    -3.9833310000    -1.8055810000
   18      Cl      1.1460900000    -1.5969380000     1.5353940000
 ----------------------------------------------------------------

   16   -1454.5808229676      8.34e-09  Convergence criterion met
 Total energy in the final basis set =    -1454.6606544625

                    Orbital Energies (a.u.)
 --------------------------------------------------------------

 Alpha MOs
 -- Occupied --
********-101.5503 -19.0853 -19.0853 -10.2388 -10.2388 -10.2344 -10.2338
-10.1887 -10.1883 -10.1870 -10.1864 -10.1835 -10.1835  -9.4642  -9.4642
 -7.2288  -7.2288  -7.2195  -7.2195  -7.2185  -7.2184  -1.0160  -1.0132
 -0.8929  -0.8694  -0.8438  -0.7966  -0.7636  -0.7340  -0.6826  -0.6257
 -0.6151  -0.5739  -0.5322  -0.5087  -0.4793  -0.4680  -0.4402  -0.4389
 -0.4351  -0.4267  -0.4149  -0.4064  -0.3934  -0.3798  -0.3698  -0.3535
 -0.3449  -0.3286  -0.3210  -0.2976  -0.2777  -0.2684  -0.2551  -0.2519
 -0.2484  -0.1634

 Beta MOs
 -- Occupied --
********-101.5502 -19.0788 -19.0788 -10.2377 -10.2377 -10.2325 -10.2320
-10.1883 -10.1878 -10.1867 -10.1862 -10.1835 -10.1835  -9.4642  -9.4642
 -7.2289  -7.2289  -7.2192  -7.2192  -7.2184  -7.2184  -1.0051  -1.0019
 -0.8894  -0.8683  -0.8422  -0.7932  -0.7619  -0.7318  -0.6741  -0.6244
 -0.6117  -0.5712  -0.5301  -0.5064  -0.4766  -0.4671  -0.4384  -0.4335
 -0.4265  -0.4240  -0.4090  -0.4029  -0.3763  -0.3703  -0.3687  -0.3524
 -0.3314  -0.3231  -0.3204  -0.2971  -0.2620  -0.2580  -0.2490  -0.2423
 -0.2413

          Ground-State Mulliken Net Atomic Charges

     Atom                 Charge (a.u.)    Spin (a.u.)
  --------------------------------------------------------
      1 C                    -0.029772       0.028709
      2 C                     0.883862       0.021197
      3 C                     0.883898       0.021134
      4 C                    -0.563397       0.038631
      5 C                    -0.560973       0.038649
      6 C                    -0.031326       0.028768
      7 C                    -2.464314       0.063329
      8 C                     0.805537       0.101266
      9 C                     0.808964       0.101139
     10 C                    -2.466309       0.063391
     11 O                    -0.291916       0.242354
     12 O                    -0.291834       0.242351
     13 H                     0.164255      -0.002356
     14 H                     0.361113      -0.001738
     15 H                     0.164115      -0.002362
     16 Cl                    0.633179       0.008622
     17 H                     0.361107      -0.001734
     18 Cl                    0.633811       0.008649
  --------------------------------------------------------
  Sum of atomic charges =    -1.000000

                    Cartesian Multipole Moments
 -----------------------------------------------------------------
    Charge (ESU x 10^10)
                -4.8032
    Dipole Moment (Debye)
         X     -14.8809      Y      15.9311      Z      -7.8778
       Tot      23.1797
    Quadrupole Moments (Debye-Ang)
        XX    -147.3527     XY      53.4708     YY    -167.3471
        XZ     -27.0729     YZ      41.0473     ZZ    -127.4442

 Total job time:  261.83s(wall), 2012.99s(cpu)
        *  Thank you very much for using Q-Chem.  Have a nice day.  *
