 Q-Chem 5.4, Q-Chem, Inc., Pleasanton, CA (2021)
 Q-Chem 5.4.0 for Intel X86 EM64T Linux

User input:
--------------------------------------------------------------
$molecule
-2 1
N                 -2.8040160000      1.4205720000      1.3358690000
C                 -2.4845300000      0.4919310000      0.3653500000
C                 -3.4370140000     -0.1999440000     -0.3579800000
Br                -5.3455770000      0.1262890000     -0.0090360000
C                 -3.1255950000     -1.2206660000     -1.2871560000
C                 -1.8132300000     -1.5843930000     -1.4266060000
Br                -1.5430770000     -2.8851680000     -2.8835690000
C                 -0.7310170000     -0.9711050000     -0.7229610000
C                  0.6349420000     -1.4424640000     -0.8219490000
O                  0.9787740000     -2.5283430000     -1.3923780000
C                  1.6344010000     -0.5640060000     -0.2287430000
C                  3.0034030000     -0.8926230000     -0.3764350000
C                  4.0076500000     -0.1106200000      0.1588020000
C                  3.6675370000      1.0576470000      0.8923640000
C                  2.3421550000      1.4015420000      1.0553510000
C                  1.2907210000      0.6191190000      0.5073640000
C                 -0.0762560000      1.0215640000      0.7223960000
O                 -0.3329660000      2.0869380000      1.4396040000
C                 -1.0799200000      0.1912600000      0.1175630000
H                 -1.9606400000      1.9929090000      1.5654430000
H                 -3.7024870000      1.8667740000      1.2271670000
H                 -3.8975700000     -1.6562600000     -1.9052860000
H                  3.2227780000     -1.7960000000     -0.9365210000
H                  5.0518040000     -0.3857370000      0.0216340000
H                  4.4511670000      1.6767960000      1.3259740000
H                  2.0485640000      2.2839870000      1.6137350000
$end
$rem
MAX_SCF_CYCLES=200
BASIS  =  6-311++G(d,p)
GUI  =  2
JOB_TYPE  =  SP
METHOD  =  B3LYP
SOLVENT_METHOD = COSMO
$end
$solvent
dielectric 37.219
opticaldielectric 1.43
$end

--------------------------------------------------------------

             Standard Nuclear Orientation (Angstroms)
    I     Atom           X                Y                Z
 ----------------------------------------------------------------
    1      N      -1.3172910189    -2.8313524993    -0.1538310749
    2      C      -1.1222160718    -1.4701967441    -0.0291181429
    3      C      -2.1620187373    -0.5618447295     0.0240806265
    4      Br     -4.0180659907    -1.2051064368    -0.0859447317
    5      C      -1.9756222161     0.8404452546     0.0566746634
    6      C      -0.6971686046     1.3212490749    -0.0351380595
    7      Br     -0.6086623331     3.2760906398     0.2067307548
    8      C       0.4666095345     0.4962376509    -0.1211614711
    9      C       1.7969970819     1.0358912799    -0.3126421629
   10      O       2.0428504929     2.2544209831    -0.5910022780
   11      C       2.8809853731     0.0773366502    -0.1434011655
   12      C       4.2166976413     0.5422851173    -0.2039337601
   13      C       5.2962749525    -0.3055320262    -0.0548086600
   14      C       5.0714967976    -1.6925266075     0.1558062884
   15      C       3.7811735054    -2.1750788065     0.2164293538
   16      C       2.6535342948    -1.3227773179     0.0750046653
   17      C       1.3287897716    -1.8870554705     0.1339026478
   18      O       1.1810636961    -3.1788077166     0.2915802954
   19      C       0.2417929881    -0.9573207095     0.0050601778
   20      H      -0.4328803467    -3.3357831886     0.0805284420
   21      H      -2.2008617326    -3.1742466396     0.1924186759
   22      H      -2.8154466880     1.5038060992     0.2064060114
   23      H       4.3476861608     1.6062217378    -0.3736175761
   24      H       6.3118863131     0.0835222632    -0.0987668647
   25      H       5.9156469059    -2.3712619617     0.2661149773
   26      H       3.5752264750    -3.2288197492     0.3710689061
 ----------------------------------------------------------------

   11   -5891.4050248002      6.17e-06  Convergence criterion met
 Total energy in the final basis set =    -5891.4050248002
    6   -5891.6574088602      3.87e-06  Convergence criterion met
 Total energy in the final basis set =    -5891.6574088602

                    Orbital Energies (a.u.)
 --------------------------------------------------------------

 Alpha MOs
 -- Occupied --
********-482.8079 -62.4743 -62.4607 -56.2945 -56.2910 -56.2909 -56.2811
-56.2775 -56.2772 -19.0382 -19.0305 -14.2892 -10.2095 -10.2070 -10.1999
-10.1915 -10.1900 -10.1670 -10.1600 -10.1592 -10.1565 -10.1556 -10.1524
-10.1524 -10.1485 -10.1470  -8.6829  -8.6694  -6.5135  -6.5018  -6.5017
 -6.5004  -6.4885  -6.4875  -2.6246  -2.6211  -2.6210  -2.6118  -2.6118
 -2.6114  -2.6081  -2.6074  -2.5980  -2.5980  -0.9590  -0.9554  -0.9015
 -0.8416  -0.8326  -0.7942  -0.7754  -0.7451  -0.7309  -0.7125  -0.6968
 -0.6476  -0.6144  -0.6028  -0.5598  -0.5367  -0.5305  -0.4974  -0.4876
 -0.4599  -0.4487  -0.4334  -0.4274  -0.4207  -0.4046  -0.4019  -0.3903
 -0.3802  -0.3738  -0.3699  -0.3646  -0.3497  -0.3414  -0.3307  -0.3248
 -0.3170  -0.3114  -0.2978  -0.2887  -0.2760  -0.2701  -0.2374  -0.2364
 -0.2248  -0.2204  -0.2020  -0.1968  -0.1191

          Ground-State Mulliken Net Atomic Charges

     Atom                 Charge (a.u.)
  ----------------------------------------
      1 N                    -0.367953
      2 C                    -0.964038
      3 C                     0.684128
      4 Br                   -0.272039
      5 C                    -0.311058
      6 C                     0.157317
      7 Br                   -0.283059
      8 C                     0.711950
      9 C                    -1.085425
     10 O                    -0.563057
     11 C                     0.010365
     12 C                     0.045613
     13 C                    -0.465689
     14 C                    -0.567063
     15 C                     0.130113
     16 C                     0.122623
     17 C                    -0.328052
     18 O                    -0.643861
     19 C                     0.445486
     20 H                     0.340103
     21 H                     0.254792
     22 H                     0.247827
     23 H                     0.163374
     24 H                     0.184497
     25 H                     0.185461
     26 H                     0.167645
  ----------------------------------------
  Sum of atomic charges =    -2.000000

                    Cartesian Multipole Moments
 -----------------------------------------------------------------
    Charge (ESU x 10^10)
                -9.6064
    Dipole Moment (Debye)
         X      -9.1443      Y       0.5425      Z       1.9276
       Tot       9.3610
    Quadrupole Moments (Debye-Ang)
        XX    -185.3634     XY      -0.7357     YY    -198.3381
        XZ       0.8220     YZ       3.1768     ZZ    -150.0033

 Total job time:  129.80s(wall), 734.04s(cpu)
        *  Thank you very much for using Q-Chem.  Have a nice day.  *
