 Q-Chem 5.4, Q-Chem, Inc., Pleasanton, CA (2021)
 Q-Chem 5.4.0 for Intel X86 EM64T Linux

User input:
--------------------------------------------------------------
$molecule
0 1
C                  0.4493120000      1.6989870000     -2.2719040000
C                 -0.9873170000      2.0807860000     -2.2478930000
C                 -1.9553280000      1.1854780000     -2.0157440000
C                 -1.6286130000     -0.2373290000     -1.7575470000
C                 -0.1937880000     -0.6149340000     -1.7463370000
C                  0.7910190000      0.2806570000     -1.9387410000
O                  1.2976270000      2.5106060000     -2.5977280000
O                 -2.5002460000     -1.0661020000     -1.5543410000
C                  3.3080940000      0.7040960000     -1.3452570000
C                  4.4397660000      0.9675180000     -2.1464900000
C                  3.2084740000      1.2157730000     -0.0361820000
C                  4.2563480000      1.9972370000      0.4567910000
C                  5.4498410000      1.7747480000     -1.6213440000
C                  5.3648080000      2.2846280000     -0.3301860000
H                 -1.1930450000      3.1240370000     -2.4614240000
H                 -3.0082440000      1.4447820000     -2.0153090000
H                  0.0290440000     -1.6591130000     -1.5548040000
H                  4.1990400000      2.3794000000      1.4703500000
H                  6.3148140000      2.0021300000     -2.2348850000
H                  6.1647680000      2.9016370000      0.0637350000
C                  2.2352200000     -0.1891930000     -1.8950240000
O                  2.4842350000     -1.3042890000     -2.3106530000
C                  2.0319320000      0.9215050000      0.8695060000
H                  1.7598410000     -0.1367170000      0.8672080000
H                  1.1416590000      1.4914840000      0.5838040000
H                  2.2713000000      1.1968030000      1.8979870000
C                  4.5743960000      0.4336010000     -3.5536940000
H                  3.6937570000      0.6662000000     -4.1588150000
H                  4.6909620000     -0.6518640000     -3.5584010000
H                  5.4427940000      0.8766670000     -4.0438580000
$end
$rem
MAX_SCF_CYCLES=200
BASIS  =  6-311++G(d,p)
GUI  =  2
JOB_TYPE  =  SP
METHOD  =  B3LYP
SOLVENT_METHOD = PCM
$end
$pcm
theory = CPCM
$end
$solvent
dielectric 37.219
opticaldielectric 1.43
$end

--------------------------------------------------------------

             Standard Nuclear Orientation (Angstroms)
    I     Atom           X                Y                Z
 ----------------------------------------------------------------
    1      C       0.4493120000     1.6989870000    -2.2719040000
    2      C      -0.9873170000     2.0807860000    -2.2478930000
    3      C      -1.9553280000     1.1854780000    -2.0157440000
    4      C      -1.6286130000    -0.2373290000    -1.7575470000
    5      C      -0.1937880000    -0.6149340000    -1.7463370000
    6      C       0.7910190000     0.2806570000    -1.9387410000
    7      O       1.2976270000     2.5106060000    -2.5977280000
    8      O      -2.5002460000    -1.0661020000    -1.5543410000
    9      C       3.3080940000     0.7040960000    -1.3452570000
   10      C       4.4397660000     0.9675180000    -2.1464900000
   11      C       3.2084740000     1.2157730000    -0.0361820000
   12      C       4.2563480000     1.9972370000     0.4567910000
   13      C       5.4498410000     1.7747480000    -1.6213440000
   14      C       5.3648080000     2.2846280000    -0.3301860000
   15      H      -1.1930450000     3.1240370000    -2.4614240000
   16      H      -3.0082440000     1.4447820000    -2.0153090000
   17      H       0.0290440000    -1.6591130000    -1.5548040000
   18      H       4.1990400000     2.3794000000     1.4703500000
   19      H       6.3148140000     2.0021300000    -2.2348850000
   20      H       6.1647680000     2.9016370000     0.0637350000
   21      C       2.2352200000    -0.1891930000    -1.8950240000
   22      O       2.4842350000    -1.3042890000    -2.3106530000
   23      C       2.0319320000     0.9215050000     0.8695060000
   24      H       1.7598410000    -0.1367170000     0.8672080000
   25      H       1.1416590000     1.4914840000     0.5838040000
   26      H       2.2713000000     1.1968030000     1.8979870000
   27      C       4.5743960000     0.4336010000    -3.5536940000
   28      H       3.6937570000     0.6662000000    -4.1588150000
   29      H       4.6909620000    -0.6518640000    -3.5584010000
   30      H       5.4427940000     0.8766670000    -4.0438580000
 ----------------------------------------------------------------

    9    -804.6908127729      3.34e-06  Convergence criterion met
 Total energy in the final basis set =     -804.6908127729

                    Orbital Energies (a.u.)
 --------------------------------------------------------------

 Alpha MOs
 -- Occupied --
-19.1521 -19.1517 -19.1429 -10.2989 -10.2958 -10.2935 -10.2296 -10.2247
-10.2172 -10.2158 -10.1991 -10.1976 -10.1940 -10.1815 -10.1762 -10.1757
-10.1701 -10.1651  -1.0846  -1.0811  -1.0767  -0.8777  -0.8729  -0.8105
 -0.7928  -0.7789  -0.7267  -0.7107  -0.6866  -0.6700  -0.6306  -0.6226
 -0.5855  -0.5650  -0.5351  -0.5226  -0.5095  -0.4936  -0.4888  -0.4762
 -0.4660  -0.4584  -0.4572  -0.4440  -0.4328  -0.4307  -0.4250  -0.4174
 -0.4169  -0.4130  -0.4100  -0.4022  -0.3774  -0.3615  -0.3570  -0.3496
 -0.3204  -0.3106  -0.3034  -0.3001  -0.2755  -0.2587  -0.2528

          Ground-State Mulliken Net Atomic Charges

     Atom                 Charge (a.u.)
  ----------------------------------------
      1 C                    -1.143331
      2 C                    -0.226491
      3 C                     0.193287
      4 C                    -0.536334
      5 C                     0.411539
      6 C                     1.192385
      7 O                    -0.177126
      8 O                    -0.284087
      9 C                     0.286156
     10 C                     0.193886
     11 C                     0.645369
     12 C                    -0.284927
     13 C                    -0.363902
     14 C                    -0.264609
     15 H                     0.272749
     16 H                     0.271971
     17 H                     0.293411
     18 H                     0.188676
     19 H                     0.186878
     20 H                     0.215254
     21 C                    -0.665138
     22 O                    -0.224075
     23 C                    -0.808743
     24 H                     0.197011
     25 H                     0.196143
     26 H                     0.183290
     27 C                    -0.524600
     28 H                     0.201614
     29 H                     0.209326
     30 H                     0.164417
  ----------------------------------------
  Sum of atomic charges =     0.000000

                    Cartesian Multipole Moments
 -----------------------------------------------------------------
    Charge (ESU x 10^10)
                 0.0000
    Dipole Moment (Debye)
         X      -0.5945      Y       3.5281      Z       1.7104
       Tot       3.9656
    Quadrupole Moments (Debye-Ang)
        XX    -104.2191     XY      -2.7463     YY    -110.8722
        XZ       6.4363     YZ      -2.7331     ZZ    -103.6121

 Total job time:  52.43s(wall), 387.54s(cpu)
        *  Thank you very much for using Q-Chem.  Have a nice day.  *
