 Q-Chem 5.4, Q-Chem, Inc., Pleasanton, CA (2021)
 Q-Chem 5.4.0 for Intel X86 EM64T Linux

User input:
--------------------------------------------------------------
$molecule
0 1
N                 -2.9263150000      1.8492790000      0.2750490000
C                 -2.5270110000      0.5596000000      0.1319940000
C                 -3.5009360000     -0.4650550000      0.0561820000
C                 -3.1379720000     -1.7873290000     -0.0895120000
C                 -1.7898700000     -2.1541840000     -0.1667580000
C                 -0.8100980000     -1.1754900000     -0.0958210000
C                  0.6162550000     -1.6192270000     -0.1829430000
O                  0.9066300000     -2.7983140000     -0.3110370000
C                  1.6700140000     -0.5717340000     -0.1079090000
C                  3.0157270000     -0.9451450000     -0.1864330000
C                  4.0122340000      0.0202240000     -0.1180020000
C                  3.6709410000      1.3679580000      0.0297280000
C                  2.3361380000      1.7464010000      0.1085180000
C                  1.3260120000      0.7810110000      0.0404190000
C                 -0.0989320000      1.2188950000      0.1278330000
O                 -0.3512500000      2.4217520000      0.2588700000
C                 -1.1483460000      0.1959880000      0.0541090000
H                 -3.9051990000      2.0712050000      0.3295710000
H                 -2.2194550000      2.5716590000      0.3300430000
H                 -4.5491150000     -0.1898550000      0.1152700000
H                 -3.9082100000     -2.5486300000     -0.1444270000
H                 -1.4894480000     -3.1870210000     -0.2809590000
H                  3.2534940000     -1.9954840000     -0.3006700000
H                  5.0544620000     -0.2719040000     -0.1792110000
H                  4.4492230000      2.1209200000      0.0830760000
H                  2.0510270000      2.7844810000      0.2230200000
$end
$rem
MAX_SCF_CYCLES=200
BASIS  =  6-311++G(d,p)
GUI  =  2
JOB_TYPE  =  SP
METHOD  =  B3LYP
SOLVENT_METHOD = COSMO
$end
$solvent
dielectric 37.219
opticaldielectric 1.43
$end

--------------------------------------------------------------

             Standard Nuclear Orientation (Angstroms)
    I     Atom           X                Y                Z
 ----------------------------------------------------------------
    1      N       2.7699792775    -2.1912346758    -0.0007164538
    2      C       2.4961197840    -0.8615049417    -0.0003259075
    3      C       3.5640016197     0.0679161432    -0.0005827701
    4      C       3.3294397226     1.4267240231    -0.0005850342
    5      C       2.0224725491     1.9264892309    -0.0002978517
    6      C       0.9531767362     1.0436338745    -0.0000532187
    7      C      -0.4243176608     1.6280006235     0.0005276603
    8      O      -0.6003255744     2.8363020755     0.0013537021
    9      C      -1.5738856136     0.6836632813     0.0000560827
   10      C      -2.8778589830     1.1898239002    -0.0003331918
   11      C      -3.9625508586     0.3220165002    -0.0007336554
   12      C      -3.7520041908    -1.0601419904    -0.0006484004
   13      C      -2.4593737053    -1.5702716092    -0.0001822970
   14      C      -1.3611223125    -0.7037765826     0.0001475027
   15      C       0.0155488440    -1.2822447460     0.0004924299
   16      O       0.1514206446    -2.5107553159     0.0013075426
   17      C       1.1584123128    -0.3619695457    -0.0000988862
   18      H       3.7233156825    -2.5099506361     0.0020256097
   19      H       1.9970113705    -2.8447050313     0.0016016069
   20      H       4.5811609828    -0.3106237465    -0.0007547998
   21      H       4.1692807378     2.1126748144    -0.0007513393
   22      H       1.8224229558     2.9895168245    -0.0001955818
   23      H      -3.0138539655     2.2642077320    -0.0003449689
   24      H      -4.9721733668     0.7169680773    -0.0011295681
   25      H      -4.5990633894    -1.7369072918    -0.0009563851
   26      H      -2.2750659747    -2.6370610557    -0.0000641296
 ----------------------------------------------------------------

    9    -744.3381019875      2.87e-06  Convergence criterion met
 Total energy in the final basis set =     -744.3381019875
    5    -744.3546408661      4.54e-06  Convergence criterion met
 Total energy in the final basis set =     -744.3546408661

                    Orbital Energies (a.u.)
 --------------------------------------------------------------

 Alpha MOs
 -- Occupied --
-19.1275 -19.1246 -14.3317 -10.2799 -10.2774 -10.2462 -10.2047 -10.2042
-10.2032 -10.1995 -10.1944 -10.1942 -10.1937 -10.1931 -10.1923 -10.1896
-10.1845  -1.0634  -1.0583  -0.9424  -0.8869  -0.8651  -0.8075  -0.7747
 -0.7668  -0.7551  -0.6854  -0.6639  -0.6455  -0.6121  -0.5867  -0.5705
 -0.5558  -0.5249  -0.5072  -0.4995  -0.4812  -0.4726  -0.4672  -0.4547
 -0.4539  -0.4470  -0.4385  -0.4291  -0.4187  -0.4005  -0.3899  -0.3858
 -0.3716  -0.3714  -0.3637  -0.3334  -0.2874  -0.2857  -0.2754  -0.2732
 -0.2725  -0.2258

          Ground-State Mulliken Net Atomic Charges

     Atom                 Charge (a.u.)
  ----------------------------------------
      1 N                    -0.475259
      2 C                     0.362202
      3 C                    -0.245317
      4 C                    -0.451754
      5 C                     0.081797
      6 C                     0.436078
      7 C                    -0.514512
      8 O                    -0.306228
      9 C                     0.004185
     10 C                     0.186603
     11 C                    -0.438397
     12 C                    -0.464381
     13 C                     0.272435
     14 C                     0.029986
     15 C                    -0.411791
     16 O                    -0.339594
     17 C                     0.122176
     18 H                     0.334688
     19 H                     0.346990
     20 H                     0.208485
     21 H                     0.230098
     22 H                     0.187900
     23 H                     0.195672
     24 H                     0.222686
     25 H                     0.223638
     26 H                     0.201612
  ----------------------------------------
  Sum of atomic charges =     0.000000

                    Cartesian Multipole Moments
 -----------------------------------------------------------------
    Charge (ESU x 10^10)
                 0.0000
    Dipole Moment (Debye)
         X       2.1835      Y      -2.3853      Z       0.0034
       Tot       3.2338
    Quadrupole Moments (Debye-Ang)
        XX     -59.0033     XY      -0.9464     YY    -105.6101
        XZ       0.0315     YZ      -0.0270     ZZ    -102.1123

 Total job time:  74.38s(wall), 412.99s(cpu)
        *  Thank you very much for using Q-Chem.  Have a nice day.  *
