 Gaussian 16, Revision A.03,
 Gaussian 16:  ES64L-G16RevA.03 25-Dec-2016

 ----------------------------------------------------------------
 #P UB3LYP/6-311++G(d,p) SCRF=(PCM,Solvent=n,n-DiMethylFormamide)
 ----------------------------------------------------------------

 ------------------
 Quinone PCM in DMF
 ------------------
 Symbolic Z-matrix:
 Charge =  0 Multiplicity = 1

                         Standard orientation:
 ---------------------------------------------------------------------
 Center     Atomic      Atomic             Coordinates (Angstroms)
 Number     Number       Type             X           Y           Z
 ---------------------------------------------------------------------
      1          8           0       -2.559322    2.220320   -0.021002
      2          6           0       -2.499742    0.881249   -0.020910
      3          6           0       -3.705177    0.176580   -0.088263
      4          6           0       -3.694192   -1.209067   -0.093396
      5          6           0       -2.494046   -1.921126   -0.028513
      6          6           0       -1.283146   -1.243210    0.040680
      7          6           0       -0.000006   -2.024882    0.155875
      8          6           0        1.283142   -1.243223    0.040672
      9          6           0        2.494036   -1.921134   -0.028492
     10          6           0        3.694182   -1.209076   -0.093371
     11          6           0        3.705166    0.176566   -0.088276
     12          6           0        2.499733    0.881238   -0.020945
     13          8           0        2.559350    2.220318   -0.021022
     14          6           0        1.266402    0.169092    0.040948
     15          6           0        0.000001    0.898209    0.071640
     16          8           0        0.000005    2.158918    0.099516
     17          6           0       -1.266404    0.169090    0.040954
     18          1           0       -1.633647    2.555310    0.029860
     19          1           0       -4.628588    0.739921   -0.137019
     20          1           0       -4.633687   -1.747998   -0.148993
     21          1           0       -2.505448   -3.005425   -0.030512
     22          1           0       -0.000012   -2.828444   -0.588023
     23          1           0        0.000002   -2.533497    1.129608
     24          1           0        2.505464   -3.005436   -0.030463
     25          1           0        4.633679   -1.748010   -0.148935
     26          1           0        4.628573    0.739911   -0.137048
     27          1           0        1.633712    2.555384    0.029968
 ---------------------------------------------------------------------

 SCF Done:  E(UB3LYP) =  -765.440001662     A.U. after   14 cycles

 The electronic state is 1-A.
 Alpha  occ. eigenvalues --  -19.15904 -19.15903 -19.14107 -10.28947 -10.26126
 Alpha  occ. eigenvalues --  -10.26126 -10.21189 -10.21189 -10.20210 -10.20210
 Alpha  occ. eigenvalues --  -10.19695 -10.19646 -10.19646 -10.18236 -10.18236
 Alpha  occ. eigenvalues --  -10.18109 -10.18109  -1.09372  -1.08086  -1.05422
 Alpha  occ. eigenvalues --   -0.89412  -0.87059  -0.81586  -0.78527  -0.76905
 Alpha  occ. eigenvalues --   -0.75888  -0.71529  -0.66656  -0.65903  -0.61766
 Alpha  occ. eigenvalues --   -0.61291  -0.58570  -0.54916  -0.54210  -0.54067
 Alpha  occ. eigenvalues --   -0.49874  -0.48974  -0.48636  -0.47239  -0.46240
 Alpha  occ. eigenvalues --   -0.45487  -0.44058  -0.43476  -0.43111  -0.42764
 Alpha  occ. eigenvalues --   -0.41368  -0.40671  -0.40134  -0.38993  -0.38451
 Alpha  occ. eigenvalues --   -0.36182  -0.35964  -0.35592  -0.34530  -0.28962
 Alpha  occ. eigenvalues --   -0.28453  -0.27373  -0.24280  -0.23914
 Alpha virt. eigenvalues --   -0.09259  -0.03470  -0.02763  -0.00935  -0.00796
 Alpha virt. eigenvalues --    0.00285   0.00655   0.01441   0.02104   0.02759
 Alpha virt. eigenvalues --    0.03281   0.03658   0.03914   0.04075   0.05891

  Beta  occ. eigenvalues --  -19.15904 -19.15903 -19.14107 -10.28947 -10.26126
  Beta  occ. eigenvalues --  -10.26126 -10.21189 -10.21189 -10.20210 -10.20210
  Beta  occ. eigenvalues --  -10.19695 -10.19646 -10.19646 -10.18236 -10.18236
  Beta  occ. eigenvalues --  -10.18109 -10.18109  -1.09372  -1.08086  -1.05422
  Beta  occ. eigenvalues --   -0.89412  -0.87059  -0.81586  -0.78527  -0.76905
  Beta  occ. eigenvalues --   -0.75888  -0.71529  -0.66656  -0.65903  -0.61766
  Beta  occ. eigenvalues --   -0.61291  -0.58570  -0.54916  -0.54210  -0.54067
  Beta  occ. eigenvalues --   -0.49874  -0.48974  -0.48636  -0.47239  -0.46240
  Beta  occ. eigenvalues --   -0.45487  -0.44058  -0.43476  -0.43111  -0.42764
  Beta  occ. eigenvalues --   -0.41368  -0.40671  -0.40134  -0.38993  -0.38451
  Beta  occ. eigenvalues --   -0.36182  -0.35964  -0.35592  -0.34530  -0.28962
  Beta  occ. eigenvalues --   -0.28453  -0.27373  -0.24280  -0.23914
  Beta virt. eigenvalues --   -0.09259  -0.03470  -0.02763  -0.00935  -0.00796
  Beta virt. eigenvalues --    0.00285   0.00655   0.01441   0.02104   0.02759
  Beta virt. eigenvalues --    0.03281   0.03658   0.03914   0.04075   0.05891

 Mulliken charges and spin densities:
               1          2
     1  O   -0.325820  -0.000000
     2  C    0.053709  -0.000000
     3  C   -0.290228   0.000000
     4  C   -0.197259  -0.000000
     5  C   -0.289110   0.000000
     6  C   -0.600204   0.000000
     7  C   -0.491068  -0.000000
     8  C   -0.600259   0.000000
     9  C   -0.289115  -0.000000
    10  C   -0.197262  -0.000000
    11  C   -0.290195   0.000000
    12  C    0.053694  -0.000000
    13  O   -0.325814  -0.000000
    14  C    1.044346  -0.000000
    15  C   -0.247210  -0.000000
    16  O   -0.396543  -0.000000
    17  C    1.044300  -0.000000
    18  H    0.372679  -0.000000
    19  H    0.201990   0.000000
    20  H    0.205781  -0.000000
    21  H    0.186749   0.000000
    22  H    0.169544  -0.000000
    23  H    0.240102  -0.000000
    24  H    0.186752  -0.000000
    25  H    0.205781   0.000000
    26  H    0.201992  -0.000000
    27  H    0.372667  -0.000000
 Sum of Mulliken charges =  -0.00000  -0.00000

 Dipole moment (field-independent basis, Debye):
    X=              0.0002    Y=             -6.3193    Z=              0.1324  Tot=              6.3207
 Quadrupole moment (field-independent basis, Debye-Ang):
   XX=            -91.8873   YY=            -95.5795   ZZ=           -101.9003
   XY=              0.0001   XZ=              0.0005   YZ=             -0.2982

 Normal termination of Gaussian 16 at Sat Jan 13 19:20:01 2024.
