 Q-Chem 5.4, Q-Chem, Inc., Pleasanton, CA (2021)
 Q-Chem 5.4.0 for Intel X86 EM64T Linux

User input:
--------------------------------------------------------------
$molecule
-1 2
C                  1.8968010000      3.5215890000      3.8695400000
C                  2.9590700000      3.5893160000      2.8779930000
C                  3.4316480000      2.4989770000      2.2058690000
C                  2.9021670000      1.1661430000      2.4228450000
C                  1.3580660000      2.1782680000      4.0810750000
C                  1.8355350000      1.0809590000      3.3975830000
O                  1.4849200000      4.5414240000      4.4737760000
O                  3.3331200000      0.1522650000      1.8038630000
S                  0.1357910000      1.9197450000      5.3653980000
C                 -1.3729580000      2.6263790000      4.7314020000
C                 -2.4767160000      2.6651540000      5.5970560000
C                 -1.5194500000      3.1103210000      3.4267880000
C                 -2.7448850000      3.6181920000      3.0026050000
C                 -3.6990520000      3.1690520000      5.1633520000
C                 -3.8438160000      3.6504900000      3.8612710000
H                  3.3707060000      4.5792410000      2.7014900000
H                  4.2309750000      2.5926140000      1.4756680000
H                  1.4145290000      0.0973070000      3.5760890000
H                 -2.3707380000      2.3023960000      6.6144460000
H                 -0.6722190000      3.0932220000      2.7533920000
H                 -2.8377350000      3.9945230000      1.9886930000
H                 -4.5406090000      3.1906300000      5.8489870000
H                 -4.7948010000      4.0488030000      3.5243090000
$end
$rem
MAX_SCF_CYCLES=200
BASIS  =  6-311++G(d,p)
GUI  =  2
JOB_TYPE  =  SP
METHOD  =  B3LYP
SOLVENT_METHOD = PCM
$end
$pcm
theory = CPCM
$end
$solvent
dielectric 37.219
opticaldielectric 1.43
$end

--------------------------------------------------------------

             Standard Nuclear Orientation (Angstroms)
    I     Atom           X                Y                Z
 ----------------------------------------------------------------
    1      C       1.8968010000     3.5215890000     3.8695400000
    2      C       2.9590700000     3.5893160000     2.8779930000
    3      C       3.4316480000     2.4989770000     2.2058690000
    4      C       2.9021670000     1.1661430000     2.4228450000
    5      C       1.3580660000     2.1782680000     4.0810750000
    6      C       1.8355350000     1.0809590000     3.3975830000
    7      O       1.4849200000     4.5414240000     4.4737760000
    8      O       3.3331200000     0.1522650000     1.8038630000
    9      S       0.1357910000     1.9197450000     5.3653980000
   10      C      -1.3729580000     2.6263790000     4.7314020000
   11      C      -2.4767160000     2.6651540000     5.5970560000
   12      C      -1.5194500000     3.1103210000     3.4267880000
   13      C      -2.7448850000     3.6181920000     3.0026050000
   14      C      -3.6990520000     3.1690520000     5.1633520000
   15      C      -3.8438160000     3.6504900000     3.8612710000
   16      H       3.3707060000     4.5792410000     2.7014900000
   17      H       4.2309750000     2.5926140000     1.4756680000
   18      H       1.4145290000     0.0973070000     3.5760890000
   19      H      -2.3707380000     2.3023960000     6.6144460000
   20      H      -0.6722190000     3.0932220000     2.7533920000
   21      H      -2.8377350000     3.9945230000     1.9886930000
   22      H      -4.5406090000     3.1906300000     5.8489870000
   23      H      -4.7948010000     4.0488030000     3.5243090000
 ----------------------------------------------------------------

    9   -1011.0520023293      5.23e-06  Convergence criterion met
 Total energy in the final basis set =    -1011.0520023293

                    Orbital Energies (a.u.)
 --------------------------------------------------------------

 Alpha MOs
 -- Occupied --
-88.8537 -19.0865 -19.0864 -10.2327 -10.2275 -10.2102 -10.2013 -10.1781
-10.1776 -10.1775 -10.1762 -10.1755 -10.1729 -10.1710 -10.1700  -7.9398
 -5.9037  -5.8998  -5.8940  -1.0118  -1.0064  -0.8685  -0.8373  -0.7939
 -0.7540  -0.7505  -0.7057  -0.6780  -0.6143  -0.6046  -0.5911  -0.5609
 -0.5155  -0.4825  -0.4767  -0.4631  -0.4552  -0.4417  -0.4307  -0.4236
 -0.4142  -0.4101  -0.3925  -0.3863  -0.3812  -0.3768  -0.3579  -0.3484
 -0.3342  -0.2989  -0.2890  -0.2673  -0.2615  -0.2529  -0.2467  -0.2169
 -0.1719

 Beta MOs
 -- Occupied --
-88.8537 -19.0799 -19.0793 -10.2314 -10.2261 -10.2101 -10.2002 -10.1781
-10.1776 -10.1775 -10.1761 -10.1739 -10.1729 -10.1700 -10.1692  -7.9398
 -5.9037  -5.8998  -5.8939  -1.0004  -0.9935  -0.8682  -0.8319  -0.7921
 -0.7529  -0.7496  -0.7010  -0.6706  -0.6133  -0.6027  -0.5885  -0.5578
 -0.5148  -0.4802  -0.4727  -0.4619  -0.4547  -0.4386  -0.4271  -0.4230
 -0.4081  -0.3963  -0.3874  -0.3834  -0.3746  -0.3567  -0.3544  -0.3481
 -0.3312  -0.2974  -0.2626  -0.2593  -0.2567  -0.2464  -0.2408  -0.2159

          Ground-State Mulliken Net Atomic Charges

     Atom                 Charge (a.u.)    Spin (a.u.)
  --------------------------------------------------------
      1 C                    -0.607870       0.067911
      2 C                    -0.144118       0.085740
      3 C                     0.074915       0.059111
      4 C                    -0.618912       0.135610
      5 C                     1.382577       0.095115
      6 C                    -0.242239       0.083099
      7 O                    -0.463544       0.233990
      8 O                    -0.508832       0.254660
      9 S                    -0.494608      -0.001193
     10 C                     0.532318       0.006410
     11 C                    -0.283724      -0.000880
     12 C                    -0.157999       0.003048
     13 C                    -0.311234      -0.004372
     14 C                    -0.485244      -0.000561
     15 C                    -0.368245       0.001680
     16 H                     0.218213      -0.007175
     17 H                     0.209071      -0.005147
     18 H                     0.233622      -0.009624
     19 H                     0.214474       0.000003
     20 H                     0.198612       0.002534
     21 H                     0.223577      -0.000029
     22 H                     0.209345       0.000102
     23 H                     0.189849      -0.000031
  --------------------------------------------------------
  Sum of atomic charges =    -1.000000

                    Cartesian Multipole Moments
 -----------------------------------------------------------------
    Charge (ESU x 10^10)
                -4.8032
    Dipole Moment (Debye)
         X     -10.3635      Y     -10.3462      Z     -17.1507
       Tot      22.5520
    Quadrupole Moments (Debye-Ang)
        XX    -119.3089     XY     -13.4787     YY    -146.7345
        XZ     -29.5331     YZ     -55.5063     ZZ    -168.1478

 Total job time:  38.55s(wall), 298.07s(cpu)
        *  Thank you very much for using Q-Chem.  Have a nice day.  *
