 Gaussian 16, Revision A.03,
 Gaussian 16:  ES64L-G16RevA.03 25-Dec-2016

 ----------------------------------------------------------------
 #P UB3LYP/6-311++G(d,p) SCRF=(PCM,Solvent=n,n-DiMethylFormamide)
 ----------------------------------------------------------------

 -------
 Reduced
 -------
 Symbolic Z-matrix:
 Charge = -2 Multiplicity = 1

                         Standard orientation:
 ---------------------------------------------------------------------
 Center     Atomic      Atomic             Coordinates (Angstroms)
 Number     Number       Type             X           Y           Z
 ---------------------------------------------------------------------
      1         35           0        2.841634   -1.713628    0.000006
      2          6           0        1.182187   -0.699205   -0.000004
      3          6           0        1.182216    0.699427    0.000019
      4         35           0        2.841580    1.713654   -0.000008
      5          6           0       -0.000054    1.523022    0.000016
      6          8           0       -0.000036    2.794669    0.000031
      7          6           0       -1.182213    0.699309    0.000006
      8          6           0       -1.182159   -0.699365   -0.000017
      9         35           0       -2.841593   -1.713544    0.000009
     10          6           0        0.000074   -1.522957   -0.000013
     11          8           0        0.000117   -2.794655   -0.000031
     12         35           0       -2.841649    1.713475   -0.000008
 ---------------------------------------------------------------------

 SCF Done:  E(UB3LYP) =  -10676.0181454     A.U. after   16 cycles

 The electronic state is 1-A.
 Alpha  occ. eigenvalues -- -482.81331-482.81330-482.81330-482.81329 -62.46604
 Alpha  occ. eigenvalues --  -62.46603 -62.46603 -62.46602 -56.28626 -56.28625
 Alpha  occ. eigenvalues --  -56.28625 -56.28624 -56.28272 -56.28272 -56.28272
 Alpha  occ. eigenvalues --  -56.28271 -56.28238 -56.28237 -56.28237 -56.28237
 Alpha  occ. eigenvalues --  -19.03515 -19.03514 -10.20802 -10.20801 -10.20401
 Alpha  occ. eigenvalues --  -10.20397 -10.20349 -10.20348  -8.67561  -8.67561
 Alpha  occ. eigenvalues --   -8.67560  -8.67559  -6.50649  -6.50648  -6.50648
 Alpha  occ. eigenvalues --   -6.50647  -6.49475  -6.49475  -6.49475  -6.49474
 Alpha  occ. eigenvalues --   -6.49375  -6.49374  -6.49374  -6.49373  -2.61751
 Alpha  occ. eigenvalues --   -2.61750  -2.61750  -2.61749  -2.61434  -2.61433
 Alpha  occ. eigenvalues --   -2.61432  -2.61432  -2.61357  -2.61357  -2.61357
 Alpha  occ. eigenvalues --   -2.61356  -2.60423  -2.60423  -2.60423  -2.60422
 Alpha  occ. eigenvalues --   -2.60422  -2.60422  -2.60421  -2.60421  -0.96442
 Alpha  occ. eigenvalues --   -0.96034  -0.84024  -0.81348  -0.77230  -0.77205
 Alpha  occ. eigenvalues --   -0.74741  -0.67331  -0.66467  -0.55397  -0.54841
 Alpha  occ. eigenvalues --   -0.48104  -0.43575  -0.40220  -0.40132  -0.38189
 Alpha  occ. eigenvalues --   -0.38093  -0.36474  -0.34887  -0.34508  -0.33240
 Alpha  occ. eigenvalues --   -0.29549  -0.29262  -0.29215  -0.28675  -0.28061
 Alpha  occ. eigenvalues --   -0.26377  -0.26325  -0.24199  -0.21951  -0.21768
 Alpha  occ. eigenvalues --   -0.21270  -0.14093
 Alpha virt. eigenvalues --   -0.03971  -0.00852  -0.00481   0.00619   0.00858
 Alpha virt. eigenvalues --    0.02437   0.02901   0.03148   0.04043   0.04595
 Alpha virt. eigenvalues --    0.05304   0.05400   0.05609   0.05760   0.06548

  Beta  occ. eigenvalues -- -482.81331-482.81330-482.81330-482.81329 -62.46604
  Beta  occ. eigenvalues --  -62.46603 -62.46603 -62.46602 -56.28626 -56.28625
  Beta  occ. eigenvalues --  -56.28625 -56.28624 -56.28272 -56.28272 -56.28272
  Beta  occ. eigenvalues --  -56.28271 -56.28238 -56.28237 -56.28237 -56.28237
  Beta  occ. eigenvalues --  -19.03515 -19.03514 -10.20802 -10.20801 -10.20401
  Beta  occ. eigenvalues --  -10.20397 -10.20349 -10.20348  -8.67561  -8.67561
  Beta  occ. eigenvalues --   -8.67560  -8.67559  -6.50649  -6.50648  -6.50648
  Beta  occ. eigenvalues --   -6.50647  -6.49475  -6.49475  -6.49475  -6.49474
  Beta  occ. eigenvalues --   -6.49375  -6.49374  -6.49374  -6.49373  -2.61751
  Beta  occ. eigenvalues --   -2.61750  -2.61750  -2.61749  -2.61434  -2.61433
  Beta  occ. eigenvalues --   -2.61432  -2.61432  -2.61357  -2.61357  -2.61357
  Beta  occ. eigenvalues --   -2.61356  -2.60423  -2.60423  -2.60423  -2.60422
  Beta  occ. eigenvalues --   -2.60422  -2.60422  -2.60421  -2.60421  -0.96442
  Beta  occ. eigenvalues --   -0.96034  -0.84024  -0.81348  -0.77230  -0.77205
  Beta  occ. eigenvalues --   -0.74741  -0.67331  -0.66467  -0.55397  -0.54841
  Beta  occ. eigenvalues --   -0.48104  -0.43575  -0.40220  -0.40132  -0.38189
  Beta  occ. eigenvalues --   -0.38093  -0.36474  -0.34887  -0.34508  -0.33240
  Beta  occ. eigenvalues --   -0.29549  -0.29262  -0.29215  -0.28675  -0.28061
  Beta  occ. eigenvalues --   -0.26377  -0.26325  -0.24199  -0.21951  -0.21768
  Beta  occ. eigenvalues --   -0.21270  -0.14093
  Beta virt. eigenvalues --   -0.03971  -0.00852  -0.00481   0.00619   0.00858
  Beta virt. eigenvalues --    0.02437   0.02901   0.03148   0.04043   0.04595
  Beta virt. eigenvalues --    0.05304   0.05400   0.05609   0.05760   0.06548

 Mulliken charges and spin densities:
               1          2
     1  Br  -0.176144  -0.000000
     2  C    0.313016  -0.000000
     3  C    0.312748   0.000000
     4  Br  -0.176071   0.000000
     5  C   -0.728497   0.000000
     6  O   -0.544967  -0.000000
     7  C    0.312923   0.000000
     8  C    0.312681  -0.000000
     9  Br  -0.176112  -0.000000
    10  C   -0.728455  -0.000000
    11  O   -0.545020  -0.000000
    12  Br  -0.176100  -0.000000
 Sum of Mulliken charges =  -2.00000   0.00000

 Dipole moment (field-independent basis, Debye):
    X=             -0.0005    Y=              0.0013    Z=             -0.0000  Tot=              0.0014
 Quadrupole moment (field-independent basis, Debye-Ang):
   XX=           -153.1113   YY=           -188.3477   ZZ=           -127.0221
   XY=              0.0035   XZ=             -0.0001   YZ=             -0.0006

 Normal termination of Gaussian 16 at Sun Jan 21 07:36:54 2024.
