 Gaussian 16, Revision A.03,
 Gaussian 16:  ES64L-G16RevA.03 25-Dec-2016

 --------------------------------------
 #P UB3LYP/6-311++G(d,p) nosym opt freq
 --------------------------------------

 -------
 Reduced
 -------
 Symbolic Z-matrix:
 Charge = -2 Multiplicity = 1

 SCF Done:  E(UB3LYP) =  -10675.7598150     A.U. after   18 cycles
 Optimization completed.
    -- Stationary point found.
 Normal termination of Gaussian 16 at Sat Jan  6 05:51:35 2024.

 ----------------------------------------------------------------------
 #P Geom=AllCheck Guess=TCheck SCRF=Check GenChk UB3LYP/6-311++G(d,p) F
 req
 ----------------------------------------------------------------------

 Structure from the checkpoint file:  "030-an.chk"
 -------
 Reduced
 -------
 Charge = -2 Multiplicity = 1

                          Input orientation:
 ---------------------------------------------------------------------
 Center     Atomic      Atomic             Coordinates (Angstroms)
 Number     Number       Type             X           Y           Z
 ---------------------------------------------------------------------
      1         35           0       -3.114242   -1.145718    0.015515
      2          6           0       -1.293005   -0.463199    0.006481
      3          6           0       -1.028688    0.910229    0.008433
      4         35           0       -2.466424    2.219779    0.020369
      5          6           0        0.287913    1.495542    0.002135
      6          8           0        0.528240    2.744272    0.003916
      7          6           0        1.293061    0.463260   -0.006482
      8          6           0        1.028655   -0.910194   -0.008434
      9         35           0        2.466468   -2.219709   -0.020369
     10          6           0       -0.287910   -1.495511   -0.002137
     11          8           0       -0.528306   -2.744279   -0.003915
     12         35           0        3.114239    1.145529   -0.015512
 ---------------------------------------------------------------------

 SCF Done:  E(UB3LYP) =  -10675.7598150     A.U. after    1 cycles

 Alpha  occ. eigenvalues -- -482.57814-482.57813-482.57813-482.57812 -62.23086
 Alpha  occ. eigenvalues --  -62.23086 -62.23085 -62.23084 -56.05099 -56.05098
 Alpha  occ. eigenvalues --  -56.05098 -56.05097 -56.04763 -56.04762 -56.04762
 Alpha  occ. eigenvalues --  -56.04761 -56.04723 -56.04723 -56.04723 -56.04721
 Alpha  occ. eigenvalues --  -18.78060 -18.78059  -9.96200  -9.96196  -9.96154
 Alpha  occ. eigenvalues --   -9.96144  -9.96068  -9.96065  -8.44041  -8.44041
 Alpha  occ. eigenvalues --   -8.44040  -8.44039  -6.27105  -6.27104  -6.27104
 Alpha  occ. eigenvalues --   -6.27103  -6.25980  -6.25979  -6.25979  -6.25978
 Alpha  occ. eigenvalues --   -6.25858  -6.25857  -6.25857  -6.25856  -2.38214
 Alpha  occ. eigenvalues --   -2.38213  -2.38212  -2.38211  -2.37913  -2.37913
 Alpha  occ. eigenvalues --   -2.37912  -2.37911  -2.37820  -2.37820  -2.37819
 Alpha  occ. eigenvalues --   -2.37818  -2.36923  -2.36923  -2.36922  -2.36922
 Alpha  occ. eigenvalues --   -2.36921  -2.36921  -2.36921  -2.36920  -0.71076
 Alpha  occ. eigenvalues --   -0.70585  -0.59687  -0.57474  -0.53546  -0.53436
 Alpha  occ. eigenvalues --   -0.50878  -0.43374  -0.41984  -0.31186  -0.30463
 Alpha  occ. eigenvalues --   -0.23568  -0.19320  -0.16308  -0.15522  -0.14553
 Alpha  occ. eigenvalues --   -0.12541  -0.11337  -0.10594  -0.09805  -0.09355
 Alpha  occ. eigenvalues --   -0.05764  -0.05650  -0.05093  -0.04965  -0.04138
 Alpha  occ. eigenvalues --   -0.02660  -0.02465   0.00746   0.02182   0.03651
 Alpha  occ. eigenvalues --    0.03954   0.11047
 Alpha virt. eigenvalues --    0.17744   0.18961   0.20078   0.20534   0.22618
 Alpha virt. eigenvalues --    0.23135   0.23446   0.23589   0.23981   0.24021
 Alpha virt. eigenvalues --    0.24398   0.24778   0.24840   0.25324   0.26352

  Beta  occ. eigenvalues -- -482.57814-482.57813-482.57813-482.57812 -62.23086
  Beta  occ. eigenvalues --  -62.23086 -62.23085 -62.23084 -56.05099 -56.05098
  Beta  occ. eigenvalues --  -56.05098 -56.05097 -56.04763 -56.04762 -56.04762
  Beta  occ. eigenvalues --  -56.04761 -56.04723 -56.04723 -56.04723 -56.04721
  Beta  occ. eigenvalues --  -18.78060 -18.78059  -9.96200  -9.96196  -9.96154
  Beta  occ. eigenvalues --   -9.96144  -9.96068  -9.96065  -8.44041  -8.44041
  Beta  occ. eigenvalues --   -8.44040  -8.44039  -6.27105  -6.27104  -6.27104
  Beta  occ. eigenvalues --   -6.27103  -6.25980  -6.25979  -6.25979  -6.25978
  Beta  occ. eigenvalues --   -6.25858  -6.25857  -6.25857  -6.25856  -2.38214
  Beta  occ. eigenvalues --   -2.38213  -2.38212  -2.38211  -2.37913  -2.37913
  Beta  occ. eigenvalues --   -2.37912  -2.37911  -2.37820  -2.37820  -2.37819
  Beta  occ. eigenvalues --   -2.37818  -2.36923  -2.36923  -2.36922  -2.36922
  Beta  occ. eigenvalues --   -2.36921  -2.36921  -2.36921  -2.36920  -0.71076
  Beta  occ. eigenvalues --   -0.70585  -0.59687  -0.57474  -0.53546  -0.53436
  Beta  occ. eigenvalues --   -0.50878  -0.43374  -0.41984  -0.31186  -0.30463
  Beta  occ. eigenvalues --   -0.23568  -0.19320  -0.16308  -0.15522  -0.14553
  Beta  occ. eigenvalues --   -0.12541  -0.11337  -0.10594  -0.09805  -0.09355
  Beta  occ. eigenvalues --   -0.05764  -0.05650  -0.05093  -0.04965  -0.04138
  Beta  occ. eigenvalues --   -0.02660  -0.02465   0.00746   0.02182   0.03651
  Beta  occ. eigenvalues --    0.03954   0.11047
  Beta virt. eigenvalues --    0.17744   0.18961   0.20078   0.20534   0.22618
  Beta virt. eigenvalues --    0.23135   0.23446   0.23589   0.23981   0.24021
  Beta virt. eigenvalues --    0.24398   0.24778   0.24840   0.25324   0.26352

 Mulliken charges and spin densities:
               1          2
     1  Br  -0.303808  -0.000000
     2  C    0.519105  -0.000000
     3  C    0.518922   0.000000
     4  Br  -0.303774  -0.000000
     5  C   -1.018870   0.000000
     6  O   -0.411502  -0.000000
     7  C    0.518982   0.000000
     8  C    0.518939  -0.000000
     9  Br  -0.303814   0.000000
    10  C   -1.018868  -0.000000
    11  O   -0.411534   0.000000
    12  Br  -0.303777  -0.000000
 Sum of Mulliken charges =  -2.00000  -0.00000

 Dipole moment (field-independent basis, Debye):
    X=              0.0005    Y=              0.0009    Z=             -0.0000  Tot=              0.0011
 Quadrupole moment (field-independent basis, Debye-Ang):
   XX=           -169.7662   YY=           -187.3208   ZZ=           -128.3361
   XY=             -3.5124   XZ=              0.2368   YZ=             -0.1309

  Exact polarizability: 275.696 -10.471 223.294  -0.995   0.349 112.469
 Approx polarizability: 396.241  -6.269 364.838  -1.355   0.538 170.482

                      1                      2                      3
                      A                      A                      A
 Frequencies --     19.1741                37.4664                65.8688
 Red. masses --     16.4686                78.0299                17.4031
 Frc consts  --      0.0036                 0.0645                 0.0445
 IR Inten    --      0.0000                 0.0000                10.7695

                      4                      5                      6
                      A                      A                      A
 Frequencies --    124.7362               133.1415               134.1408
 Red. masses --     78.1429                39.2411                68.7647
 Frc consts  --      0.7163                 0.4098                 0.7290
 IR Inten    --      0.0000                 5.5165                 3.3705

                      7                      8                      9
                      A                      A                      A
 Frequencies --    163.4573               170.9885               185.8087
 Red. masses --     13.4723                13.8828                66.3967
 Frc consts  --      0.2121                 0.2391                 1.3506
 IR Inten    --      2.8908                 0.0001                 0.0000

                     10                     11                     12
                      A                      A                      A
 Frequencies --    203.9829               265.5097               291.5557
 Red. masses --     71.8488                16.5624                12.2667
 Frc consts  --      1.7614                 0.6879                 0.6144
 IR Inten    --      0.0000                 0.0000                 0.0000

                     13                     14                     15
                      A                      A                      A
 Frequencies --    304.3254               305.0636               476.8677
 Red. masses --     21.1483                18.0709                12.0208
 Frc consts  --      1.1540                 0.9909                 1.6106
 IR Inten    --      1.2507                 0.0405                 0.0000

                     16                     17                     18
                      A                      A                      A
 Frequencies --    481.5178               559.6601               684.4133
 Red. masses --     13.9675                13.6922                12.6276
 Frc consts  --      1.9081                 2.5268                 3.4850
 IR Inten    --      0.0000                48.1824                 0.0000

                     19                     20                     21
                      A                      A                      A
 Frequencies --    690.7589               697.1423               732.0373
 Red. masses --     12.1856                12.2585                12.2795
 Frc consts  --      3.4257                 3.5102                 3.8770
 IR Inten    --      0.0000                 3.3028                 0.0000

                     22                     23                     24
                      A                      A                      A
 Frequencies --    824.9182               922.7807              1056.4946
 Red. masses --     12.8477                12.4825                12.0065
 Frc consts  --      5.1511                 6.2625                 7.8959
 IR Inten    --    280.7192                 0.0000               387.0204

                     25                     26                     27
                      A                      A                      A
 Frequencies --   1099.9210              1322.0459              1329.1642
 Red. masses --     12.4039                12.0136                12.0415
 Frc consts  --      8.8416                12.3714                12.5340
 IR Inten    --     62.6612                 0.0005                48.7775

                     28                     29                     30
                      A                      A                      A
 Frequencies --   1411.1405              1473.0916              1573.0807
 Red. masses --     12.8282                12.8099                12.2719
 Frc consts  --     15.0506                16.3778                17.8923
 IR Inten    --      0.0020               973.1957                 0.0004

 - Thermochemistry -
 -------------------
 Temperature   298.150 Kelvin.  Pressure   1.00000 Atm.
 Atom     1 has atomic number 35 and mass  78.91834

 Molecular mass:   419.66317 amu.
 Principal axes and moments of inertia in atomic units:
                           1         2         3
     Eigenvalues --  4484.942659342.16952**********
           X            0.98196   0.18900   0.00593
           Y           -0.18899   0.98198  -0.00258
           Z           -0.00631   0.00141   0.99998
 This molecule is an asymmetric top.
 Rotational symmetry number  1.
 Warning -- assumption of classical behavior for rotation
           may cause significant error
 Rotational temperatures (Kelvin)      0.01931     0.00927     0.00626
 Rotational constants (GHZ):           0.40240     0.19318     0.13052
 Zero-point vibrational energy     106110.3 (Joules/Mol)
                                   25.36097 (Kcal/Mol)
 Warning -- explicit consideration of  17 degrees of freedom as
           vibrations may cause significant error
 Vibrational temperatures:     27.59    53.91    94.77   179.47   191.56
          (Kelvin)            193.00   235.18   246.01   267.34   293.49
                              382.01   419.48   437.86   438.92   686.11
                              692.80   805.23   984.72   993.85  1003.03
                             1053.24  1186.87  1327.68  1520.06  1582.54
                             1902.13  1912.37  2030.32  2119.45  2263.31

 Zero-point correction=                           0.040415 (Hartree/Particle)
 Thermal correction to Energy=                    0.053261
 Thermal correction to Enthalpy=                  0.054205
 Thermal correction to Gibbs Free Energy=        -0.004133
 Sum of electronic and zero-point Energies=         -10675.719400
 Sum of electronic and thermal Energies=            -10675.706554
 Sum of electronic and thermal Enthalpies=          -10675.705610
 Sum of electronic and thermal Free Energies=       -10675.763948

                     E (Thermal)             CV                S
                      KCal/Mol        Cal/Mol-Kelvin    Cal/Mol-Kelvin
 Total                   33.422             41.097            122.783
 Electronic               0.000              0.000              0.000
 Translational            0.889              2.981             43.993
 Rotational               0.889              2.981             34.715
 Vibrational             31.644             35.135             44.075
 Vibration     1          0.593              1.986              6.718
 Vibration     2          0.594              1.982              5.389
 Vibration     3          0.597              1.971              4.273
 Vibration     4          0.610              1.928              3.026
 Vibration     5          0.613              1.920              2.900
 Vibration     6          0.613              1.919              2.886
 Vibration     7          0.623              1.887              2.509
 Vibration     8          0.626              1.878              2.425
 Vibration     9          0.632              1.859              2.269
 Vibration    10          0.640              1.834              2.097
 Vibration    11          0.671              1.736              1.625
 Vibration    12          0.687              1.689              1.465
 Vibration    13          0.695              1.666              1.393
 Vibration    14          0.696              1.664              1.389
 Vibration    15          0.833              1.301              0.719
 Vibration    16          0.838              1.291              0.706
 Vibration    17          0.915              1.119              0.525

 Optimization completed.
    -- Stationary point found.
 Normal termination of Gaussian 16 at Sat Jan  6 06:11:33 2024.
