 Q-Chem 5.4, Q-Chem, Inc., Pleasanton, CA (2021)
 Q-Chem 5.4.0 for Intel X86 EM64T Linux

User input:
--------------------------------------------------------------
$molecule
0 1
C                  5.7669820000     -5.3002400000      1.2623960000
C                  6.7059600000     -5.1493690000      0.2334160000
C                  6.5885180000     -4.1631320000     -0.7403670000
C                  4.6693600000     -4.4060290000      1.2906920000
C                  4.5572550000     -3.4069450000      0.2979590000
C                  5.5109000000     -3.2873830000     -0.7100130000
C                  3.6199490000     -4.4911220000      2.3485350000
C                  2.4795820000     -3.5134170000      2.3239000000
C                  2.4068940000     -2.5764870000      1.3634200000
C                  3.4118450000     -2.4458840000      0.2966520000
O                  3.6494230000     -5.3277270000      3.2393210000
O                  3.3030670000     -1.5770520000     -0.5563120000
C                  5.9885260000     -6.4026400000      2.2681280000
H                  7.5508440000     -5.8288610000      0.2018440000
C                  1.4609280000     -3.6539220000      3.4137940000
H                  1.5929850000     -1.8594380000      1.3250020000
H                  5.3874360000     -2.5080460000     -1.4513310000
H                  7.3376660000     -4.0806310000     -1.5197670000
H                  6.9030590000     -6.9469730000      2.0243530000
H                  5.1533830000     -7.1054810000      2.2865750000
H                  6.0705760000     -6.0112170000      3.2839270000
H                  1.0113790000     -4.6503690000      3.3939290000
H                  0.6756700000     -2.9039530000      3.3128870000
H                  1.9314510000     -3.5522680000      4.3954580000
$end

$rem
BASIS  =  6-311++G(d,p)
GUI  =  2
JOB_TYPE  =  SP
METHOD  =  B3LYP
SCF_CONVERGENCE  = 8
SOLVENT_METHOD = sm12
$end

$smx
solvent dimethylformamide
charges CM5
$end

--------------------------------------------------------------

             Standard Nuclear Orientation (Angstroms)
    I     Atom           X                Y                Z
 ----------------------------------------------------------------
    1      C       5.7669820000    -5.3002400000     1.2623960000
    2      C       6.7059600000    -5.1493690000     0.2334160000
    3      C       6.5885180000    -4.1631320000    -0.7403670000
    4      C       4.6693600000    -4.4060290000     1.2906920000
    5      C       4.5572550000    -3.4069450000     0.2979590000
    6      C       5.5109000000    -3.2873830000    -0.7100130000
    7      C       3.6199490000    -4.4911220000     2.3485350000
    8      C       2.4795820000    -3.5134170000     2.3239000000
    9      C       2.4068940000    -2.5764870000     1.3634200000
   10      C       3.4118450000    -2.4458840000     0.2966520000
   11      O       3.6494230000    -5.3277270000     3.2393210000
   12      O       3.3030670000    -1.5770520000    -0.5563120000
   13      C       5.9885260000    -6.4026400000     2.2681280000
   14      H       7.5508440000    -5.8288610000     0.2018440000
   15      C       1.4609280000    -3.6539220000     3.4137940000
   16      H       1.5929850000    -1.8594380000     1.3250020000
   17      H       5.3874360000    -2.5080460000    -1.4513310000
   18      H       7.3376660000    -4.0806310000    -1.5197670000
   19      H       6.9030590000    -6.9469730000     2.0243530000
   20      H       5.1533830000    -7.1054810000     2.2865750000
   21      H       6.0705760000    -6.0112170000     3.2839270000
   22      H       1.0113790000    -4.6503690000     3.3939290000
   23      H       0.6756700000    -2.9039530000     3.3128870000
   24      H       1.9314510000    -3.5522680000     4.3954580000
 ----------------------------------------------------------------

   15    -613.9131978124      3.73e-09  Convergence criterion met
 Total energy in the final basis set =     -613.9298671244

                    Orbital Energies (a.u.)
 --------------------------------------------------------------

 Alpha MOs
 -- Occupied --
-19.1300 -19.1268 -10.2798 -10.2761 -10.2163 -10.2108 -10.2078 -10.2053
-10.1983 -10.1951 -10.1926 -10.1920 -10.1718 -10.1673  -1.0642  -1.0589
 -0.8883  -0.8451  -0.7944  -0.7826  -0.7259  -0.7089  -0.6714  -0.6396
 -0.6172  -0.5679  -0.5408  -0.5247  -0.4984  -0.4751  -0.4615  -0.4593
 -0.4531  -0.4284  -0.4246  -0.4243  -0.4216  -0.4110  -0.3953  -0.3923
 -0.3864  -0.3744  -0.3677  -0.3646  -0.2949  -0.2810  -0.2763  -0.2689
 -0.2673

          Ground-State Mulliken Net Atomic Charges

     Atom                 Charge (a.u.)
  ----------------------------------------
      1 C                     0.143908
      2 C                     0.072417
      3 C                     0.357592
      4 C                     0.140952
      5 C                     0.078280
      6 C                    -0.290428
      7 C                    -1.504045
      8 C                     0.932920
      9 C                    -0.126144
     10 C                    -1.678103
     11 O                    -0.226292
     12 O                    -0.321350
     13 C                    -0.097222
     14 H                     0.252414
     15 C                     0.371249
     16 H                     0.236844
     17 H                     0.163302
     18 H                     0.338290
     19 H                     0.211656
     20 H                     0.149260
     21 H                     0.149175
     22 H                     0.195028
     23 H                     0.255369
     24 H                     0.194930
  ----------------------------------------
  Sum of atomic charges =     0.000000

                    Cartesian Multipole Moments
 -----------------------------------------------------------------
    Charge (ESU x 10^10)
                 0.0000
    Dipole Moment (Debye)
         X       1.2310      Y      -1.5464      Z       0.5614
       Tot       2.0547
    Quadrupole Moments (Debye-Ang)
        XX     -58.8050     XY     -15.0963     YY     -75.7421
        XZ      -4.7009     YZ       4.8364     ZZ     -83.4990

 Total job time:  365.93s(wall), 2861.15s(cpu)
        *  Thank you very much for using Q-Chem.  Have a nice day.  *
