 Q-Chem 5.4, Q-Chem, Inc., Pleasanton, CA (2021)
 Q-Chem 5.4.0 for Intel X86 EM64T Linux

User input:
--------------------------------------------------------------
$molecule
-2 1
C                  3.4809920000      2.6399170000      0.7568340000
C                  2.8073580000      1.3425670000      0.3899870000
C                  1.4181770000      1.2353720000      0.3488270000
C                  0.7423580000      0.0435960000      0.0212140000
C                  1.5697510000     -1.0602110000     -0.2641470000
C                  2.9620440000     -1.0047070000     -0.2271710000
C                  3.8017340000     -2.2135380000     -0.5513930000
C                  3.6564870000      0.2141080000      0.1030710000
O                  4.9400580000      0.2892090000      0.1391710000
C                 -0.7423900000     -0.0433160000     -0.0205230000
C                 -1.4410020000     -1.1976640000      0.3841500000
C                 -2.8303580000     -1.3047440000      0.3493630000
C                 -3.5295070000     -2.5601590000      0.8039180000
C                 -3.6564650000     -0.2142180000     -0.1034730000
O                 -4.9400130000     -0.2894700000     -0.1401040000
C                 -2.9390210000      0.9669000000     -0.5122190000
C                 -1.5469770000      1.0229680000     -0.4678830000
C                 -3.7532110000      2.1335820000     -1.0096980000
H                  4.1262590000      2.5203020000      1.6378060000
H                  2.7436180000      3.4247350000      0.9642910000
H                  4.1462080000      2.9856650000     -0.0462770000
H                  0.8255610000      2.1128880000      0.6048590000
H                  1.0986830000     -1.9999420000     -0.5501120000
H                  3.1736140000     -3.0781690000     -0.7975160000
H                  4.4772250000     -2.0165940000     -1.3950200000
H                  4.4564080000     -2.4822000000      0.2890020000
H                 -0.8682090000     -2.0425160000      0.7648250000
H                 -4.2287230000     -2.3532160000      1.6255240000
H                 -4.1436670000     -2.9887710000      0.0000830000
H                 -2.8089490000     -3.3169280000      1.1367700000
H                 -1.0560730000      1.9301910000     -0.8182280000
H                 -3.1084010000      2.9709450000     -1.3025020000
H                 -4.3749220000      1.8495580000     -1.8696940000
H                 -4.4586470000      2.4838600000     -0.2437340000
$end
$rem
MAX_SCF_CYCLES=200
BASIS  =  6-311++G(d,p)
GUI  =  2
JOB_TYPE  =  SP
METHOD  =  B3LYP
SOLVENT_METHOD = COSMO
$end
$solvent
dielectric 37.219
opticaldielectric 1.43
$end

--------------------------------------------------------------

             Standard Nuclear Orientation (Angstroms)
    I     Atom           X                Y                Z
 ----------------------------------------------------------------
    1      C       3.6492964997    -2.3939042158    -0.7817428891
    2      C       2.8909086681    -1.1581649012    -0.3703151884
    3      C       1.4972298035    -1.1325233543    -0.3670751294
    4      C       0.7439385027    -0.0000932875    -0.0002700141
    5      C       1.4970236637     1.1324103328     0.3667426017
    6      C       2.8906685301     1.1582601427     0.3704154949
    7      C       3.6487905084     2.3941198261     0.7819656096
    8      C       3.6641991938     0.0000712756     0.0001862097
    9      O       4.9504720465     0.0001496374     0.0003425405
   10      C      -0.7439365774    -0.0001426928    -0.0004697892
   11      C      -1.4971465177     1.1323225252    -0.3672607167
   12      C      -2.8908136766     1.1581758035    -0.3703935700
   13      C      -3.6490613427     2.3940051750    -0.7818332811
   14      C      -3.6641969840     0.0000269561     0.0001866267
   15      O      -4.9504706772     0.0000724236     0.0005687721
   16      C      -2.8907447304    -1.1582707435     0.3702635997
   17      C      -1.4971079395    -1.1326089688     0.3665531146
   18      C      -3.6490427785    -2.3940237631     0.7818898204
   19      H       4.3110405454    -2.1914336247    -1.6349072297
   20      H       2.9651989627    -3.2073696298    -1.0518959867
   21      H       4.3106859051    -2.7431372994     0.0230189342
   22      H       0.9643726900    -2.0276053977    -0.6859353981
   23      H       0.9639584901     2.0274060519     0.6854894882
   24      H       2.9645171167     3.2074070301     1.0522097231
   25      H       4.3105932562     2.1916883237     1.6350893727
   26      H       4.3100658027     2.7435816484    -0.0227905599
   27      H      -0.9642165449     2.0273140589    -0.6862528436
   28      H      -4.3115511209     2.1912556636    -1.6343382773
   29      H      -4.3096357189     2.7439491139     0.0232953996
   30      H      -2.9648768986     3.2070647497    -1.0529778535
   31      H      -0.9640823449    -2.0276480156     0.6852547747
   32      H      -2.9648974263    -3.2076180055     1.0515200447
   33      H      -4.3102833932    -2.1916253613     1.6354605888
   34      H      -4.3109292155    -2.7429664537    -0.0225856733
 ----------------------------------------------------------------

   11    -770.0250355520      2.09e-06  Convergence criterion met
 Total energy in the final basis set =     -770.0250355520
    5    -770.2778453073      7.05e-06  Convergence criterion met
 Total energy in the final basis set =     -770.2778453073

                    Orbital Energies (a.u.)
 --------------------------------------------------------------

 Alpha MOs
 -- Occupied --
-19.0321 -19.0321 -10.1820 -10.1820 -10.1430 -10.1430 -10.1430 -10.1430
-10.1427 -10.1424 -10.1398 -10.1398 -10.1397 -10.1397 -10.1386 -10.1386
-10.1385 -10.1385  -0.9486  -0.9485  -0.8271  -0.8033  -0.7530  -0.7509
 -0.7377  -0.6983  -0.6589  -0.6555  -0.6460  -0.6325  -0.5643  -0.5501
 -0.5342  -0.5220  -0.4674  -0.4623  -0.4386  -0.4252  -0.4121  -0.4052
 -0.4038  -0.3893  -0.3879  -0.3878  -0.3825  -0.3779  -0.3775  -0.3712
 -0.3701  -0.3545  -0.3461  -0.3379  -0.3370  -0.3289  -0.3207  -0.3115
 -0.3103  -0.3015  -0.2757  -0.2170  -0.2156  -0.2073  -0.2058  -0.1807
 -0.1407

          Ground-State Mulliken Net Atomic Charges

     Atom                 Charge (a.u.)
  ----------------------------------------
      1 C                    -0.392067
      2 C                     0.996051
      3 C                    -0.826474
      4 C                     0.726997
      5 C                    -0.826284
      6 C                     0.996516
      7 C                    -0.391941
      8 C                    -1.786853
      9 O                    -0.675871
     10 C                     0.727025
     11 C                    -0.826233
     12 C                     0.997434
     13 C                    -0.392452
     14 C                    -1.788096
     15 O                    -0.675832
     16 C                     0.996159
     17 C                    -0.825768
     18 C                    -0.391792
     19 H                     0.153164
     20 H                     0.135078
     21 H                     0.160246
     22 H                     0.141496
     23 H                     0.141395
     24 H                     0.135025
     25 H                     0.153070
     26 H                     0.160319
     27 H                     0.141438
     28 H                     0.153080
     29 H                     0.160300
     30 H                     0.135094
     31 H                     0.141423
     32 H                     0.134991
     33 H                     0.153072
     34 H                     0.160289
  ----------------------------------------
  Sum of atomic charges =    -2.000000

                    Cartesian Multipole Moments
 -----------------------------------------------------------------
    Charge (ESU x 10^10)
                -9.6064
    Dipole Moment (Debye)
         X      -0.0001      Y      -0.0025      Z      -0.0015
       Tot       0.0029
    Quadrupole Moments (Debye-Ang)
        XX    -299.5646     XY       0.0024     YY    -116.0402
        XZ       0.0035     YZ      -0.0010     ZZ    -119.5800

 Total job time:  101.03s(wall), 773.66s(cpu)
        *  Thank you very much for using Q-Chem.  Have a nice day.  *
