 Q-Chem 5.4, Q-Chem, Inc., Pleasanton, CA (2021)
 Q-Chem 5.4.0 for Intel X86 EM64T Linux

User input:
--------------------------------------------------------------
$molecule
-1 2
C                  4.9873710000     -2.0431900000      0.4908420000
C                  5.7291490000     -1.3380440000     -0.4381670000
C                  5.1163620000     -0.6064620000     -1.4812240000
C                  3.5856370000     -2.0413300000      0.4084410000
C                  2.9456370000     -1.3131300000     -0.6363850000
C                  3.7431650000     -0.6030520000     -1.5641390000
C                  2.8216440000     -2.8002860000      1.4106080000
C                  1.3586270000     -2.7600010000      1.2620510000
C                  0.7257880000     -2.0298940000      0.2142010000
C                  1.4910320000     -1.2765080000     -0.7778050000
C                  0.5709890000     -3.4679370000      2.1839920000
C                 -0.6864220000     -2.0336870000      0.1330080000
C                 -1.4558850000     -2.7285990000      1.0372700000
O                  3.3767500000     -3.4386480000      2.3214850000
O                  0.9306800000     -0.6352420000     -1.6998330000
H                  5.4580120000     -2.5978860000      1.2928530000
S                  7.4945480000     -1.3777830000     -0.3460540000
H                 -2.5368830000     -2.7231550000      0.9825100000
H                  3.2310520000     -0.0521660000     -2.3435730000
H                  1.0669080000     -4.0137110000      2.9768420000
H                 -1.1417060000     -1.4649870000     -0.6685870000
C                 -0.8061130000     -3.4471130000      2.0668870000
S                 -1.7856100000     -4.3717850000      3.2124880000
O                 -1.0652940000     -4.6232500000      4.4579310000
O                 -3.1460860000     -3.8375100000      3.2769330000
O                 -1.8610040000     -5.8108690000      2.3829540000
C                 -2.5622740000     -6.8714370000      3.0567570000
H                 -2.0717790000     -7.1170550000      4.0016270000
H                 -2.5122010000     -7.7227380000      2.3793730000
H                 -3.6052800000     -6.5949970000      3.2313400000
H                  5.7269600000     -0.0542550000     -2.1839620000
O                  7.9571500000     -1.7213000000      0.9960020000
O                  8.0728670000     -0.2138500000     -1.0179060000
O                  7.7726620000     -2.6961800000     -1.3203900000
C                  9.1530050000     -3.0801170000     -1.4537560000
H                  9.5717640000     -3.3531870000     -0.4822620000
H                  9.7363610000     -2.2734850000     -1.9051740000
H                  9.1462070000     -3.9471850000     -2.1127100000
$end
$rem
MAX_SCF_CYCLES=200
BASIS  =  6-311++G(d,p)
GUI  =  2
JOB_TYPE  =  SP
METHOD  =  B3LYP
SOLVENT_METHOD = COSMO
$end
$solvent
dielectric 37.219
opticaldielectric 1.43
$end

--------------------------------------------------------------

             Standard Nuclear Orientation (Angstroms)
    I     Atom           X                Y                Z
 ----------------------------------------------------------------
    1      C       2.4690978667    -0.4792292756     0.3547946686
    2      C       3.6543958566     0.2185337304     0.2179784879
    3      C       3.6756579167     1.6065679020    -0.0495978534
    4      C       1.2449485264     0.1966655664     0.2272166674
    5      C       1.2415168130     1.5956789781    -0.0453384780
    6      C       2.4776404281     2.2710786867    -0.1750412275
    7      C      -0.0008368627    -0.5710445587     0.3778092905
    8      C      -1.2459770530     0.1976351933     0.2265870988
    9      C      -1.2414199099     1.5965499716    -0.0464472022
   10      C       0.0003899306     2.3538635055    -0.1935841445
   11      C      -2.4706477178    -0.4772283655     0.3541141400
   12      C      -2.4769792614     2.2726641952    -0.1776204456
   13      C      -3.6755795352     1.6090110991    -0.0527696854
   14      O      -0.0014032970    -1.7917455254     0.6128294012
   15      O       0.0009312096     3.5855918693    -0.4348247386
   16      H       2.4545294253    -1.5411195243     0.5659559997
   17      S       5.1893479962    -0.6501856542     0.3442566807
   18      H      -4.6214842393     2.1275417140    -0.1420740129
   19      H       2.4462927349     3.3352124104    -0.3747640615
   20      H      -2.4569030492    -1.5389484843     0.5661931575
   21      H      -2.4447850068     3.3366584543    -0.3779639040
   22      C      -3.6553993646     0.2212570743     0.2161331116
   23      S      -5.1908536996    -0.6465351795     0.3432193874
   24      O      -5.0468797932    -1.8901785139     1.0954433058
   25      O      -6.2748552384     0.2714143682     0.6936579295
   26      O      -5.3889407963    -1.0537599019    -1.2566878596
   27      C      -6.5530407063    -1.8478321557    -1.5480900447
   28      H      -6.5096796424    -2.8024200041    -1.0183969999
   29      H      -6.5215495663    -2.0173760207    -2.6234192814
   30      H      -7.4654664421    -1.3076990805    -1.2825804377
   31      H       4.6219266251     2.1246874667    -0.1375230112
   32      O       5.0432466231    -1.8982352377     1.0886661600
   33      O       6.2727077936     0.2653841348     0.7029229809
   34      O       5.3917607454    -1.0475654200    -1.2576069490
   35      C       6.5605546828    -1.8336877692    -1.5516703631
   36      H       6.5227362193    -2.7905400877    -1.0256187293
   37      H       7.4696693474    -1.2891528974    -1.2838459487
   38      H       6.5303372142    -1.9994594613    -2.6276258242
 ----------------------------------------------------------------

    9   -2015.4485388265      6.48e-06  Convergence criterion met
 Total energy in the final basis set =    -2015.4485388265
    4   -2015.5324637532      6.62e-06  Convergence criterion met
 Total energy in the final basis set =    -2015.5324637532

                    Orbital Energies (a.u.)
 --------------------------------------------------------------

 Alpha MOs
 -- Occupied --
-89.0952 -89.0952 -19.1793 -19.1793 -19.1449 -19.1449 -19.1438 -19.1438
-19.1014 -19.0941 -10.2526 -10.2411 -10.2280 -10.2280 -10.2269 -10.2269
-10.2059 -10.2059 -10.2015 -10.2015 -10.1976 -10.1976 -10.1971 -10.1971
-10.1898 -10.1898  -8.1562  -8.1562  -6.1199  -6.1199  -6.1184  -6.1184
 -6.1167  -6.1167  -1.1616  -1.1616  -1.0511  -1.0510  -1.0366  -1.0366
 -1.0329  -1.0213  -0.8926  -0.8860  -0.8257  -0.7971  -0.7830  -0.7749
 -0.7480  -0.7340  -0.6956  -0.6788  -0.6683  -0.6274  -0.6274  -0.6068
 -0.5827  -0.5698  -0.5696  -0.5381  -0.5354  -0.5229  -0.5157  -0.5071
 -0.4991  -0.4881  -0.4809  -0.4661  -0.4631  -0.4613  -0.4586  -0.4518
 -0.4480  -0.4448  -0.4408  -0.4399  -0.4364  -0.4166  -0.4126  -0.4106
 -0.4020  -0.3991  -0.3922  -0.3732  -0.3718  -0.3656  -0.3600  -0.3600
 -0.3567  -0.3559  -0.3447  -0.3444  -0.3392  -0.3389  -0.3090  -0.3090
 -0.2934  -0.2846  -0.2801  -0.2767  -0.2684  -0.2582  -0.1643

 Beta MOs
 -- Occupied --
-89.0952 -89.0952 -19.1792 -19.1792 -19.1448 -19.1448 -19.1438 -19.1437
-19.0967 -19.0876 -10.2516 -10.2394 -10.2273 -10.2273 -10.2269 -10.2269
-10.2063 -10.2063 -10.2008 -10.2008 -10.1966 -10.1966 -10.1961 -10.1961
-10.1898 -10.1898  -8.1562  -8.1562  -6.1198  -6.1198  -6.1184  -6.1184
 -6.1168  -6.1168  -1.1615  -1.1615  -1.0509  -1.0509  -1.0365  -1.0365
 -1.0249  -1.0100  -0.8903  -0.8848  -0.8218  -0.7956  -0.7807  -0.7737
 -0.7464  -0.7332  -0.6905  -0.6766  -0.6667  -0.6262  -0.6260  -0.6060
 -0.5810  -0.5690  -0.5679  -0.5375  -0.5346  -0.5218  -0.5146  -0.5056
 -0.4987  -0.4869  -0.4800  -0.4651  -0.4629  -0.4611  -0.4583  -0.4515
 -0.4478  -0.4397  -0.4395  -0.4319  -0.4309  -0.4140  -0.4122  -0.4098
 -0.3975  -0.3894  -0.3794  -0.3725  -0.3669  -0.3600  -0.3598  -0.3591
 -0.3564  -0.3549  -0.3446  -0.3443  -0.3386  -0.3366  -0.3089  -0.3088
 -0.2808  -0.2715  -0.2712  -0.2708  -0.2636  -0.2526

          Ground-State Mulliken Net Atomic Charges

     Atom                 Charge (a.u.)    Spin (a.u.)
  --------------------------------------------------------
      1 C                     0.083898      -0.023152
      2 C                    -0.787855       0.037722
      3 C                    -0.337249       0.051344
      4 C                     0.404556       0.053040
      5 C                     0.403708       0.058115
      6 C                    -0.117843       0.030018
      7 C                    -0.835428       0.059247
      8 C                     0.397456       0.052793
      9 C                     0.399712       0.057762
     10 C                    -0.401920       0.108536
     11 C                     0.078612      -0.023142
     12 C                    -0.115707       0.029970
     13 C                    -0.336978       0.051272
     14 O                    -0.400637       0.170823
     15 O                    -0.446995       0.238291
     16 H                     0.234269       0.000970
     17 S                     0.379772       0.005941
     18 H                     0.260599      -0.003649
     19 H                     0.193853      -0.001766
     20 H                     0.234059       0.000967
     21 H                     0.193790      -0.001776
     22 C                    -0.780615       0.037798
     23 S                     0.381619       0.005821
     24 O                    -0.250407       0.002486
     25 O                    -0.233063      -0.000985
     26 O                    -0.089487       0.000490
     27 C                    -0.164253       0.001113
     28 H                     0.182116       0.000008
     29 H                     0.200049       0.000281
     30 H                     0.181642       0.000001
     31 H                     0.260637      -0.003657
     32 O                    -0.248816       0.002470
     33 O                    -0.234434      -0.001010
     34 O                    -0.088747       0.000458
     35 C                    -0.163528       0.001107
     36 H                     0.182077       0.000009
     37 H                     0.181537       0.000000
     38 H                     0.199961       0.000283
  --------------------------------------------------------
  Sum of atomic charges =    -1.000038

                    Cartesian Multipole Moments
 -----------------------------------------------------------------
    Charge (ESU x 10^10)
                -4.8034
    Dipole Moment (Debye)
         X       0.0130      Y      -1.6254      Z      -6.5370
       Tot       6.7360
    Quadrupole Moments (Debye-Ang)
        XX    -216.1916     XY       0.1644     YY    -196.9469
        XZ      -0.0594     YZ      16.6097     ZZ    -171.5094

 Total job time:  200.54s(wall), 1353.67s(cpu)
        *  Thank you very much for using Q-Chem.  Have a nice day.  *
