 Gaussian 16, Revision A.03,
 Gaussian 16:  ES64L-G16RevA.03 25-Dec-2016

 ----------------------------------------------------------------
 #P UB3LYP/6-311++G(d,p) SCRF=(PCM,Solvent=n,n-DiMethylFormamide)
 ----------------------------------------------------------------

 -------
 Reduced
 -------
 Symbolic Z-matrix:
 Charge = -2 Multiplicity = 1

                         Standard orientation:
 ---------------------------------------------------------------------
 Center     Atomic      Atomic             Coordinates (Angstroms)
 Number     Number       Type             X           Y           Z
 ---------------------------------------------------------------------
      1          6           0       -0.605427   -1.768362   -0.015041
      2          6           0       -1.950857   -1.449944   -0.006973
      3          6           0       -2.370955   -0.091447    0.004351
      4          6           0        0.403334   -0.779281   -0.001455
      5          6           0       -0.008489    0.602549   -0.008020
      6          6           0       -1.395287    0.890904   -0.007676
      7          6           0        1.812582   -1.176965    0.006364
      8          6           0        2.716443   -0.077302    0.006235
      9          6           0        2.316980    1.266421    0.000500
     10          6           0        0.960226    1.700064   -0.003800
     11          8           0        2.184881   -2.410531    0.006468
     12          8           0        0.606801    2.938759   -0.001457
     13          1           0       -0.271820   -2.802048   -0.020918
     14          1           0       -2.700106   -2.241152   -0.004035
     15          1           0        3.778871   -0.322680    0.012263
     16          1           0        3.073871    2.051365    0.008754
     17          6           0       -3.845532    0.242950    0.014408
     18          1           0       -1.667280    1.942898   -0.016135
     19          1           0       -4.382012   -0.198740   -0.843899
     20          1           0       -4.014200    1.323975   -0.020480
     21          1           0       -4.348886   -0.136969    0.911006
 ---------------------------------------------------------------------

 SCF Done:  E(UB3LYP) =  -574.836787180     A.U. after   17 cycles

 The electronic state is 1-A.
 Alpha  occ. eigenvalues --  -19.01245 -19.01144 -10.16557 -10.16462 -10.15565
 Alpha  occ. eigenvalues --  -10.15393 -10.14499 -10.14363 -10.13940 -10.13348
 Alpha  occ. eigenvalues --  -10.13254 -10.11532 -10.11450  -0.92928  -0.92603
 Alpha  occ. eigenvalues --   -0.82607  -0.76505  -0.73201  -0.70954  -0.66515
 Alpha  occ. eigenvalues --   -0.62800  -0.58132  -0.56103  -0.52107  -0.46815
 Alpha  occ. eigenvalues --   -0.45404  -0.43385  -0.40677  -0.40396  -0.39849
 Alpha  occ. eigenvalues --   -0.38559  -0.36888  -0.36294  -0.35712  -0.34987
 Alpha  occ. eigenvalues --   -0.33915  -0.31358  -0.30853  -0.30531  -0.29954
 Alpha  occ. eigenvalues --   -0.22501  -0.21922  -0.20844  -0.19354  -0.18953
 Alpha  occ. eigenvalues --   -0.10641
 Alpha virt. eigenvalues --   -0.00241   0.00083   0.01041   0.01134   0.01668
 Alpha virt. eigenvalues --    0.02891   0.03304   0.04165   0.05068   0.05330
 Alpha virt. eigenvalues --    0.06393   0.06455   0.07424   0.07730   0.08048

  Beta  occ. eigenvalues --  -19.01245 -19.01144 -10.16557 -10.16462 -10.15565
  Beta  occ. eigenvalues --  -10.15393 -10.14499 -10.14363 -10.13940 -10.13348
  Beta  occ. eigenvalues --  -10.13254 -10.11532 -10.11450  -0.92928  -0.92603
  Beta  occ. eigenvalues --   -0.82607  -0.76505  -0.73201  -0.70954  -0.66515
  Beta  occ. eigenvalues --   -0.62800  -0.58132  -0.56103  -0.52107  -0.46815
  Beta  occ. eigenvalues --   -0.45404  -0.43385  -0.40677  -0.40396  -0.39849
  Beta  occ. eigenvalues --   -0.38559  -0.36888  -0.36294  -0.35712  -0.34987
  Beta  occ. eigenvalues --   -0.33915  -0.31358  -0.30853  -0.30531  -0.29954
  Beta  occ. eigenvalues --   -0.22501  -0.21922  -0.20844  -0.19354  -0.18953
  Beta  occ. eigenvalues --   -0.10641
  Beta virt. eigenvalues --   -0.00241   0.00083   0.01041   0.01134   0.01668
  Beta virt. eigenvalues --    0.02891   0.03304   0.04165   0.05068   0.05330
  Beta virt. eigenvalues --    0.06393   0.06455   0.07424   0.07730   0.08048

 Mulliken charges and spin densities:
               1          2
     1  C    0.030610  -0.000000
     2  C   -0.477018  -0.000000
     3  C    0.475233   0.000000
     4  C    0.170604   0.000000
     5  C   -0.004210  -0.000000
     6  C   -0.335636  -0.000000
     7  C   -0.658194   0.000000
     8  C    0.062821  -0.000000
     9  C   -0.051720   0.000000
    10  C   -0.444838  -0.000000
    11  O   -0.715537  -0.000000
    12  O   -0.713845  -0.000000
    13  H    0.140028   0.000000
    14  H    0.155577  -0.000000
    15  H    0.119665   0.000000
    16  H    0.123129   0.000000
    17  C   -0.443348   0.000000
    18  H    0.112809   0.000000
    19  H    0.147440   0.000000
    20  H    0.154283   0.000000
    21  H    0.152148   0.000000
 Sum of Mulliken charges =  -2.00000  -0.00000

 Dipole moment (field-independent basis, Debye):
    X=            -11.8446    Y=             -2.0152    Z=              0.0054  Tot=             12.0148
 Quadrupole moment (field-independent basis, Debye-Ang):
   XX=           -110.0455   YY=           -141.0025   ZZ=            -87.5430
   XY=             11.7542   XZ=             -0.0850   YZ=              0.0782

 Normal termination of Gaussian 16 at Sun Jan 21 08:47:37 2024.
