 Q-Chem 5.4, Q-Chem, Inc., Pleasanton, CA (2021)
 Q-Chem 5.4.0 for Intel X86 EM64T Linux

User input:
--------------------------------------------------------------
$molecule
-2 1
C                 -1.3210290000      2.0247720000      0.5397610000
C                 -2.5856910000      1.3693250000      0.2461820000
C                 -2.6635770000      0.0782690000     -0.2790520000
C                 -1.5307660000     -0.7449480000     -0.5899140000
C                 -0.2745070000     -0.1146530000     -0.2952390000
C                 -0.2205210000      1.1705540000      0.2345670000
O                 -1.2427290000      3.2175770000      1.0193030000
O                 -1.6228730000     -1.9390740000     -1.0803220000
H                  0.6318340000     -0.6758080000     -0.4947340000
I                  1.7451920000      2.0215470000      0.6397630000
C                 -3.8240450000      2.2011770000      0.5515590000
C                 -4.0411270000      3.2814000000     -0.5301110000
C                 -5.1126310000      1.3932530000      0.7619260000
H                 -3.6348410000     -0.3681250000     -0.4823310000
H                 -3.6008760000      2.7451550000      1.4794810000
H                 -4.2592300000      2.8142280000     -1.4986930000
H                 -3.1347570000      3.8827810000     -0.6221950000
H                 -4.8828720000      3.9454880000     -0.2725790000
H                 -5.4276030000      0.8848990000     -0.1567970000
H                 -5.9349050000      2.0523710000      1.0716530000
H                 -4.9793260000      0.6250110000      1.5303340000
$end
$rem
MAX_SCF_CYCLES=200
BASIS  =  6-311++G(d,p)
GUI  =  2
JOB_TYPE  =  SP
METHOD  =  B3LYP
SOLVENT_METHOD = PCM
$end
$pcm
theory = CPCM
$end
$solvent
dielectric 37.219
opticaldielectric 1.43
$end

--------------------------------------------------------------

             Standard Nuclear Orientation (Angstroms)
    I     Atom           X                Y                Z
 ----------------------------------------------------------------
    1      C      -1.3210290000     2.0247720000     0.5397610000
    2      C      -2.5856910000     1.3693250000     0.2461820000
    3      C      -2.6635770000     0.0782690000    -0.2790520000
    4      C      -1.5307660000    -0.7449480000    -0.5899140000
    5      C      -0.2745070000    -0.1146530000    -0.2952390000
    6      C      -0.2205210000     1.1705540000     0.2345670000
    7      O      -1.2427290000     3.2175770000     1.0193030000
    8      O      -1.6228730000    -1.9390740000    -1.0803220000
    9      H       0.6318340000    -0.6758080000    -0.4947340000
   10      I       1.7451920000     2.0215470000     0.6397630000
   11      C      -3.8240450000     2.2011770000     0.5515590000
   12      C      -4.0411270000     3.2814000000    -0.5301110000
   13      C      -5.1126310000     1.3932530000     0.7619260000
   14      H      -3.6348410000    -0.3681250000    -0.4823310000
   15      H      -3.6008760000     2.7451550000     1.4794810000
   16      H      -4.2592300000     2.8142280000    -1.4986930000
   17      H      -3.1347570000     3.8827810000    -0.6221950000
   18      H      -4.8828720000     3.9454880000    -0.2725790000
   19      H      -5.4276030000     0.8848990000    -0.1567970000
   20      H      -5.9349050000     2.0523710000     1.0716530000
   21      H      -4.9793260000     0.6250110000     1.5303340000
 ----------------------------------------------------------------

   10   -7418.7324699639      3.07e-06  Convergence criterion met
 Total energy in the final basis set =    -7418.7324699639

                    Orbital Energies (a.u.)
 --------------------------------------------------------------

 Alpha MOs
 -- Occupied --
********-176.2685-165.6719-165.6703-165.6703 -35.7650 -31.2571 -31.2528
-31.2526 -22.9079 -22.9069 -22.9068 -22.9037 -22.9037 -19.0220 -19.0201
-10.1788 -10.1751 -10.1722 -10.1531 -10.1416 -10.1393 -10.1374 -10.1289
-10.1231  -6.3143  -4.7242  -4.7135  -4.7130  -1.9902  -1.9871  -1.9866
 -1.9773  -1.9772  -0.9400  -0.9325  -0.7986  -0.7683  -0.7010  -0.6670
 -0.6557  -0.6158  -0.5872  -0.5201  -0.5153  -0.4494  -0.4357  -0.4250
 -0.4147  -0.3887  -0.3737  -0.3698  -0.3582  -0.3559  -0.3471  -0.3315
 -0.3218  -0.3163  -0.3062  -0.2971  -0.2648  -0.2458  -0.2277  -0.2083
 -0.2023  -0.1986  -0.1237

          Ground-State Mulliken Net Atomic Charges

     Atom                 Charge (a.u.)
  ----------------------------------------
      1 C                    -1.937783
      2 C                     1.293609
      3 C                    -0.517834
      4 C                    -0.409195
      5 C                    -0.206271
      6 C                     1.144390
      7 O                    -0.632883
      8 O                    -0.744851
      9 H                     0.131154
     10 I                    -0.190544
     11 C                     0.196571
     12 C                    -0.722114
     13 C                    -0.573312
     14 H                     0.137433
     15 H                     0.162312
     16 H                     0.137143
     17 H                     0.168896
     18 H                     0.127303
     19 H                     0.140367
     20 H                     0.161381
     21 H                     0.134225
  ----------------------------------------
  Sum of atomic charges =    -2.000000

                    Cartesian Multipole Moments
 -----------------------------------------------------------------
    Charge (ESU x 10^10)
                -9.6064
    Dipole Moment (Debye)
         X       9.6137      Y      -6.9318      Z      -0.0603
       Tot      11.8523
    Quadrupole Moments (Debye-Ang)
        XX    -126.5215     XY      -2.0073     YY    -163.1210
        XZ      -4.5051     YZ     -21.0917     ZZ    -113.9370

 Total job time:  34.03s(wall), 201.15s(cpu)
        *  Thank you very much for using Q-Chem.  Have a nice day.  *
