 Q-Chem 5.4, Q-Chem, Inc., Pleasanton, CA (2021)
 Q-Chem 5.4.0 for Intel X86 EM64T Linux

User input:
--------------------------------------------------------------
$molecule
0 1
C                 -2.8436300000      4.1245430000      4.5575640000
C                 -3.1577750000      3.1881460000      5.5366820000
C                 -2.3520890000      2.0601520000      5.7066830000
C                 -1.7194960000      3.9301060000      3.7499880000
C                 -0.9074280000      2.7973420000      3.9178070000
C                 -1.2331680000      1.8632120000      4.8999040000
C                 -1.3685140000      4.9095730000      2.7109320000
C                 -0.1449070000      4.6602020000      1.8902850000
C                  0.6732000000      3.5883040000      2.0483160000
C                  0.3012660000      2.5633630000      3.0498600000
O                 -2.0074210000      5.9301420000      2.4791370000
O                  0.9441710000      1.5342840000      3.1812450000
O                  0.0840160000      5.6160070000      0.9745360000
H                 -3.4532060000      5.0067580000      4.4049140000
H                 -4.0274730000      3.3343240000      6.1666620000
H                 -2.5982070000      1.3315500000      6.4708290000
H                 -0.5999910000      0.9926140000      5.0169790000
H                 -0.6309440000      6.2725330000      1.0866150000
C                  3.1762940000      3.0356520000      1.9014840000
C                  3.4717900000      3.6332200000      3.1316230000
C                  4.1142800000      2.1681890000      1.3401650000
C                  5.3076300000      1.8847640000      2.0043070000
C                  5.5877200000      2.4742310000      3.2344580000
C                  4.6642670000      3.3562910000      3.7943130000
H                  2.7648810000      4.3244080000      3.5801090000
H                  3.9089350000      1.7281470000      0.3729580000
H                  6.0214680000      1.2030330000      1.5544190000
H                  4.8726570000      3.8300090000      4.7475040000
H                  6.5157790000      2.2536950000      3.7499710000
C                  1.9031600000      3.4269320000      1.1469390000
H                  2.0984960000      4.4294530000      0.7566760000
N                  1.6637660000      2.6165840000     -0.0552870000
C                  1.0654910000      1.2844290000      0.0768040000
C                  1.0780260000      0.5608380000     -1.2704670000
C                  0.4471510000     -0.8345410000     -1.2068890000
C                  0.4557780000     -1.5697090000     -2.5519130000
C                 -0.1736290000     -2.9661420000     -2.4917750000
C                 -0.1691200000     -3.7010630000     -3.8369310000
H                  1.1395420000      3.1679300000     -0.7251880000
H                  0.0307490000      1.3189450000      0.4552070000
H                  1.6416680000      0.7208800000      0.8131630000
H                  2.1123900000      0.4888090000     -1.6245550000
H                  0.5412000000      1.1673960000     -2.0128460000
H                 -0.5867310000     -0.7519430000     -0.8477270000
H                  0.9797180000     -1.4382190000     -0.4611060000
H                  1.4894450000     -1.6538510000     -2.9113280000
H                 -0.0761990000     -0.9651480000     -3.2980890000
H                 -1.2065540000     -2.8818610000     -2.1295550000
H                  0.3598800000     -3.5711030000     -1.7472090000
H                  0.8635970000     -3.7848710000     -4.1996400000
H                 -0.7032170000     -3.0960090000     -4.5811670000
C                 -0.7980320000     -5.0978050000     -3.7768460000
C                 -0.7978740000     -5.8309890000     -5.1229840000
C                 -1.4269000000     -7.2276970000     -5.0631630000
C                 -1.4302990000     -7.9590550000     -6.4103010000
C                 -2.0592020000     -9.3558300000     -6.3508320000
C                 -2.0650660000    -10.0857230000     -7.6987630000
C                 -2.6938990000    -11.4825660000     -7.6396280000
C                 -2.7015090000    -12.2116290000     -8.9877740000
C                 -3.3301870000    -13.6086060000     -8.9298790000
C                 -3.3335380000    -14.3285320000    -10.2816110000
H                 -1.8297930000     -5.0141670000     -3.4111900000
H                 -0.2621030000     -5.7038770000     -3.0348400000
H                  0.2337090000     -5.9144830000     -5.4890440000
H                 -1.3341060000     -5.2247120000     -5.8646690000
H                 -2.4576900000     -7.1443720000     -4.6947260000
H                 -0.8891720000     -7.8349310000     -4.3233840000
H                 -0.3996550000     -8.0420990000     -6.7791210000
H                 -1.9683760000     -7.3517210000     -7.1497710000
H                 -3.0892880000     -9.2729510000     -5.9803490000
H                 -1.5200540000     -9.9638840000     -5.6127540000
H                 -1.0350930000    -10.1684370000     -8.0695060000
H                 -2.6044440000     -9.4776160000     -8.4366280000
H                 -3.7235490000    -11.3999750000     -7.2678220000
H                 -2.1538030000    -12.0911980000     -6.9026880000
H                 -1.6721160000    -12.2950650000     -9.3604620000
H                 -3.2418920000    -11.6037960000     -9.7253790000
H                 -4.3588230000    -13.5257600000     -8.5580400000
H                 -2.7899500000    -14.2166660000     -8.1939430000
H                 -3.8965880000    -13.7619450000    -11.0301560000
H                 -3.7878040000    -15.3204900000    -10.2058750000
H                 -2.3157620000    -14.4578870000    -10.6633740000
$end
$rem
MAX_SCF_CYCLES=200
BASIS  =  6-311++G(d,p)
GUI  =  2
JOB_TYPE  =  SP
METHOD  =  B3LYP
SCF_ALGORITHM = RCA_DIIS
THRESH = 14
SOLVENT_METHOD = PCM
$end
$pcm
theory = CPCM
$end
$solvent
dielectric 37.219
opticaldielectric 1.43
$end

--------------------------------------------------------------

             Standard Nuclear Orientation (Angstroms)
    I     Atom           X                Y                Z
 ----------------------------------------------------------------
    1      C      -2.8436300000     4.1245430000     4.5575640000
    2      C      -3.1577750000     3.1881460000     5.5366820000
    3      C      -2.3520890000     2.0601520000     5.7066830000
    4      C      -1.7194960000     3.9301060000     3.7499880000
    5      C      -0.9074280000     2.7973420000     3.9178070000
    6      C      -1.2331680000     1.8632120000     4.8999040000
    7      C      -1.3685140000     4.9095730000     2.7109320000
    8      C      -0.1449070000     4.6602020000     1.8902850000
    9      C       0.6732000000     3.5883040000     2.0483160000
   10      C       0.3012660000     2.5633630000     3.0498600000
   11      O      -2.0074210000     5.9301420000     2.4791370000
   12      O       0.9441710000     1.5342840000     3.1812450000
   13      O       0.0840160000     5.6160070000     0.9745360000
   14      H      -3.4532060000     5.0067580000     4.4049140000
   15      H      -4.0274730000     3.3343240000     6.1666620000
   16      H      -2.5982070000     1.3315500000     6.4708290000
   17      H      -0.5999910000     0.9926140000     5.0169790000
   18      H      -0.6309440000     6.2725330000     1.0866150000
   19      C       3.1762940000     3.0356520000     1.9014840000
   20      C       3.4717900000     3.6332200000     3.1316230000
   21      C       4.1142800000     2.1681890000     1.3401650000
   22      C       5.3076300000     1.8847640000     2.0043070000
   23      C       5.5877200000     2.4742310000     3.2344580000
   24      C       4.6642670000     3.3562910000     3.7943130000
   25      H       2.7648810000     4.3244080000     3.5801090000
   26      H       3.9089350000     1.7281470000     0.3729580000
   27      H       6.0214680000     1.2030330000     1.5544190000
   28      H       4.8726570000     3.8300090000     4.7475040000
   29      H       6.5157790000     2.2536950000     3.7499710000
   30      C       1.9031600000     3.4269320000     1.1469390000
   31      H       2.0984960000     4.4294530000     0.7566760000
   32      N       1.6637660000     2.6165840000    -0.0552870000
   33      C       1.0654910000     1.2844290000     0.0768040000
   34      C       1.0780260000     0.5608380000    -1.2704670000
   35      C       0.4471510000    -0.8345410000    -1.2068890000
   36      C       0.4557780000    -1.5697090000    -2.5519130000
   37      C      -0.1736290000    -2.9661420000    -2.4917750000
   38      C      -0.1691200000    -3.7010630000    -3.8369310000
   39      H       1.1395420000     3.1679300000    -0.7251880000
   40      H       0.0307490000     1.3189450000     0.4552070000
   41      H       1.6416680000     0.7208800000     0.8131630000
   42      H       2.1123900000     0.4888090000    -1.6245550000
   43      H       0.5412000000     1.1673960000    -2.0128460000
   44      H      -0.5867310000    -0.7519430000    -0.8477270000
   45      H       0.9797180000    -1.4382190000    -0.4611060000
   46      H       1.4894450000    -1.6538510000    -2.9113280000
   47      H      -0.0761990000    -0.9651480000    -3.2980890000
   48      H      -1.2065540000    -2.8818610000    -2.1295550000
   49      H       0.3598800000    -3.5711030000    -1.7472090000
   50      H       0.8635970000    -3.7848710000    -4.1996400000
   51      H      -0.7032170000    -3.0960090000    -4.5811670000
   52      C      -0.7980320000    -5.0978050000    -3.7768460000
   53      C      -0.7978740000    -5.8309890000    -5.1229840000
   54      C      -1.4269000000    -7.2276970000    -5.0631630000
   55      C      -1.4302990000    -7.9590550000    -6.4103010000
   56      C      -2.0592020000    -9.3558300000    -6.3508320000
   57      C      -2.0650660000   -10.0857230000    -7.6987630000
   58      C      -2.6938990000   -11.4825660000    -7.6396280000
   59      C      -2.7015090000   -12.2116290000    -8.9877740000
   60      C      -3.3301870000   -13.6086060000    -8.9298790000
   61      C      -3.3335380000   -14.3285320000   -10.2816110000
   62      H      -1.8297930000    -5.0141670000    -3.4111900000
   63      H      -0.2621030000    -5.7038770000    -3.0348400000
   64      H       0.2337090000    -5.9144830000    -5.4890440000
   65      H      -1.3341060000    -5.2247120000    -5.8646690000
   66      H      -2.4576900000    -7.1443720000    -4.6947260000
   67      H      -0.8891720000    -7.8349310000    -4.3233840000
   68      H      -0.3996550000    -8.0420990000    -6.7791210000
   69      H      -1.9683760000    -7.3517210000    -7.1497710000
   70      H      -3.0892880000    -9.2729510000    -5.9803490000
   71      H      -1.5200540000    -9.9638840000    -5.6127540000
   72      H      -1.0350930000   -10.1684370000    -8.0695060000
   73      H      -2.6044440000    -9.4776160000    -8.4366280000
   74      H      -3.7235490000   -11.3999750000    -7.2678220000
   75      H      -2.1538030000   -12.0911980000    -6.9026880000
   76      H      -1.6721160000   -12.2950650000    -9.3604620000
   77      H      -3.2418920000   -11.6037960000    -9.7253790000
   78      H      -4.3588230000   -13.5257600000    -8.5580400000
   79      H      -2.7899500000   -14.2166660000    -8.1939430000
   80      H      -3.8965880000   -13.7619450000   -11.0301560000
   81      H      -3.7878040000   -15.3204900000   -10.2058750000
   82      H      -2.3157620000   -14.4578870000   -10.6633740000
 ----------------------------------------------------------------

   23   -1565.5113442815      7.65E-06 Convergence criterion met
 Total energy in the final basis set = -1565.51134428

                    Orbital Energies (a.u.)
 --------------------------------------------------------------

 Alpha MOs
 -- Occupied --
-19.1806 -19.1516 -19.1285 -14.3034 -10.2951 -10.2823 -10.2714 -10.2212
-10.2108 -10.2101 -10.2057 -10.2010 -10.1990 -10.1970 -10.1969 -10.1863
-10.1850 -10.1745 -10.1744 -10.1729 -10.1723 -10.1703 -10.1587 -10.1585
-10.1580 -10.1565 -10.1560 -10.1559 -10.1559 -10.1558 -10.1558 -10.1557
-10.1557 -10.1556 -10.1555 -10.1555 -10.1523  -1.1110  -1.0688  -1.0646
 -0.9159  -0.8926  -0.8586  -0.8371  -0.8116  -0.8053  -0.7956  -0.7871
 -0.7801  -0.7756  -0.7629  -0.7546  -0.7476  -0.7337  -0.7125  -0.7021
 -0.6846  -0.6686  -0.6539  -0.6448  -0.6292  -0.6150  -0.6078  -0.6061
 -0.5931  -0.5803  -0.5770  -0.5747  -0.5734  -0.5715  -0.5668  -0.5661
 -0.5442  -0.5223  -0.5149  -0.4993  -0.4917  -0.4839  -0.4829  -0.4784
 -0.4743  -0.4691  -0.4672  -0.4600  -0.4568  -0.4529  -0.4519  -0.4462
 -0.4423  -0.4365  -0.4309  -0.4304  -0.4255  -0.4244  -0.4199  -0.4180
 -0.4151  -0.4087  -0.4076  -0.4050  -0.4001  -0.3973  -0.3900  -0.3820
 -0.3801  -0.3793  -0.3764  -0.3712  -0.3705  -0.3642  -0.3595  -0.3569
 -0.3453  -0.3445  -0.3436  -0.3407  -0.3393  -0.3316  -0.3308  -0.3245
 -0.3228  -0.3204  -0.3185  -0.3181  -0.3166  -0.3156  -0.3154  -0.3109
 -0.3059  -0.2915  -0.2880  -0.2842  -0.2802  -0.2685  -0.2584  -0.2460
 -0.2312

          Ground-State Mulliken Net Atomic Charges

     Atom                 Charge (a.u.)
  ----------------------------------------
      1 C                     0.140864
      2 C                    -0.507684
      3 C                    -0.458223
      4 C                     0.451005
      5 C                     0.340101
      6 C                    -0.067376
      7 C                    -0.278901
      8 C                    -0.323112
      9 C                     0.429410
     10 C                    -0.062779
     11 O                    -0.316147
     12 O                    -0.236930
     13 O                    -0.225120
     14 H                     0.224693
     15 H                     0.218162
     16 H                     0.231441
     17 H                     0.210035
     18 H                     0.328993
     19 C                     0.412758
     20 C                    -0.375858
     21 C                    -0.181035
     22 C                    -0.326092
     23 C                    -0.409656
     24 C                    -0.379726
     25 H                     0.201680
     26 H                     0.195995
     27 H                     0.219385
     28 H                     0.211790
     29 H                     0.188074
     30 C                    -0.080771
     31 H                     0.272792
     32 N                    -0.035242
     33 C                    -0.797608
     34 C                    -0.756253
     35 C                     0.147410
     36 C                    -0.084268
     37 C                    -0.143027
     38 C                    -0.260042
     39 H                     0.322626
     40 H                     0.194197
     41 H                     0.224148
     42 H                     0.149707
     43 H                     0.136556
     44 H                     0.115501
     45 H                     0.120326
     46 H                     0.131027
     47 H                     0.132976
     48 H                     0.136795
     49 H                     0.136606
     50 H                     0.137224
     51 H                     0.135660
     52 C                    -0.407683
     53 C                    -0.417110
     54 C                    -0.351604
     55 C                    -0.200074
     56 C                    -0.047301
     57 C                    -0.028347
     58 C                    -0.193854
     59 C                    -0.400813
     60 C                    -0.274682
     61 C                    -0.709452
     62 H                     0.134591
     63 H                     0.134963
     64 H                     0.133855
     65 H                     0.133522
     66 H                     0.134524
     67 H                     0.134437
     68 H                     0.135085
     69 H                     0.134339
     70 H                     0.133293
     71 H                     0.132982
     72 H                     0.133646
     73 H                     0.133171
     74 H                     0.131355
     75 H                     0.131148
     76 H                     0.128430
     77 H                     0.128004
     78 H                     0.135464
     79 H                     0.135369
     80 H                     0.144785
     81 H                     0.150994
     82 H                     0.144875
  ----------------------------------------
  Sum of atomic charges =     0.000000

                    Cartesian Multipole Moments
 -----------------------------------------------------------------
    Charge (ESU x 10^10)
                -0.0000
    Dipole Moment (Debye)
         X      -4.4597      Y       0.6157      Z       2.0793
       Tot       4.9590
    Quadrupole Moments (Debye-Ang)
        XX    -227.2336     XY     -11.0930     YY    -231.1671
        XZ     -15.5658     YZ       6.7776     ZZ    -209.0299

 Total job time:  1909.03s(wall), 10737.48s(cpu)
        *  Thank you very much for using Q-Chem.  Have a nice day.  *
