 Q-Chem 5.4, Q-Chem, Inc., Pleasanton, CA (2021)
 Q-Chem 5.4.0 for Intel X86 EM64T Linux

User input:
--------------------------------------------------------------
$molecule
-2 1
C                  3.3069160000     -1.9484020000      0.3656000000
C                  2.0029770000     -1.7445610000     -0.3758880000
O                  1.9114400000     -1.6942570000     -1.5827070000
O                  2.0307350000      0.7857280000      0.4388250000
C                  0.8410730000      1.2373370000      0.2622500000
C                  0.5695460000      2.6320190000      0.2176560000
C                 -0.7170560000      3.1497050000      0.0032810000
C                 -1.8071020000      2.3161720000     -0.1752020000
C                 -1.6379510000      0.9095140000     -0.1344710000
C                 -2.8447040000      0.0640440000     -0.3102200000
O                 -3.9990740000      0.5791800000     -0.5068430000
C                 -2.6211140000     -1.3360200000     -0.2362270000
C                 -1.3432560000     -1.8765120000     -0.0116160000
C                 -0.2399000000     -1.0694240000      0.1391980000
O                  0.9833340000     -1.7113630000      0.4979860000
C                 -0.3320080000      0.3510340000      0.0884840000
H                  3.5509090000     -0.9738930000      0.7960890000
H                  4.0868720000     -2.2726600000     -0.3260190000
H                  3.1847030000     -2.6722390000      1.1767450000
H                  1.4236630000      3.2946900000      0.3457770000
H                 -0.8549240000      4.2327600000     -0.0263400000
H                 -2.8090630000      2.6927770000     -0.3434310000
H                 -3.4813300000     -1.9912610000     -0.3572930000
H                 -1.2046840000     -2.9543680000      0.0543620000
$end

$rem
BASIS  =  6-311++G(d,p)
GUI  =  2
JOB_TYPE  =  SP
METHOD  =  B3LYP
SCF_CONVERGENCE  = 8
SOLVENT_METHOD = sm12
$end

$smx
solvent dimethylformamide
charges CM5
$end

--------------------------------------------------------------

             Standard Nuclear Orientation (Angstroms)
    I     Atom           X                Y                Z
 ----------------------------------------------------------------
    1      C       3.3069160000    -1.9484020000     0.3656000000
    2      C       2.0029770000    -1.7445610000    -0.3758880000
    3      O       1.9114400000    -1.6942570000    -1.5827070000
    4      O       2.0307350000     0.7857280000     0.4388250000
    5      C       0.8410730000     1.2373370000     0.2622500000
    6      C       0.5695460000     2.6320190000     0.2176560000
    7      C      -0.7170560000     3.1497050000     0.0032810000
    8      C      -1.8071020000     2.3161720000    -0.1752020000
    9      C      -1.6379510000     0.9095140000    -0.1344710000
   10      C      -2.8447040000     0.0640440000    -0.3102200000
   11      O      -3.9990740000     0.5791800000    -0.5068430000
   12      C      -2.6211140000    -1.3360200000    -0.2362270000
   13      C      -1.3432560000    -1.8765120000    -0.0116160000
   14      C      -0.2399000000    -1.0694240000     0.1391980000
   15      O       0.9833340000    -1.7113630000     0.4979860000
   16      C      -0.3320080000     0.3510340000     0.0884840000
   17      H       3.5509090000    -0.9738930000     0.7960890000
   18      H       4.0868720000    -2.2726600000    -0.3260190000
   19      H       3.1847030000    -2.6722390000     1.1767450000
   20      H       1.4236630000     3.2946900000     0.3457770000
   21      H      -0.8549240000     4.2327600000    -0.0263400000
   22      H      -2.8090630000     2.6927770000    -0.3434310000
   23      H      -3.4813300000    -1.9912610000    -0.3572930000
   24      H      -1.2046840000    -2.9543680000     0.0543620000
 ----------------------------------------------------------------

   18    -763.1989266265      2.22e-09  Convergence criterion met
 Total energy in the final basis set =     -763.4815372966

                    Orbital Energies (a.u.)
 --------------------------------------------------------------

 Alpha MOs
 -- Occupied --
-19.1578 -19.1028 -19.0413 -19.0393 -10.2976 -10.2103 -10.2081 -10.2035
-10.1702 -10.1690 -10.1680 -10.1666 -10.1621 -10.1482 -10.1464 -10.1463
 -1.0972  -1.0148  -0.9594  -0.9567  -0.8363  -0.8022  -0.7501  -0.7275
 -0.7112  -0.6826  -0.6089  -0.6067  -0.5867  -0.5218  -0.4998  -0.4864
 -0.4854  -0.4746  -0.4621  -0.4404  -0.4354  -0.4117  -0.4068  -0.3991
 -0.3903  -0.3895  -0.3756  -0.3688  -0.3660  -0.3497  -0.3399  -0.3357
 -0.3122  -0.2958  -0.2890  -0.2721  -0.2418  -0.2200  -0.2052  -0.1929
 -0.1519

          Ground-State Mulliken Net Atomic Charges

     Atom                 Charge (a.u.)
  ----------------------------------------
      1 C                     0.381683
      2 C                    -0.110848
      3 O                    -0.265882
      4 O                    -0.257691
      5 C                    -0.912951
      6 C                     0.133635
      7 C                     0.621942
      8 C                    -0.560982
      9 C                    -1.369776
     10 C                    -1.418324
     11 O                    -0.364379
     12 C                     0.238595
     13 C                     1.819579
     14 C                    -0.138326
     15 O                     0.088034
     16 C                    -1.600155
     17 H                     0.185082
     18 H                     0.246920
     19 H                     0.227960
     20 H                     0.172581
     21 H                     0.341769
     22 H                     0.067345
     23 H                     0.166727
     24 H                     0.307463
  ----------------------------------------
  Sum of atomic charges =    -2.000000

                    Cartesian Multipole Moments
 -----------------------------------------------------------------
    Charge (ESU x 10^10)
                -9.6064
    Dipole Moment (Debye)
         X       8.9596      Y      -4.9279      Z       2.7309
       Tot      10.5838
    Quadrupole Moments (Debye-Ang)
        XX    -170.4352     XY       5.1087     YY    -123.7957
        XZ      -3.4652     YZ      -4.7399     ZZ    -112.6485

 Total job time:  569.97s(wall), 3794.74s(cpu)
        *  Thank you very much for using Q-Chem.  Have a nice day.  *
