 Gaussian 16, Revision A.03,
 Gaussian 16:  ES64L-G16RevA.03 25-Dec-2016

 --------------------------------------
 #P UB3LYP/6-311++G(d,p) nosym opt freq
 --------------------------------------

 --------
 Oxidized
 --------
 Symbolic Z-matrix:
 Charge =  0 Multiplicity = 1

 SCF Done:  E(UB3LYP) =  -843.755208758     A.U. after   15 cycles
 SCF Done:  E(UB3LYP) =  -843.775382798     A.U. after   14 cycles
 SCF Done:  E(UB3LYP) =  -843.776046037     A.U. after   14 cycles
 SCF Done:  E(UB3LYP) =  -843.777451794     A.U. after   13 cycles
 SCF Done:  E(UB3LYP) =  -843.777736313     A.U. after   12 cycles
 SCF Done:  E(UB3LYP) =  -843.777746629     A.U. after   10 cycles
 SCF Done:  E(UB3LYP) =  -843.777746731     A.U. after   10 cycles
 SCF Done:  E(UB3LYP) =  -843.777749508     A.U. after   10 cycles
 SCF Done:  E(UB3LYP) =  -843.777748082     A.U. after   10 cycles
 SCF Done:  E(UB3LYP) =  -843.774786914     A.U. after   15 cycles
 SCF Done:  E(UB3LYP) =  -843.783990206     A.U. after   16 cycles
 SCF Done:  E(UB3LYP) =  -843.784949354     A.U. after   17 cycles
 SCF Done:  E(UB3LYP) =  -843.785155923     A.U. after   14 cycles
 SCF Done:  E(UB3LYP) =  -843.785205788     A.U. after   13 cycles
 SCF Done:  E(UB3LYP) =  -843.785226160     A.U. after   12 cycles
 SCF Done:  E(UB3LYP) =  -843.785231636     A.U. after   12 cycles
 SCF Done:  E(UB3LYP) =  -843.785232628     A.U. after   12 cycles
 SCF Done:  E(UB3LYP) =  -843.785232970     A.U. after   12 cycles
 SCF Done:  E(UB3LYP) =  -843.785233008     A.U. after   10 cycles
 Optimization completed.
    -- Stationary point found.
 Normal termination of Gaussian 16 at Wed Dec 20 04:48:53 2023.

 ----------------------------------------------------------------------
 #P Geom=AllCheck Guess=TCheck SCRF=Check GenChk UB3LYP/6-311++G(d,p) F
 req
 ----------------------------------------------------------------------

 Structure from the checkpoint file:  "064.chk"
 --------
 Oxidized
 --------
 Charge =  0 Multiplicity = 1

                          Input orientation:
 ---------------------------------------------------------------------
 Center     Atomic      Atomic             Coordinates (Angstroms)
 Number     Number       Type             X           Y           Z
 ---------------------------------------------------------------------
      1          8           0        1.422328    2.244674   -0.022002
      2          6           0        0.790910    1.202217   -0.097772
      3          6           0       -0.682880    1.238294   -0.161667
      4          6           0       -1.468086    0.142181   -0.221789
      5          6           0       -0.790807   -1.202208   -0.224909
      6          8           0       -1.422159   -2.244612   -0.301779
      7          6           0        0.682960   -1.238291   -0.160412
      8          6           0        1.468142   -0.142173   -0.100156
      9          6           0        2.941355   -0.231921   -0.017522
     10          6           0        3.535510   -1.229011    0.773095
     11          6           0        4.918761   -1.360228    0.834622
     12          6           0        5.734959   -0.498759    0.103017
     13          6           0        5.157572    0.497923   -0.682033
     14          6           0        3.774444    0.639350   -0.737513
     15          6           0       -2.941349    0.231926   -0.303668
     16          6           0       -3.535960    1.229453   -1.093400
     17          6           0       -4.919247    1.360661   -1.154112
     18          6           0       -5.735029    0.498754   -0.422572
     19          6           0       -5.157202   -0.498369    0.361583
     20          6           0       -3.774041   -0.639792    0.416239
     21          1           0       -1.104296    2.236773   -0.126791
     22          1           0        1.104410   -2.236768   -0.195106
     23          1           0        2.908185   -1.888133    1.362273
     24          1           0        5.358830   -2.129154    1.459375
     25          1           0        6.813385   -0.599345    0.149892
     26          1           0        5.786445    1.172261   -1.252118
     27          1           0        3.339374    1.421988   -1.342951
     28          1           0       -2.908974    1.888908   -1.682549
     29          1           0       -5.359668    2.129928   -1.778197
     30          1           0       -6.813484    0.599343   -0.468808
     31          1           0       -5.785743   -1.173073    0.931601
     32          1           0       -3.338646   -1.422796    1.020973
 ---------------------------------------------------------------------

 SCF Done:  E(UB3LYP) =  -843.785233008     A.U. after    2 cycles

 Alpha  occ. eigenvalues --  -19.13745 -19.13745 -10.28572 -10.28572 -10.22605
 Alpha  occ. eigenvalues --  -10.22604 -10.20837 -10.20836 -10.20507 -10.20506
 Alpha  occ. eigenvalues --  -10.19247 -10.19247 -10.19010 -10.19010 -10.18919
 Alpha  occ. eigenvalues --  -10.18918 -10.18889 -10.18888 -10.18724 -10.18723
 Alpha  occ. eigenvalues --   -1.06977  -1.06780  -0.88769  -0.88028  -0.85777
 Alpha  occ. eigenvalues --   -0.81974  -0.77078  -0.76365  -0.76344  -0.74839
 Alpha  occ. eigenvalues --   -0.70649  -0.66053  -0.63698  -0.62392  -0.61423
 Alpha  occ. eigenvalues --   -0.60802  -0.58408  -0.53979  -0.53290  -0.52700
 Alpha  occ. eigenvalues --   -0.49841  -0.48919  -0.47377  -0.47042  -0.46840
 Alpha  occ. eigenvalues --   -0.46389  -0.45142  -0.44609  -0.43847  -0.43818
 Alpha  occ. eigenvalues --   -0.43293  -0.42925  -0.41902  -0.40855  -0.38643
 Alpha  occ. eigenvalues --   -0.38448  -0.37094  -0.37005  -0.36269  -0.36142
 Alpha  occ. eigenvalues --   -0.31877  -0.31748  -0.28871  -0.27762  -0.26879
 Alpha  occ. eigenvalues --   -0.26870  -0.26395  -0.25478
 Alpha virt. eigenvalues --   -0.13568  -0.06284  -0.02733  -0.02663  -0.02626
 Alpha virt. eigenvalues --   -0.01346  -0.01031  -0.00732   0.00530   0.00686
 Alpha virt. eigenvalues --    0.01121   0.01389   0.02136   0.02658   0.02867

  Beta  occ. eigenvalues --  -19.13745 -19.13745 -10.28572 -10.28572 -10.22605
  Beta  occ. eigenvalues --  -10.22604 -10.20837 -10.20836 -10.20507 -10.20506
  Beta  occ. eigenvalues --  -10.19247 -10.19247 -10.19010 -10.19010 -10.18919
  Beta  occ. eigenvalues --  -10.18918 -10.18889 -10.18888 -10.18724 -10.18723
  Beta  occ. eigenvalues --   -1.06977  -1.06780  -0.88769  -0.88028  -0.85777
  Beta  occ. eigenvalues --   -0.81974  -0.77078  -0.76365  -0.76344  -0.74839
  Beta  occ. eigenvalues --   -0.70649  -0.66053  -0.63698  -0.62392  -0.61423
  Beta  occ. eigenvalues --   -0.60802  -0.58408  -0.53979  -0.53290  -0.52700
  Beta  occ. eigenvalues --   -0.49841  -0.48919  -0.47377  -0.47042  -0.46840
  Beta  occ. eigenvalues --   -0.46389  -0.45142  -0.44609  -0.43847  -0.43818
  Beta  occ. eigenvalues --   -0.43293  -0.42925  -0.41902  -0.40855  -0.38643
  Beta  occ. eigenvalues --   -0.38448  -0.37094  -0.37005  -0.36269  -0.36142
  Beta  occ. eigenvalues --   -0.31877  -0.31748  -0.28871  -0.27762  -0.26879
  Beta  occ. eigenvalues --   -0.26870  -0.26395  -0.25478
  Beta virt. eigenvalues --   -0.13568  -0.06284  -0.02733  -0.02663  -0.02626
  Beta virt. eigenvalues --   -0.01346  -0.01031  -0.00732   0.00530   0.00686
  Beta virt. eigenvalues --    0.01121   0.01389   0.02136   0.02658   0.02867

 Mulliken charges and spin densities:
               1          2
     1  O   -0.209296  -0.000000
     2  C   -0.925309  -0.000000
     3  C   -0.565412  -0.000000
     4  C    1.265822   0.000000
     5  C   -0.925599   0.000000
     6  O   -0.209312  -0.000000
     7  C   -0.564669   0.000000
     8  C    1.266685  -0.000000
     9  C    1.388304   0.000000
    10  C   -0.852095  -0.000000
    11  C   -0.131536  -0.000000
    12  C   -0.507842  -0.000000
    13  C   -0.033927   0.000000
    14  C   -0.504664  -0.000000
    15  C    1.388768  -0.000000
    16  C   -0.850863  -0.000000
    17  C   -0.132060   0.000000
    18  C   -0.507639  -0.000000
    19  C   -0.034343   0.000000
    20  C   -0.504745   0.000000
    21  H    0.211609  -0.000000
    22  H    0.211700  -0.000000
    23  H    0.164637  -0.000000
    24  H    0.177889  -0.000000
    25  H    0.161760  -0.000000
    26  H    0.183178   0.000000
    27  H    0.175749   0.000000
    28  H    0.164667  -0.000000
    29  H    0.177881   0.000000
    30  H    0.161762  -0.000000
    31  H    0.183176   0.000000
    32  H    0.175723  -0.000000
 Sum of Mulliken charges =  -0.00000  -0.00000

 Dipole moment (field-independent basis, Debye):
    X=             -0.0006    Y=             -0.0001    Z=              0.0027  Tot=              0.0028
 Quadrupole moment (field-independent basis, Debye-Ang):
   XX=            -94.0368   YY=           -122.8993   ZZ=           -114.8314
   XY=            -10.3873   XZ=             -0.5183   YZ=             -9.1373

  Exact polarizability: 366.687  16.589 195.361   9.784 -29.344 134.910
 Approx polarizability: 503.995  87.431 389.710   8.821 -58.912 228.202

                      1                      2                      3
                      A                      A                      A
 Frequencies --     25.7616                49.5608                64.0237
 Red. masses --      6.6321                 3.7893                 5.3308
 Frc consts  --      0.0026                 0.0055                 0.0129
 IR Inten    --      1.5984                 0.4354                 0.0000

                      4                      5                      6
                      A                      A                      A
 Frequencies --     65.5781                95.2298               110.0251
 Red. masses --      5.5226                 5.0816                 7.7170
 Frc consts  --      0.0140                 0.0272                 0.0550
 IR Inten    --      0.9634                 0.0000                 5.4003

                      7                      8                      9
                      A                      A                      A
 Frequencies --    126.9656               201.6657               217.6690
 Red. masses --      5.1491                 6.8834                 5.3083
 Frc consts  --      0.0489                 0.1649                 0.1482
 IR Inten    --      0.0000                 0.0000                 0.0000

                     10                     11                     12
                      A                      A                      A
 Frequencies --    224.6638               297.8362               307.9478
 Red. masses --      4.9171                 5.8335                 5.3584
 Frc consts  --      0.1462                 0.3049                 0.2994
 IR Inten    --      2.7350                 0.0000                 1.6522

                     13                     14                     15
                      A                      A                      A
 Frequencies --    327.7118               413.5448               413.8236
 Red. masses --      7.9481                 2.8882                 2.9119
 Frc consts  --      0.5029                 0.2910                 0.2938
 IR Inten    --      5.5416                 0.0002                 1.9101

                     16                     17                     18
                      A                      A                      A
 Frequencies --    425.8845               435.2327               470.9656
 Red. masses --      5.6238                 3.6696                12.0168
 Frc consts  --      0.6010                 0.4096                 1.5704
 IR Inten    --      0.0000                 2.3188                 0.0000

                     19                     20                     21
                      A                      A                      A
 Frequencies --    491.9361               510.7997               538.6202
 Red. masses --      7.0278                 3.5129                 4.3251
 Frc consts  --      1.0020                 0.5400                 0.7393
 IR Inten    --     44.9426                25.9490                 0.0001

                     22                     23                     24
                      A                      A                      A
 Frequencies --    574.4952               632.7248               632.7683
 Red. masses --      6.6537                 6.4103                 6.3467
 Frc consts  --      1.2939                 1.5120                 1.4972
 IR Inten    --      0.0000                 1.1688                 0.0004

                     25                     26                     27
                      A                      A                      A
 Frequencies --    668.5058               690.3604               703.8813
 Red. masses --      5.3974                 6.0895                 2.1427
 Frc consts  --      1.4212                 1.7099                 0.6255
 IR Inten    --      0.0000                 0.0000                53.2999

                     28                     29                     30
                      A                      A                      A
 Frequencies --    705.7078               709.9688               721.3293
 Red. masses --      1.6338                 5.4685                 2.4332
 Frc consts  --      0.4794                 1.6240                 0.7459
 IR Inten    --      0.0007                16.4707                42.5917

                     31                     32                     33
                      A                      A                      A
 Frequencies --    780.0265               788.6108               792.3882
 Red. masses --      2.1738                 3.1468                 3.2767
 Frc consts  --      0.7793                 1.1530                 1.2122
 IR Inten    --      0.0000                40.8875                 0.0001

                     34                     35                     36
                      A                      A                      A
 Frequencies --    829.7925               852.1225               852.3121
 Red. masses --      3.5418                 1.2505                 1.2488
 Frc consts  --      1.4368                 0.5350                 0.5345
 IR Inten    --     10.3488                 5.9783                 0.0092

                     37                     38                     39
                      A                      A                      A
 Frequencies --    906.2748               908.9858               934.4491
 Red. masses --      1.7915                 4.0063                 1.4533
 Frc consts  --      0.8670                 1.9504                 0.7477
 IR Inten    --      0.0000                 0.0000                23.0133

                     40                     41                     42
                      A                      A                      A
 Frequencies --    940.4575               944.7966               984.7596
 Red. masses --      1.4806                 1.5090                 1.3778
 Frc consts  --      0.7716                 0.7936                 0.7872
 IR Inten    --      0.0000                20.3378                 1.9447

                     43                     44                     45
                      A                      A                      A
 Frequencies --    985.0182              1003.7171              1004.5063
 Red. masses --      1.3715                 1.5029                 1.3064
 Frc consts  --      0.7840                 0.8921                 0.7766
 IR Inten    --      0.0005                 9.2442                 0.0000

                     46                     47                     48
                      A                      A                      A
 Frequencies --   1008.3570              1015.8443              1016.1101
 Red. masses --      2.9547                 6.0864                 5.9736
 Frc consts  --      1.7701                 3.7005                 3.6339
 IR Inten    --     23.9188                 9.4904                 0.0001

                     49                     50                     51
                      A                      A                      A
 Frequencies --   1052.5690              1055.2478              1107.5142
 Red. masses --      2.1631                 2.0013                 1.6171
 Frc consts  --      1.4120                 1.3131                 1.1687
 IR Inten    --      0.0000                 3.2618                10.2599

                     52                     53                     54
                      A                      A                      A
 Frequencies --   1107.9197              1184.7279              1184.7413
 Red. masses --      1.6048                 1.1096                 1.1099
 Frc consts  --      1.1606                 0.9176                 0.9179
 IR Inten    --      0.0002                 0.0326                 0.2580

                     55                     56                     57
                      A                      A                      A
 Frequencies --   1198.7243              1205.4989              1211.1087
 Red. masses --      4.5828                 2.0845                 1.2208
 Frc consts  --      3.8799                 1.7848                 1.0551
 IR Inten    --    465.8605                 0.0009                 5.7108

                     58                     59                     60
                      A                      A                      A
 Frequencies --   1211.8370              1266.0348              1276.0393
 Red. masses --      1.2825                 1.8642                 2.1602
 Frc consts  --      1.1097                 1.7605                 2.0724
 IR Inten    --      0.0000                 0.0000                 6.5170

                     61                     62                     63
                      A                      A                      A
 Frequencies --   1314.5831              1324.5066              1350.7716
 Red. masses --      3.9638                 4.6365                 2.7352
 Frc consts  --      4.0359                 4.7924                 2.9404
 IR Inten    --      0.0000                38.2437                 0.0001

                     64                     65                     66
                      A                      A                      A
 Frequencies --   1353.6532              1365.4336              1366.8501
 Red. masses --      1.9868                 1.7855                 1.9226
 Frc consts  --      2.1449                 1.9614                 2.1164
 IR Inten    --     35.6733                24.0758                 0.0009

                     67                     68                     69
                      A                      A                      A
 Frequencies --   1474.2090              1474.4566              1523.6212
 Red. masses --      2.2075                 2.2225                 2.1848
 Frc consts  --      2.8267                 2.8467                 2.9882
 IR Inten    --     17.1571                 0.0011                 0.0128

                     70                     71                     72
                      A                      A                      A
 Frequencies --   1523.6879              1609.2675              1611.1452
 Red. masses --      2.1947                 5.2632                 5.1354
 Frc consts  --      3.0020                 8.0308                 7.8540
 IR Inten    --     16.1844                53.7352                 0.0007

                     73                     74                     75
                      A                      A                      A
 Frequencies --   1631.0273              1638.2236              1638.6695
 Red. masses --      7.6537                 5.5018                 5.6757
 Frc consts  --     11.9961                 8.6996                 8.9796
 IR Inten    --    216.9095                 0.0000                 1.1065

                     76                     77                     78
                      A                      A                      A
 Frequencies --   1666.1049              1706.5613              1711.4536
 Red. masses --      9.2363                10.3288                12.1916
 Frc consts  --     15.1062                17.7233                21.0398
 IR Inten    --      0.0001                 0.0097               463.9392

                     79                     80                     81
                      A                      A                      A
 Frequencies --   3164.0039              3164.0246              3172.1790
 Red. masses --      1.0855                 1.0855                 1.0886
 Frc consts  --      6.4025                 6.4026                 6.4543
 IR Inten    --      1.4543                 0.0163                 6.5246

                     82                     83                     84
                      A                      A                      A
 Frequencies --   3172.2117              3180.0025              3180.6585
 Red. masses --      1.0886                 1.0920                 1.0927
 Frc consts  --      6.4544                 6.5061                 6.5128
 IR Inten    --      2.2165                21.7960                 0.0126

                     85                     86                     87
                      A                      A                      A
 Frequencies --   3182.6018              3183.6049              3190.6536
 Red. masses --      1.0919                 1.0916                 1.0972
 Frc consts  --      6.5160                 6.5189                 6.5813
 IR Inten    --     16.4044                 0.0064                39.4778

                     88                     89                     90
                      A                      A                      A
 Frequencies --   3190.7613              3216.3761              3216.4160
 Red. masses --      1.0972                 1.0929                 1.0930
 Frc consts  --      6.5814                 6.6617                 6.6620
 IR Inten    --      0.0110                 0.2325                 4.2691

 - Thermochemistry -
 -------------------
 Temperature   298.150 Kelvin.  Pressure   1.00000 Atm.
 Atom     1 has atomic number  8 and mass  15.99491

 Molecular mass:   260.08373 amu.
 Principal axes and moments of inertia in atomic units:
                           1         2         3
     Eigenvalues --  1546.41798********************
           X            0.99741   0.06432  -0.03210
           Y           -0.05450   0.96781   0.24573
           Z            0.04687  -0.24334   0.96881
 This molecule is an asymmetric top.
 Rotational symmetry number  1.
 Warning -- assumption of classical behavior for rotation
           may cause significant error
 Rotational temperatures (Kelvin)      0.05601     0.00729     0.00663
 Rotational constants (GHZ):           1.16705     0.15187     0.13811
 Zero-point vibrational energy     645764.5 (Joules/Mol)
                                  154.34143 (Kcal/Mol)
 Warning -- explicit consideration of  22 degrees of freedom as
           vibrations may cause significant error
 Vibrational temperatures:     37.07    71.31    92.12    94.35   137.01
          (Kelvin)            158.30   182.68   290.15   313.18   323.24
                              428.52   443.07   471.50   595.00   595.40
                              612.75   626.20   677.61   707.79   734.93
                              774.95   826.57   910.35   910.41   961.83
                              993.27  1012.73  1015.36  1021.49  1037.83
                             1122.28  1134.64  1140.07  1193.89  1226.01
                             1226.29  1303.93  1307.83  1344.46  1353.11
                             1359.35  1416.85  1417.22  1444.13  1445.26
                             1450.80  1461.57  1461.96  1514.41  1518.27
                             1593.47  1594.05  1704.56  1704.58  1724.70
                             1734.44  1742.52  1743.56  1821.54  1835.94
                             1891.39  1905.67  1943.46  1947.61  1964.55
                             1966.59  2121.06  2121.41  2192.15  2192.25
                             2315.38  2318.08  2346.68  2357.04  2357.68
                             2397.15  2455.36  2462.40  4552.30  4552.33
                             4564.06  4564.11  4575.31  4576.26  4579.05
                             4580.50  4590.64  4590.79  4627.65  4627.71

 Zero-point correction=                           0.245959 (Hartree/Particle)
 Thermal correction to Energy=                    0.261559
 Thermal correction to Enthalpy=                  0.262503
 Thermal correction to Gibbs Free Energy=         0.201478
 Sum of electronic and zero-point Energies=           -843.539274
 Sum of electronic and thermal Energies=              -843.523674
 Sum of electronic and thermal Enthalpies=            -843.522730
 Sum of electronic and thermal Free Energies=         -843.583755

                     E (Thermal)             CV                S
                      KCal/Mol        Cal/Mol-Kelvin    Cal/Mol-Kelvin
 Total                  164.131             61.619            128.438
 Electronic               0.000              0.000              0.000
 Translational            0.889              2.981             42.567
 Rotational               0.889              2.981             33.840
 Vibrational            162.353             55.657             52.031
 Vibration     1          0.593              1.985              6.132
 Vibration     2          0.595              1.978              4.835
 Vibration     3          0.597              1.971              4.329
 Vibration     4          0.597              1.971              4.282
 Vibration     5          0.603              1.953              3.550
 Vibration     6          0.606              1.941              3.268
 Vibration     7          0.611              1.926              2.992
 Vibration     8          0.639              1.838              2.118
 Vibration     9          0.646              1.814              1.978
 Vibration    10          0.649              1.803              1.921
 Vibration    11          0.691              1.678              1.429
 Vibration    12          0.698              1.659              1.373
 Vibration    13          0.711              1.620              1.271
 Vibration    14          0.777              1.441              0.914
 Vibration    15          0.777              1.440              0.913
 Vibration    16          0.788              1.414              0.872
 Vibration    17          0.796              1.393              0.842
 Vibration    18          0.828              1.314              0.735
 Vibration    19          0.848              1.268              0.679
 Vibration    20          0.866              1.226              0.632
 Vibration    21          0.894              1.165              0.568
 Vibration    22          0.931              1.086              0.496

                           ! Non-Optimized Parameters !
 Normal termination of Gaussian 16 at Wed Dec 20 06:03:12 2023.
