 Gaussian 16, Revision A.03,
 Gaussian 16:  ES64L-G16RevA.03 25-Dec-2016

 ----------------------------------------------
 #P UB3LYP/6-311++G(d,p) nosym opt freq SCF=YQC
 ----------------------------------------------

 -------
 Reduced
 -------
 Symbolic Z-matrix:
 Charge = -2 Multiplicity = 1

 SCF Done:  E(UB3LYP) =  -744.226407649     a.u. after    9 cycles
 SCF Done:  E(UB3LYP) =  -744.232766619     A.U. after   33 cycles
 SCF Done:  E(UB3LYP) =  -744.232766619     a.u. after    1 cycles
 SCF Done:  E(UB3LYP) =  -744.263835495     a.u. after   42 cycles
 SCF Done:  E(UB3LYP) =  -744.264356582     A.U. after   33 cycles
 SCF Done:  E(UB3LYP) =  -744.264356582     a.u. after    1 cycles
 SCF Done:  E(UB3LYP) =  -744.280328334     a.u. after   37 cycles
 SCF Done:  E(UB3LYP) =  -744.281428015     A.U. after   33 cycles
 SCF Done:  E(UB3LYP) =  -744.281600622     a.u. after    7 cycles
 SCF Done:  E(UB3LYP) =  -744.295399700     a.u. after   61 cycles
 SCF Done:  E(UB3LYP) =  -744.306319369     a.u. after    5 cycles
 SCF Done:  E(UB3LYP) =  -744.306417991     A.U. after   23 cycles
 SCF Done:  E(UB3LYP) =  -744.306375063     a.u. after    1 cycles
 SCF Done:  E(UB3LYP) =  -744.306422285     A.U. after   21 cycles
 SCF Done:  E(UB3LYP) =  -744.306412438     a.u. after    1 cycles
 SCF Done:  E(UB3LYP) =  -744.306423307     A.U. after   19 cycles
 SCF Done:  E(UB3LYP) =  -744.306421979     a.u. after    1 cycles
 SCF Done:  E(UB3LYP) =  -744.306423446     A.U. after   19 cycles
 Optimization completed.
    -- Stationary point found.
 Normal termination of Gaussian 16 at Thu Dec 21 14:55:11 2023.

 ----------------------------------------------------------------------
 #P Geom=AllCheck Guess=TCheck SCRF=Check GenChk UB3LYP/6-311++G(d,p) F
 req
 ----------------------------------------------------------------------

 Structure from the checkpoint file:  "150-an.chk"
 -------
 Reduced
 -------
 Charge = -2 Multiplicity = 1

                          Input orientation:
 ---------------------------------------------------------------------
 Center     Atomic      Atomic             Coordinates (Angstroms)
 Number     Number       Type             X           Y           Z
 ---------------------------------------------------------------------
      1          7           0       -2.916704    1.899943    0.068116
      2          6           0       -2.528894    0.546828    0.046324
      3          6           0       -3.493000   -0.453072    0.036678
      4          6           0       -3.118518   -1.819947   -0.061952
      5          6           0       -1.791391   -2.164137   -0.159729
      6          6           0       -0.761012   -1.182096   -0.135162
      7          6           0        0.610014   -1.639655   -0.212205
      8          8           0        0.922730   -2.883554   -0.336601
      9          6           0        1.603010   -0.595068   -0.127772
     10          6           0        2.979942   -0.933180   -0.186156
     11          6           0        3.979423    0.013569   -0.097643
     12          6           0        3.631012    1.387823    0.059844
     13          6           0        2.302485    1.751626    0.122579
     14          6           0        1.247757    0.802589    0.031921
     15          6           0       -0.115040    1.254361    0.103376
     16          8           0       -0.391208    2.524526    0.275504
     17          6           0       -1.120377    0.224252   -0.009400
     18          1           0       -3.711316    2.072252    0.669927
     19          1           0       -2.075949    2.483493    0.257969
     20          1           0       -4.544491   -0.167974    0.054707
     21          1           0       -3.890909   -2.588480   -0.072390
     22          1           0       -1.470081   -3.196215   -0.249598
     23          1           0        3.208184   -1.988558   -0.303429
     24          1           0        5.026269   -0.283279   -0.147356
     25          1           0        4.411319    2.144736    0.129625
     26          1           0        2.006745    2.789218    0.242824
 ---------------------------------------------------------------------

 SCF Done:  E(UB3LYP) =  -744.306423446     a.u. after    1 cycles
 SCF Done:  E(UB3LYP) =  -744.306423446     A.U. after    1 cycles

 Alpha  occ. eigenvalues --  -18.77842 -18.76678 -14.04799  -9.95364  -9.93363
 Alpha  occ. eigenvalues --   -9.92738  -9.92147  -9.92071  -9.91607  -9.91277
 Alpha  occ. eigenvalues --   -9.91227  -9.90673  -9.90102  -9.89838  -9.89538
 Alpha  occ. eigenvalues --   -9.89368  -9.89265  -0.69477  -0.68259  -0.64672
 Alpha  occ. eigenvalues --   -0.58773  -0.56812  -0.51315  -0.48700  -0.46888
 Alpha  occ. eigenvalues --   -0.46313  -0.39642  -0.37145  -0.35644  -0.31801
 Alpha  occ. eigenvalues --   -0.28875  -0.28175  -0.26210  -0.23679  -0.21129
 Alpha  occ. eigenvalues --   -0.20551  -0.19396  -0.18129  -0.17072  -0.16306
 Alpha  occ. eigenvalues --   -0.13891  -0.13592  -0.12807  -0.12030  -0.11111
 Alpha  occ. eigenvalues --   -0.10898  -0.09034  -0.07933  -0.07763  -0.06734
 Alpha  occ. eigenvalues --   -0.05942  -0.04135   0.00850   0.02146   0.02408
 Alpha  occ. eigenvalues --    0.03889   0.04955   0.05696   0.13919
 Alpha virt. eigenvalues --    0.16443   0.16471   0.17830   0.18169   0.19886
 Alpha virt. eigenvalues --    0.20943   0.21408   0.21480   0.22887   0.23453
 Alpha virt. eigenvalues --    0.24463   0.25876   0.25954   0.26984   0.27026

  Beta  occ. eigenvalues --  -18.77842 -18.76678 -14.04799  -9.95364  -9.93363
  Beta  occ. eigenvalues --   -9.92738  -9.92147  -9.92071  -9.91607  -9.91277
  Beta  occ. eigenvalues --   -9.91227  -9.90673  -9.90102  -9.89838  -9.89538
  Beta  occ. eigenvalues --   -9.89368  -9.89265  -0.69477  -0.68259  -0.64672
  Beta  occ. eigenvalues --   -0.58773  -0.56812  -0.51315  -0.48700  -0.46888
  Beta  occ. eigenvalues --   -0.46313  -0.39642  -0.37145  -0.35644  -0.31801
  Beta  occ. eigenvalues --   -0.28875  -0.28175  -0.26210  -0.23679  -0.21129
  Beta  occ. eigenvalues --   -0.20551  -0.19396  -0.18129  -0.17072  -0.16306
  Beta  occ. eigenvalues --   -0.13891  -0.13592  -0.12807  -0.12030  -0.11111
  Beta  occ. eigenvalues --   -0.10898  -0.09034  -0.07933  -0.07763  -0.06734
  Beta  occ. eigenvalues --   -0.05942  -0.04135   0.00850   0.02146   0.02408
  Beta  occ. eigenvalues --    0.03889   0.04955   0.05696   0.13919
  Beta virt. eigenvalues --    0.16443   0.16471   0.17830   0.18169   0.19886
  Beta virt. eigenvalues --    0.20943   0.21408   0.21480   0.22887   0.23453
  Beta virt. eigenvalues --    0.24463   0.25876   0.25954   0.26984   0.27026

 Mulliken charges and spin densities:
               1          2
     1  N   -0.423105  -0.000000
     2  C    0.152472  -0.000000
     3  C   -0.289147   0.000000
     4  C   -0.452040   0.000000
     5  C   -0.109799   0.000000
     6  C    0.620778  -0.000000
     7  C   -0.749629  -0.000000
     8  O   -0.514142   0.000000
     9  C    0.200707  -0.000000
    10  C    0.005735  -0.000000
    11  C   -0.409979   0.000000
    12  C   -0.520074   0.000000
    13  C    0.083434  -0.000000
    14  C    0.258194   0.000000
    15  C   -0.600546  -0.000000
    16  O   -0.516421   0.000000
    17  C    0.212809   0.000000
    18  H    0.163868   0.000000
    19  H    0.296565  -0.000000
    20  H    0.017084   0.000000
    21  H    0.068708  -0.000000
    22  H    0.120413   0.000000
    23  H    0.121249   0.000000
    24  H    0.068026  -0.000000
    25  H    0.067181   0.000000
    26  H    0.127660   0.000000
 Sum of Mulliken charges =  -2.00000  -0.00000

 Dipole moment (field-independent basis, Debye):
    X=             -1.3163    Y=              2.1540    Z=              1.2320  Tot=              2.8089
 Quadrupole moment (field-independent basis, Debye-Ang):
   XX=           -157.0609   YY=           -158.8998   ZZ=           -114.2143
   XY=              2.5693   XZ=             -2.0851   YZ=             -2.4844

  Exact polarizability: 641.895   0.545 277.903 -38.840  24.048 147.106
 Approx polarizability: 794.592  45.904 498.322 -25.559  31.660 202.714

                      1                      2                      3
                      A                      A                      A
 Frequencies --     58.2489                83.4453               131.1655
 Red. masses --      6.6564                 4.8699                 4.4988
 Frc consts  --      0.0133                 0.0200                 0.0456
 IR Inten    --      5.5905                 1.8958                 2.1421

                      4                      5                      6
                      A                      A                      A
 Frequencies --    169.8459               208.2194               225.2106
 Red. masses --      7.4815                 4.3163                 4.9317
 Frc consts  --      0.1272                 0.1103                 0.1474
 IR Inten    --      3.9114                 4.2745                 6.0756

                      7                      8                      9
                      A                      A                      A
 Frequencies --    262.5558               321.1568               351.7076
 Red. masses --      4.2806                 7.1986                 6.4345
 Frc consts  --      0.1739                 0.4375                 0.4690
 IR Inten    --      6.0771                 1.6619                 2.6332

                     10                     11                     12
                      A                      A                      A
 Frequencies --    378.0201               391.2703               406.9208
 Red. masses --      4.1885                 7.6372                 4.1960
 Frc consts  --      0.3526                 0.6889                 0.4094
 IR Inten    --     18.4475                 1.4252                38.3564

                     13                     14                     15
                      A                      A                      A
 Frequencies --    422.6487               444.4798               455.7758
 Red. masses --      1.8874                 2.9083                 4.7096
 Frc consts  --      0.1986                 0.3385                 0.5764
 IR Inten    --     70.1957                14.4789                15.5254

                     16                     17                     18
                      A                      A                      A
 Frequencies --    489.1277               504.1427               552.2638
 Red. masses --      4.3064                 7.4464                 5.4286
 Frc consts  --      0.6070                 1.1151                 0.9755
 IR Inten    --      0.5747                 7.6180                 4.8509

                     19                     20                     21
                      A                      A                      A
 Frequencies --    564.1453               601.2029               623.2713
 Red. masses --      3.8590                 6.2793                 3.4849
 Frc consts  --      0.7236                 1.3372                 0.7976
 IR Inten    --     30.6330                26.4475                53.9150

                     22                     23                     24
                      A                      A                      A
 Frequencies --    655.3700               679.1173               691.1176
 Red. masses --      6.0354                 1.8098                 6.4295
 Frc consts  --      1.5273                 0.4918                 1.8094
 IR Inten    --      4.7555               112.1022                 0.1142

                     25                     26                     27
                      A                      A                      A
 Frequencies --    697.8109               729.4688               744.8101
 Red. masses --      1.5710                 1.9569                 1.9711
 Frc consts  --      0.4507                 0.6135                 0.6442
 IR Inten    --     62.1765                10.8900                41.6249

                     28                     29                     30
                      A                      A                      A
 Frequencies --    767.1420               779.0389               795.0381
 Red. masses --      2.4272                 1.6910                 5.8059
 Frc consts  --      0.8416                 0.6047                 2.1622
 IR Inten    --     12.2939                31.4811                10.5100

                     31                     32                     33
                      A                      A                      A
 Frequencies --    829.4535               869.5535               907.8936
 Red. masses --      5.0557                 6.2630                 1.8168
 Frc consts  --      2.0493                 2.7901                 0.8823
 IR Inten    --      1.8844                36.8900               107.3891

                     34                     35                     36
                      A                      A                      A
 Frequencies --    928.1036               938.5701               950.2850
 Red. masses --      1.2915                 3.3186                 1.2356
 Frc consts  --      0.6555                 1.7224                 0.6574
 IR Inten    --     18.1284                36.7282                 0.3538

                     37                     38                     39
                      A                      A                      A
 Frequencies --    956.0711              1004.7257              1020.5877
 Red. masses --      1.3659                 2.5752                 2.6348
 Frc consts  --      0.7356                 1.5316                 1.6170
 IR Inten    --      3.1785               109.1356                51.8393

                     40                     41                     42
                      A                      A                      A
 Frequencies --   1051.4040              1090.8474              1115.8018
 Red. masses --      2.2113                 2.1954                 1.4408
 Frc consts  --      1.4402                 1.5392                 1.0569
 IR Inten    --    132.1860                80.0985               168.9605

                     43                     44                     45
                      A                      A                      A
 Frequencies --   1145.0742              1160.3394              1177.6734
 Red. masses --      1.6444                 1.5334                 1.9457
 Frc consts  --      1.2704                 1.2164                 1.5899
 IR Inten    --     88.1005                45.9150                25.6467

                     46                     47                     48
                      A                      A                      A
 Frequencies --   1203.2221              1222.6204              1243.7396
 Red. masses --      1.6410                 2.4475                 2.8635
 Frc consts  --      1.3998                 2.1556                 2.6098
 IR Inten    --     10.0832               235.9396               139.4366

                     49                     50                     51
                      A                      A                      A
 Frequencies --   1262.9540              1313.2426              1349.4465
 Red. masses --      3.3052                 4.6946                 6.8574
 Frc consts  --      3.1062                 4.7702                 7.3573
 IR Inten    --      2.4597                24.8596               280.4413

                     52                     53                     54
                      A                      A                      A
 Frequencies --   1369.5187              1373.1884              1440.0691
 Red. masses --      2.7528                 2.3674                 4.1291
 Frc consts  --      3.0420                 2.6302                 5.0451
 IR Inten    --    391.1601               353.9644                31.8699

                     55                     56                     57
                      A                      A                      A
 Frequencies --   1447.7046              1467.1794              1479.1426
 Red. masses --      2.6832                 2.4350                 4.7320
 Frc consts  --      3.3134                 3.0883                 6.0998
 IR Inten    --     46.0313                 9.8830               511.0216

                     58                     59                     60
                      A                      A                      A
 Frequencies --   1484.7775              1526.5689              1575.5542
 Red. masses --      4.8849                 5.4121                 6.6153
 Frc consts  --      6.3449                 7.4310                 9.6754
 IR Inten    --      2.3328               164.5402                53.6868

                     61                     62                     63
                      A                      A                      A
 Frequencies --   1578.8340              1584.2677              1613.5601
 Red. masses --      4.0832                 3.8931                 1.4742
 Frc consts  --      5.9969                 5.7570                 2.2614
 IR Inten    --     42.4466                27.2797                85.6831

                     64                     65                     66
                      A                      A                      A
 Frequencies --   3052.1151              3081.3454              3083.7383
 Red. masses --      1.0746                 1.0825                 1.0823
 Frc consts  --      5.8980                 6.0555                 6.0640
 IR Inten    --     89.5825                55.9760                39.8491

                     67                     68                     69
                      A                      A                      A
 Frequencies --   3105.8430              3108.2783              3153.2884
 Red. masses --      1.0914                 1.0903                 1.0904
 Frc consts  --      6.2027                 6.2066                 6.3882
 IR Inten    --     67.7232               151.3640                47.1980

                     70                     71                     72
                      A                      A                      A
 Frequencies --   3159.2333              3166.6892              3563.4295
 Red. masses --      1.0908                 1.0906                 1.0777
 Frc consts  --      6.4141                 6.4435                 8.0627
 IR Inten    --     60.6442                25.1308                34.2049

 - Thermochemistry -
 -------------------
 Temperature   298.150 Kelvin.  Pressure   1.00000 Atm.
 Atom     1 has atomic number  7 and mass  14.00307

 Molecular mass:   223.06333 amu.
 Principal axes and moments of inertia in atomic units:
                           1         2         3
     Eigenvalues --  2077.465354394.676016467.25417
           X            0.99545  -0.09345   0.01886
           Y            0.09481   0.99118  -0.09255
           Z           -0.01004   0.09392   0.99553
 This molecule is an asymmetric top.
 Rotational symmetry number  1.
 Warning -- assumption of classical behavior for rotation
           may cause significant error
 Rotational temperatures (Kelvin)      0.04169     0.01971     0.01339
 Rotational constants (GHZ):           0.86872     0.41067     0.27906
 Zero-point vibrational energy     498481.9 (Joules/Mol)
                                  119.14004 (Kcal/Mol)
 Warning -- explicit consideration of  20 degrees of freedom as
           vibrations may cause significant error
 Vibrational temperatures:     83.81   120.06   188.72   244.37   299.58
          (Kelvin)            324.03   377.76   462.07   506.03   543.89
                              562.95   585.47   608.10   639.51   655.76
                              703.75   725.35   794.58   811.68   865.00
                              896.75   942.93   977.10   994.36  1003.99
                             1049.54  1071.62  1103.75  1120.86  1143.88
                             1193.40  1251.09  1306.26  1335.33  1350.39
                             1367.25  1375.57  1445.58  1468.40  1512.74
                             1569.49  1605.39  1647.51  1669.47  1694.41
                             1731.17  1759.08  1789.46  1817.11  1889.46
                             1941.55  1970.43  1975.71  2071.94  2082.92
                             2110.94  2128.16  2136.26  2196.39  2266.87
                             2271.59  2279.41  2321.55  4391.31  4433.37
                             4436.81  4468.62  4472.12  4536.88  4545.43
                             4556.16  5126.98

 Zero-point correction=                           0.189862 (Hartree/Particle)
 Thermal correction to Energy=                    0.202405
 Thermal correction to Enthalpy=                  0.203349
 Thermal correction to Gibbs Free Energy=         0.151384
 Sum of electronic and zero-point Energies=           -744.116562
 Sum of electronic and thermal Energies=              -744.104018
 Sum of electronic and thermal Enthalpies=            -744.103074
 Sum of electronic and thermal Free Energies=         -744.155039

                     E (Thermal)             CV                S
                      KCal/Mol        Cal/Mol-Kelvin    Cal/Mol-Kelvin
 Total                  127.011             52.353            109.370
 Electronic               0.000              0.000              0.000
 Translational            0.889              2.981             42.109
 Rotational               0.889              2.981             32.446
 Vibrational            125.234             46.391             34.815
 Vibration     1          0.596              1.974              4.516
 Vibration     2          0.600              1.961              3.808
 Vibration     3          0.612              1.922              2.929
 Vibration     4          0.625              1.880              2.437
 Vibration     5          0.642              1.828              2.059
 Vibration     6          0.650              1.803              1.917
 Vibration     7          0.670              1.741              1.645
 Vibration     8          0.707              1.633              1.304
 Vibration     9          0.728              1.572              1.159
 Vibration    10          0.748              1.517              1.047
 Vibration    11          0.759              1.489              0.995
 Vibration    12          0.772              1.455              0.938
 Vibration    13          0.785              1.421              0.883
 Vibration    14          0.804              1.373              0.813
 Vibration    15          0.814              1.348              0.778
 Vibration    16          0.845              1.274              0.686
 Vibration    17          0.859              1.241              0.648
 Vibration    18          0.908              1.135              0.539
 Vibration    19          0.920              1.109              0.516
 Vibration    20          0.959              1.029              0.448

 Optimization completed.
    -- Stationary point found.
 Normal termination of Gaussian 16 at Thu Dec 21 15:53:22 2023.
