 Q-Chem 5.4, Q-Chem, Inc., Pleasanton, CA (2021)
 Q-Chem 5.4.0 for Intel X86 EM64T Linux

User input:
--------------------------------------------------------------
$molecule
0 1
C                  1.7656180000      1.2968070000     -0.4885340000
C                  0.4688920000      1.6460580000      0.1840840000
C                 -0.4903510000      0.7202520000      0.3561470000
C                 -0.3190090000     -0.6826890000     -0.1678730000
C                  0.9798980000     -1.0521030000     -0.7793220000
C                  1.9619350000     -0.1250540000     -0.9469690000
O                  2.6377120000      2.1172600000     -0.6458460000
O                 -1.2302450000     -1.4843340000     -0.1067640000
O                  3.1561630000     -0.2691670000     -1.5197670000
C                  3.7548850000     -1.5538600000     -1.7593270000
Br                 0.3264140000      3.4373130000      0.7607510000
Br                -2.1372220000      1.0574730000      1.2123300000
H                  3.2210790000     -2.1005320000     -2.5338470000
H                  3.7834430000     -2.1406370000     -0.8383820000
H                  4.7688190000     -1.3234840000     -2.0811300000
O                  1.0872520000     -2.2964710000     -1.3191810000
C                  0.9817970000     -3.4298320000     -0.4351280000
H                  0.0063530000     -3.4613980000      0.0469630000
H                  1.7795200000     -3.3977170000      0.3146790000
H                  1.1108170000     -4.3047930000     -1.0702250000
$end

$rem
BASIS  =  6-311++G(d,p)
GUI  =  2
JOB_TYPE  =  SP
METHOD  =  B3LYP
SCF_CONVERGENCE  = 8
SOLVENT_METHOD = sm12
$end

$smx
solvent dimethylformamide
charges CM5
$end

--------------------------------------------------------------

             Standard Nuclear Orientation (Angstroms)
    I     Atom           X                Y                Z
 ----------------------------------------------------------------
    1      C       1.7656180000     1.2968070000    -0.4885340000
    2      C       0.4688920000     1.6460580000     0.1840840000
    3      C      -0.4903510000     0.7202520000     0.3561470000
    4      C      -0.3190090000    -0.6826890000    -0.1678730000
    5      C       0.9798980000    -1.0521030000    -0.7793220000
    6      C       1.9619350000    -0.1250540000    -0.9469690000
    7      O       2.6377120000     2.1172600000    -0.6458460000
    8      O      -1.2302450000    -1.4843340000    -0.1067640000
    9      O       3.1561630000    -0.2691670000    -1.5197670000
   10      C       3.7548850000    -1.5538600000    -1.7593270000
   11      Br      0.3264140000     3.4373130000     0.7607510000
   12      Br     -2.1372220000     1.0574730000     1.2123300000
   13      H       3.2210790000    -2.1005320000    -2.5338470000
   14      H       3.7834430000    -2.1406370000    -0.8383820000
   15      H       4.7688190000    -1.3234840000    -2.0811300000
   16      O       1.0872520000    -2.2964710000    -1.3191810000
   17      C       0.9817970000    -3.4298320000    -0.4351280000
   18      H       0.0063530000    -3.4613980000     0.0469630000
   19      H       1.7795200000    -3.3977170000     0.3146790000
   20      H       1.1108170000    -4.3047930000    -1.0702250000
 ----------------------------------------------------------------

   16   -5757.7362027178      3.24e-09  Convergence criterion met
 Total energy in the final basis set =    -5757.7508251524

                    Orbital Energies (a.u.)
 --------------------------------------------------------------

 Alpha MOs
 -- Occupied --
********-482.8559 -62.5091 -62.5087 -56.3298 -56.3294 -56.3259 -56.3254
-56.3253 -56.3249 -19.1833 -19.1645 -19.1531 -19.1473 -10.3073 -10.3028
-10.2801 -10.2772 -10.2758 -10.2646 -10.2272 -10.2206  -8.7179  -8.7175
 -6.5500  -6.5496  -6.5368  -6.5363  -6.5350  -6.5347  -2.6609  -2.6605
 -2.6574  -2.6570  -2.6559  -2.6556  -2.6455  -2.6455  -2.6451  -2.6450
 -1.1125  -1.0934  -1.0816  -1.0661  -0.9025  -0.8355  -0.8252  -0.7663
 -0.7505  -0.6974  -0.6927  -0.6211  -0.6142  -0.5711  -0.5402  -0.5237
 -0.5042  -0.4859  -0.4753  -0.4684  -0.4650  -0.4580  -0.4487  -0.4340
 -0.4295  -0.4240  -0.3866  -0.3718  -0.3632  -0.3575  -0.3289  -0.3270
 -0.3248  -0.3076  -0.2928  -0.2869  -0.2847  -0.2528

          Ground-State Mulliken Net Atomic Charges

     Atom                 Charge (a.u.)
  ----------------------------------------
      1 C                    -1.349606
      2 C                     0.214298
      3 C                     0.633858
      4 C                    -0.834372
      5 C                     0.876851
      6 C                     0.497323
      7 O                    -0.221938
      8 O                    -0.215820
      9 O                    -0.192856
     10 C                    -0.095868
     11 Br                   -0.106928
     12 Br                   -0.079230
     13 H                     0.197358
     14 H                     0.227728
     15 H                     0.249297
     16 O                    -0.173386
     17 C                    -0.190126
     18 H                     0.141785
     19 H                     0.197394
     20 H                     0.224238
  ----------------------------------------
  Sum of atomic charges =     0.000000

                    Cartesian Multipole Moments
 -----------------------------------------------------------------
    Charge (ESU x 10^10)
                 0.0000
    Dipole Moment (Debye)
         X       1.9764      Y      -3.9521      Z       0.1846
       Tot       4.4226
    Quadrupole Moments (Debye-Ang)
        XX    -104.1667     XY     -18.5164     YY     -99.9080
        XZ      -2.1735     YZ       3.3256     ZZ    -104.3095

 Total job time:  317.07s(wall), 2457.59s(cpu)
        *  Thank you very much for using Q-Chem.  Have a nice day.  *
