 Gaussian 16, Revision A.03,
 Gaussian 16:  ES64L-G16RevA.03 25-Dec-2016

 --------------------------------------
 #P UB3LYP/6-311++G(d,p) nosym opt freq
 --------------------------------------

 --------
 Oxidized
 --------
 Symbolic Z-matrix:
 Charge =  0 Multiplicity = 1

 SCF Done:  E(UB3LYP) =  -5757.70661408     A.U. after   15 cycles
 SCF Done:  E(UB3LYP) =  -5757.71612226     A.U. after   14 cycles
 SCF Done:  E(UB3LYP) =  -5757.70509633     A.U. after   13 cycles
 SCF Done:  E(UB3LYP) =  -5757.71634284     A.U. after   13 cycles
 SCF Done:  E(UB3LYP) =  -5757.71761183     A.U. after   13 cycles
 SCF Done:  E(UB3LYP) =  -5757.71767220     A.U. after   11 cycles
 SCF Done:  E(UB3LYP) =  -5757.71769803     A.U. after   12 cycles
 SCF Done:  E(UB3LYP) =  -5757.71782059     A.U. after   12 cycles
 SCF Done:  E(UB3LYP) =  -5757.71026879     A.U. after   16 cycles
 SCF Done:  E(UB3LYP) =  -5757.71969210     A.U. after   15 cycles
 SCF Done:  E(UB3LYP) =  -5757.74068181     A.U. after   14 cycles
 SCF Done:  E(UB3LYP) =  -5757.74075336     A.U. after   13 cycles
 SCF Done:  E(UB3LYP) =  -5757.74078468     A.U. after   12 cycles
 SCF Done:  E(UB3LYP) =  -5757.74078922     A.U. after   12 cycles
 SCF Done:  E(UB3LYP) =  -5757.74079010     A.U. after    9 cycles
 SCF Done:  E(UB3LYP) =  -5757.74079065     A.U. after   11 cycles
 SCF Done:  E(UB3LYP) =  -5757.74079118     A.U. after   11 cycles
 SCF Done:  E(UB3LYP) =  -5757.74079141     A.U. after   10 cycles
 SCF Done:  E(UB3LYP) =  -5757.74079152     A.U. after   10 cycles
 Optimization completed.
    -- Stationary point found.
 Normal termination of Gaussian 16 at Tue Jan 23 05:52:30 2024.

 ----------------------------------------------------------------------
 #P Geom=AllCheck Guess=TCheck SCRF=Check GenChk UB3LYP/6-311++G(d,p) F
 req
 ----------------------------------------------------------------------

 Structure from the checkpoint file:  "088.chk"
 --------
 Oxidized
 --------
 Charge =  0 Multiplicity = 1

                          Input orientation:
 ---------------------------------------------------------------------
 Center     Atomic      Atomic             Coordinates (Angstroms)
 Number     Number       Type             X           Y           Z
 ---------------------------------------------------------------------
      1          6           0        1.765618    1.296807   -0.488534
      2          6           0        0.468892    1.646058    0.184084
      3          6           0       -0.490351    0.720252    0.356147
      4          6           0       -0.319009   -0.682689   -0.167873
      5          6           0        0.979898   -1.052103   -0.779322
      6          6           0        1.961935   -0.125054   -0.946969
      7          8           0        2.637712    2.117260   -0.645846
      8          8           0       -1.230245   -1.484334   -0.106764
      9          8           0        3.156163   -0.269167   -1.519767
     10          6           0        3.754885   -1.553860   -1.759327
     11         35           0        0.326414    3.437313    0.760751
     12         35           0       -2.137222    1.057473    1.212330
     13          1           0        3.221079   -2.100532   -2.533847
     14          1           0        3.783443   -2.140637   -0.838382
     15          1           0        4.768819   -1.323484   -2.081130
     16          8           0        1.087252   -2.296471   -1.319181
     17          6           0        0.981797   -3.429832   -0.435128
     18          1           0        0.006353   -3.461398    0.046963
     19          1           0        1.779520   -3.397717    0.314679
     20          1           0        1.110817   -4.304793   -1.070225
 ---------------------------------------------------------------------

 SCF Done:  E(UB3LYP) =  -5757.74079152     A.U. after    1 cycles

 Alpha  occ. eigenvalues -- -482.85502-482.85432 -62.50766 -62.50697 -56.32822
 Alpha  occ. eigenvalues --  -56.32755 -56.32430 -56.32371 -56.32358 -56.32302
 Alpha  occ. eigenvalues --  -19.19223 -19.17481 -19.15219 -19.14790 -10.30656
 Alpha  occ. eigenvalues --  -10.30370 -10.28449 -10.27617 -10.27490 -10.26910
 Alpha  occ. eigenvalues --  -10.24620 -10.23839  -8.71736  -8.71667  -6.54940
 Alpha  occ. eigenvalues --   -6.54876  -6.53623  -6.53547  -6.53448  -6.53381
 Alpha  occ. eigenvalues --   -2.66028  -2.65962  -2.65680  -2.65609  -2.65546
 Alpha  occ. eigenvalues --   -2.65483  -2.64497  -2.64493  -2.64424  -2.64421
 Alpha  occ. eigenvalues --   -1.11934  -1.09772  -1.08270  -1.07173  -0.90208
 Alpha  occ. eigenvalues --   -0.83930  -0.82389  -0.77007  -0.76088  -0.70879
 Alpha  occ. eigenvalues --   -0.69611  -0.62497  -0.61957  -0.57458  -0.54925
 Alpha  occ. eigenvalues --   -0.53257  -0.51324  -0.48601  -0.48180  -0.47844
 Alpha  occ. eigenvalues --   -0.47252  -0.46315  -0.45732  -0.43940  -0.43298
 Alpha  occ. eigenvalues --   -0.42610  -0.39658  -0.37908  -0.37436  -0.36484
 Alpha  occ. eigenvalues --   -0.33317  -0.32634  -0.32465  -0.30622  -0.29494
 Alpha  occ. eigenvalues --   -0.28673  -0.28530  -0.25807
 Alpha virt. eigenvalues --   -0.14132  -0.05349  -0.03492  -0.02117  -0.01155
 Alpha virt. eigenvalues --   -0.00453  -0.00041   0.00386   0.01538   0.01908
 Alpha virt. eigenvalues --    0.02955   0.03656   0.04156   0.04431   0.04718

  Beta  occ. eigenvalues -- -482.85502-482.85432 -62.50766 -62.50697 -56.32822
  Beta  occ. eigenvalues --  -56.32755 -56.32430 -56.32371 -56.32358 -56.32302
  Beta  occ. eigenvalues --  -19.19223 -19.17481 -19.15219 -19.14790 -10.30656
  Beta  occ. eigenvalues --  -10.30370 -10.28449 -10.27617 -10.27490 -10.26910
  Beta  occ. eigenvalues --  -10.24620 -10.23839  -8.71736  -8.71667  -6.54940
  Beta  occ. eigenvalues --   -6.54876  -6.53623  -6.53547  -6.53448  -6.53381
  Beta  occ. eigenvalues --   -2.66028  -2.65962  -2.65680  -2.65609  -2.65546
  Beta  occ. eigenvalues --   -2.65483  -2.64497  -2.64493  -2.64424  -2.64421
  Beta  occ. eigenvalues --   -1.11934  -1.09772  -1.08270  -1.07173  -0.90208
  Beta  occ. eigenvalues --   -0.83930  -0.82389  -0.77007  -0.76088  -0.70879
  Beta  occ. eigenvalues --   -0.69611  -0.62497  -0.61957  -0.57458  -0.54925
  Beta  occ. eigenvalues --   -0.53257  -0.51324  -0.48601  -0.48180  -0.47844
  Beta  occ. eigenvalues --   -0.47252  -0.46315  -0.45732  -0.43940  -0.43298
  Beta  occ. eigenvalues --   -0.42610  -0.39658  -0.37908  -0.37436  -0.36484
  Beta  occ. eigenvalues --   -0.33317  -0.32634  -0.32465  -0.30622  -0.29494
  Beta  occ. eigenvalues --   -0.28673  -0.28530  -0.25807
  Beta virt. eigenvalues --   -0.14132  -0.05349  -0.03492  -0.02117  -0.01155
  Beta virt. eigenvalues --   -0.00453  -0.00041   0.00386   0.01538   0.01908
  Beta virt. eigenvalues --    0.02955   0.03656   0.04156   0.04431   0.04718

 Mulliken charges and spin densities:
               1          2
     1  C   -0.685439   0.000000
     2  C    0.350167  -0.000000
     3  C    0.470596   0.000000
     4  C   -0.473980  -0.000000
     5  C    0.309257  -0.000000
     6  C    0.261163   0.000000
     7  O   -0.149232  -0.000000
     8  O   -0.185564   0.000000
     9  O   -0.142136  -0.000000
    10  C   -0.267758   0.000000
    11  Br  -0.014707  -0.000000
    12  Br  -0.007708   0.000000
    13  H    0.190924  -0.000000
    14  H    0.161763   0.000000
    15  H    0.188833  -0.000000
    16  O   -0.187313   0.000000
    17  C   -0.296678   0.000000
    18  H    0.185712   0.000000
    19  H    0.129983  -0.000000
    20  H    0.162117  -0.000000
 Sum of Mulliken charges =  -0.00000   0.00000

 Dipole moment (field-independent basis, Debye):
    X=              1.6622    Y=             -3.2393    Z=              0.3204  Tot=              3.6549
 Quadrupole moment (field-independent basis, Debye-Ang):
   XX=           -105.0801   YY=           -100.6942   ZZ=           -104.5172
   XY=            -16.7368   XZ=             -1.7968   YZ=              2.9414

  Exact polarizability: 175.489  13.556 183.063 -33.151  15.159 103.813
 Approx polarizability: 310.375  84.517 292.904 -50.393   5.751 160.522

                      1                      2                      3
                      A                      A                      A
 Frequencies --     30.5894                43.5287                59.9116
 Red. masses --      3.8893                10.3702                 7.0494
 Frc consts  --      0.0021                 0.0116                 0.0149
 IR Inten    --      2.6320                 2.7871                 0.2236

                      4                      5                      6
                      A                      A                      A
 Frequencies --     90.5941                93.2926               130.9221
 Red. masses --      3.5614                 1.6346                20.2962
 Frc consts  --      0.0172                 0.0084                 0.2050
 IR Inten    --      2.1745                 1.1253                 0.1932

                      7                      8                      9
                      A                      A                      A
 Frequencies --    134.3517               158.2314               191.6269
 Red. masses --      2.1371                 8.0851                 5.2860
 Frc consts  --      0.0227                 0.1193                 0.1144
 IR Inten    --      1.8535                 1.1933                 4.3900

                     10                     11                     12
                      A                      A                      A
 Frequencies --    215.8179               218.3752               238.6198
 Red. masses --      1.3170                 4.7705                 5.0916
 Frc consts  --      0.0361                 0.1340                 0.1708
 IR Inten    --      0.9068                 2.0585                 3.6491

                     13                     14                     15
                      A                      A                      A
 Frequencies --    263.9297               297.6309               345.8748
 Red. masses --      6.6256                 7.9499                 7.5299
 Frc consts  --      0.2719                 0.4149                 0.5307
 IR Inten    --      1.3620                 2.3164                 2.8366

                     16                     17                     18
                      A                      A                      A
 Frequencies --    368.0017               384.6704               434.9413
 Red. masses --      6.9013                 9.2196                11.3381
 Frc consts  --      0.5507                 0.8038                 1.2637
 IR Inten    --      4.3553                16.1453                 0.7233

                     19                     20                     21
                      A                      A                      A
 Frequencies --    448.6959               486.2327               528.0988
 Red. masses --      7.4160                11.6272                 8.9574
 Frc consts  --      0.8797                 1.6196                 1.4718
 IR Inten    --      2.0436                 8.4933                10.7615

                     22                     23                     24
                      A                      A                      A
 Frequencies --    616.0425               737.2480               746.1799
 Red. masses --      9.5668                10.8085                11.6288
 Frc consts  --      2.1391                 3.4613                 3.8148
 IR Inten    --     10.2853                52.0685                17.5939

                     25                     26                     27
                      A                      A                      A
 Frequencies --    768.8065               773.9058               826.2759
 Red. masses --     11.3057                10.4880                10.3904
 Frc consts  --      3.9372                 3.7010                 4.1796
 IR Inten    --     19.0368                29.0434                41.8498

                     28                     29                     30
                      A                      A                      A
 Frequencies --    947.7508               980.7600              1062.4799
 Red. masses --      7.9959                 8.5470                 7.8715
 Frc consts  --      4.2316                 4.8438                 5.2354
 IR Inten    --     48.8839                11.3569                35.7219

                     31                     32                     33
                      A                      A                      A
 Frequencies --   1131.9881              1161.2708              1164.3187
 Red. masses --      7.0636                 1.2589                 1.2603
 Frc consts  --      5.3328                 1.0003                 1.0066
 IR Inten    --    396.8674                 7.1064                 1.1014

                     34                     35                     36
                      A                      A                      A
 Frequencies --   1180.9915              1208.4568              1229.7836
 Red. masses --      2.5976                 1.5834                 2.4652
 Frc consts  --      2.1346                 1.3624                 2.1967
 IR Inten    --    131.2926                69.4823               167.2836

                     37                     38                     39
                      A                      A                      A
 Frequencies --   1293.4526              1300.7544              1463.0893
 Red. masses --      6.4907                 7.7680                 1.1624
 Frc consts  --      6.3980                 7.7437                 1.4660
 IR Inten    --     80.6509               138.9845                23.5961

                     40                     41                     42
                      A                      A                      A
 Frequencies --   1482.9047              1485.0877              1491.0331
 Red. masses --      1.0742                 1.1872                 1.0577
 Frc consts  --      1.3917                 1.5427                 1.3854
 IR Inten    --     11.2498                 6.6762                12.5829

                     43                     44                     45
                      A                      A                      A
 Frequencies --   1496.4124              1512.7586              1595.6124
 Red. masses --      1.0546                 1.0472                11.2429
 Frc consts  --      1.3913                 1.4119                16.8649
 IR Inten    --     25.1486                18.9716               283.1619

                     46                     47                     48
                      A                      A                      A
 Frequencies --   1659.0414              1719.3616              1750.2171
 Red. masses --     10.0024                12.9295                13.2600
 Frc consts  --     16.2207                22.5198                23.9320
 IR Inten    --    143.8689               233.2403               208.7955

                     49                     50                     51
                      A                      A                      A
 Frequencies --   3019.4834              3043.5187              3115.8229
 Red. masses --      1.0422                 1.0341                 1.0904
 Frc consts  --      5.5986                 5.6440                 6.2373
 IR Inten    --     57.8040                47.2556                24.3380

                     52                     53                     54
                      A                      A                      A
 Frequencies --   3128.2682              3151.7181              3155.5983
 Red. masses --      1.0997                 1.1075                 1.1084
 Frc consts  --      6.3406                 6.4817                 6.5029
 IR Inten    --     23.2152                 6.6200                 7.9734

 - Thermochemistry -
 -------------------
 Temperature   298.150 Kelvin.  Pressure   1.00000 Atm.
 Atom     1 has atomic number  6 and mass  12.00000

 Molecular mass:   323.86328 amu.
 Principal axes and moments of inertia in atomic units:
                           1         2         3
     Eigenvalues --  3401.494295922.629649216.20677
           X           -0.53198   0.75503   0.38331
           Y            0.74686   0.63169  -0.20775
           Z            0.39899  -0.17576   0.89995
 This molecule is an asymmetric top.
 Rotational symmetry number  1.
 Warning -- assumption of classical behavior for rotation
           may cause significant error
 Rotational temperatures (Kelvin)      0.02546     0.01462     0.00940
 Rotational constants (GHZ):           0.53057     0.30472     0.19582
 Zero-point vibrational energy     338329.8 (Joules/Mol)
                                   80.86277 (Kcal/Mol)
 Warning -- explicit consideration of  22 degrees of freedom as
           vibrations may cause significant error
 Vibrational temperatures:     44.01    62.63    86.20   130.34   134.23
          (Kelvin)            188.37   193.30   227.66   275.71   310.51
                              314.19   343.32   379.74   428.22   497.64
                              529.47   553.45   625.78   645.57   699.58
                              759.82   886.35  1060.74  1073.59  1106.14
                             1113.48  1188.83  1363.60  1411.09  1528.67
                             1628.68  1670.81  1675.19  1699.18  1738.70
                             1769.38  1860.99  1871.50  2105.06  2133.57
                             2136.71  2145.26  2153.00  2176.52  2295.73
                             2386.99  2473.78  2518.17  4344.36  4378.94
                             4482.97  4500.88  4534.62  4540.20

 Zero-point correction=                           0.128863 (Hartree/Particle)
 Thermal correction to Energy=                    0.143638
 Thermal correction to Enthalpy=                  0.144582
 Thermal correction to Gibbs Free Energy=         0.084071
 Sum of electronic and zero-point Energies=          -5757.611928
 Sum of electronic and thermal Energies=             -5757.597154
 Sum of electronic and thermal Enthalpies=           -5757.596209
 Sum of electronic and thermal Free Energies=        -5757.656721

                     E (Thermal)             CV                S
                      KCal/Mol        Cal/Mol-Kelvin    Cal/Mol-Kelvin
 Total                   90.134             49.979            127.357
 Electronic               0.000              0.000              0.000
 Translational            0.889              2.981             43.221
 Rotational               0.889              2.981             33.584
 Vibrational             88.357             44.017             50.552
 Vibration     1          0.594              1.984              5.791
 Vibration     2          0.595              1.980              5.092
 Vibration     3          0.597              1.973              4.460
 Vibration     4          0.602              1.956              3.647
 Vibration     5          0.602              1.954              3.590
 Vibration     6          0.612              1.922              2.932
 Vibration     7          0.613              1.919              2.883
 Vibration     8          0.621              1.893              2.571
 Vibration     9          0.634              1.851              2.212
 Vibration    10          0.645              1.817              1.994
 Vibration    11          0.646              1.813              1.973
 Vibration    12          0.657              1.781              1.813
 Vibration    13          0.670              1.739              1.636
 Vibration    14          0.691              1.678              1.430
 Vibration    15          0.724              1.584              1.185
 Vibration    16          0.741              1.538              1.088
 Vibration    17          0.754              1.503              1.021
 Vibration    18          0.796              1.394              0.843
 Vibration    19          0.808              1.364              0.800
 Vibration    20          0.842              1.281              0.693
 Vibration    21          0.883              1.188              0.591
 Vibration    22          0.976              0.998              0.423

                           ! Non-Optimized Parameters !
 Normal termination of Gaussian 16 at Tue Jan 23 06:31:51 2024.
