 Q-Chem 5.4, Q-Chem, Inc., Pleasanton, CA (2021)
 Q-Chem 5.4.0 for Intel X86 EM64T Linux

User input:
--------------------------------------------------------------
$molecule
-2 1
C                  5.8792610000     -5.5552190000      0.9046790000
C                  6.3922450000     -5.5623260000     -0.3804580000
C                  5.9481680000     -4.5973580000     -1.3177120000
C                  4.9159420000     -4.6075080000      1.3180750000
C                  4.4666030000     -3.6295240000      0.3678680000
C                  5.0055900000     -3.6582030000     -0.9375590000
C                  4.4094540000     -4.6384910000      2.6866530000
C                  3.4301200000     -3.6365900000      3.0052360000
C                  2.9935240000     -2.6705550000      2.0745440000
C                  3.4760470000     -2.6181130000      0.7226340000
O                  4.8284600000     -5.5091670000      3.5343790000
O                  3.0746060000     -1.7420000000     -0.1249260000
H                  7.1322660000     -6.3056550000     -0.6713710000
C                  1.9780950000     -1.6125650000      2.4521220000
H                  6.3462290000     -4.5961800000     -2.3307140000
C                  2.8942070000     -3.6572250000      4.4198460000
C                  0.5236490000     -1.9812850000      2.0914340000
C                 -0.4917010000     -0.8864060000      2.4541040000
C                 -1.9446990000     -1.2367110000      2.1093890000
C                 -2.9576720000     -0.1455260000      2.4780690000
H                  6.1991050000     -6.2797150000      1.6470160000
H                  4.6431690000     -2.9055260000     -1.6307310000
H                  2.2310950000     -0.6984490000      1.9031450000
H                  2.0297240000     -1.3866720000      3.5242550000
H                  3.2468640000     -4.5686380000      4.9070170000
H                  1.7980720000     -3.6299030000      4.4553970000
H                  3.2503450000     -2.8007620000      5.0144690000
H                  0.2467610000     -2.9152810000      2.5982060000
H                  0.4850290000     -2.1806150000      1.0154190000
H                 -0.2143070000      0.0427000000      1.9379030000
H                 -0.4228730000     -0.6680470000      3.5297260000
H                 -2.2192130000     -2.1701860000      2.6185660000
H                 -2.0150690000     -1.4486510000      1.0348550000
H                 -2.9445020000      0.0675070000      3.5535530000
H                 -3.9852900000     -0.4277470000      2.2203680000
H                 -2.7416130000      0.7945310000      1.9571010000
$end

$rem
BASIS  =  6-311++G(d,p)
GUI  =  2
JOB_TYPE  =  SP
METHOD  =  B3LYP
SCF_CONVERGENCE  = 8
SOLVENT_METHOD = sm12
$end

$smx
solvent dimethylformamide
charges CM5
$end

--------------------------------------------------------------

             Standard Nuclear Orientation (Angstroms)
    I     Atom           X                Y                Z
 ----------------------------------------------------------------
    1      C       5.8792610000    -5.5552190000     0.9046790000
    2      C       6.3922450000    -5.5623260000    -0.3804580000
    3      C       5.9481680000    -4.5973580000    -1.3177120000
    4      C       4.9159420000    -4.6075080000     1.3180750000
    5      C       4.4666030000    -3.6295240000     0.3678680000
    6      C       5.0055900000    -3.6582030000    -0.9375590000
    7      C       4.4094540000    -4.6384910000     2.6866530000
    8      C       3.4301200000    -3.6365900000     3.0052360000
    9      C       2.9935240000    -2.6705550000     2.0745440000
   10      C       3.4760470000    -2.6181130000     0.7226340000
   11      O       4.8284600000    -5.5091670000     3.5343790000
   12      O       3.0746060000    -1.7420000000    -0.1249260000
   13      H       7.1322660000    -6.3056550000    -0.6713710000
   14      C       1.9780950000    -1.6125650000     2.4521220000
   15      H       6.3462290000    -4.5961800000    -2.3307140000
   16      C       2.8942070000    -3.6572250000     4.4198460000
   17      C       0.5236490000    -1.9812850000     2.0914340000
   18      C      -0.4917010000    -0.8864060000     2.4541040000
   19      C      -1.9446990000    -1.2367110000     2.1093890000
   20      C      -2.9576720000    -0.1455260000     2.4780690000
   21      H       6.1991050000    -6.2797150000     1.6470160000
   22      H       4.6431690000    -2.9055260000    -1.6307310000
   23      H       2.2310950000    -0.6984490000     1.9031450000
   24      H       2.0297240000    -1.3866720000     3.5242550000
   25      H       3.2468640000    -4.5686380000     4.9070170000
   26      H       1.7980720000    -3.6299030000     4.4553970000
   27      H       3.2503450000    -2.8007620000     5.0144690000
   28      H       0.2467610000    -2.9152810000     2.5982060000
   29      H       0.4850290000    -2.1806150000     1.0154190000
   30      H      -0.2143070000     0.0427000000     1.9379030000
   31      H      -0.4228730000    -0.6680470000     3.5297260000
   32      H      -2.2192130000    -2.1701860000     2.6185660000
   33      H      -2.0150690000    -1.4486510000     1.0348550000
   34      H      -2.9445020000     0.0675070000     3.5535530000
   35      H      -3.9852900000    -0.4277470000     2.2203680000
   36      H      -2.7416130000     0.7945310000     1.9571010000
 ----------------------------------------------------------------

   18    -771.1724681403      4.23e-09  Convergence criterion met
 Total energy in the final basis set =     -771.4611010792

                    Orbital Energies (a.u.)
 --------------------------------------------------------------

 Alpha MOs
 -- Occupied --
-19.0199 -19.0190 -10.1778 -10.1763 -10.1726 -10.1721 -10.1693 -10.1675
-10.1672 -10.1671 -10.1639 -10.1623 -10.1603 -10.1591 -10.1495 -10.1490
-10.1411 -10.1369  -0.9403  -0.9372  -0.8427  -0.8107  -0.7894  -0.7545
 -0.7405  -0.7376  -0.6993  -0.6646  -0.6365  -0.6128  -0.5869  -0.5804
 -0.5678  -0.5359  -0.4997  -0.4800  -0.4751  -0.4480  -0.4457  -0.4326
 -0.4224  -0.4188  -0.4186  -0.4045  -0.3932  -0.3866  -0.3809  -0.3777
 -0.3731  -0.3606  -0.3566  -0.3526  -0.3433  -0.3345  -0.3325  -0.3273
 -0.3222  -0.3194  -0.3123  -0.3076  -0.2463  -0.2333  -0.2164  -0.2014
 -0.1931  -0.1145

          Ground-State Mulliken Net Atomic Charges

     Atom                 Charge (a.u.)
  ----------------------------------------
      1 C                    -0.349016
      2 C                     1.495703
      3 C                     1.468456
      4 C                    -2.325746
      5 C                    -1.358000
      6 C                    -0.243757
      7 C                    -2.495394
      8 C                    -1.093169
      9 C                     0.415849
     10 C                    -2.738345
     11 O                    -0.340282
     12 O                    -0.258299
     13 H                     0.401541
     14 C                    -0.057180
     15 H                     0.400991
     16 C                     1.166355
     17 C                    -1.508789
     18 C                     1.302520
     19 C                     0.931028
     20 C                     0.803774
     21 H                     0.092967
     22 H                     0.084653
     23 H                     0.079839
     24 H                     0.231394
     25 H                     0.206794
     26 H                     0.234301
     27 H                     0.164341
     28 H                    -0.017169
     29 H                     0.103570
     30 H                     0.170642
     31 H                     0.191424
     32 H                     0.124777
     33 H                     0.089824
     34 H                     0.142632
     35 H                     0.344743
     36 H                     0.137027
  ----------------------------------------
  Sum of atomic charges =    -2.000000

                    Cartesian Multipole Moments
 -----------------------------------------------------------------
    Charge (ESU x 10^10)
                -9.6064
    Dipole Moment (Debye)
         X     -39.6410      Y      36.1044      Z     -14.4514
       Tot      55.5318
    Quadrupole Moments (Debye-Ang)
        XX    -304.9830     XY     167.0400     YY    -288.5826
        XZ     -59.8576     YZ      70.7104     ZZ    -179.1549

 Total job time:  1337.41s(wall), 9797.85s(cpu)
        *  Thank you very much for using Q-Chem.  Have a nice day.  *
