 Q-Chem 5.4, Q-Chem, Inc., Pleasanton, CA (2021)
 Q-Chem 5.4.0 for Intel X86 EM64T Linux

User input:
--------------------------------------------------------------
$molecule
-2 1
O                  1.6785220000      2.5044150000      0.4037070000
C                  1.4094960000      1.2579520000      0.2094230000
C                  0.0512110000      0.7205330000      0.2067770000
C                 -1.0310470000      1.6009060000      0.4267980000
C                 -2.3520640000      1.1817160000      0.4419720000
C                 -2.6511660000     -0.1945770000      0.2280050000
C                 -1.6251620000     -1.0925180000      0.0085650000
C                 -0.2600860000     -0.6952830000     -0.0132080000
C                  0.7834000000     -1.6335380000     -0.2406280000
O                  0.6857830000     -2.9366790000     -0.4552060000
C                  2.0784900000     -1.0793800000     -0.2310420000
O                  3.0875940000     -2.0142270000     -0.4553700000
C                  2.4005720000      0.2622720000     -0.0241960000
O                  3.7586810000      0.6136500000     -0.0528400000
H                 -0.7712050000      2.6440350000      0.5867760000
H                 -3.1551020000      1.8970320000      0.6157870000
H                 -3.6858420000     -0.5373150000      0.2374550000
H                 -1.8312950000     -2.1468320000     -0.1569420000
H                  2.5020060000     -2.8172160000     -0.5534390000
H                  4.2141350000     -0.2200000000     -0.2232610000
$end

$rem
BASIS  =  6-311++G(d,p)
GUI  =  2
JOB_TYPE  =  SP
METHOD  =  B3LYP
SCF_CONVERGENCE  = 8
SOLVENT_METHOD = sm12
$end

$smx
solvent dimethylformamide
charges CM5
$end

--------------------------------------------------------------

             Standard Nuclear Orientation (Angstroms)
    I     Atom           X                Y                Z
 ----------------------------------------------------------------
    1      O       1.6785220000     2.5044150000     0.4037070000
    2      C       1.4094960000     1.2579520000     0.2094230000
    3      C       0.0512110000     0.7205330000     0.2067770000
    4      C      -1.0310470000     1.6009060000     0.4267980000
    5      C      -2.3520640000     1.1817160000     0.4419720000
    6      C      -2.6511660000    -0.1945770000     0.2280050000
    7      C      -1.6251620000    -1.0925180000     0.0085650000
    8      C      -0.2600860000    -0.6952830000    -0.0132080000
    9      C       0.7834000000    -1.6335380000    -0.2406280000
   10      O       0.6857830000    -2.9366790000    -0.4552060000
   11      C       2.0784900000    -1.0793800000    -0.2310420000
   12      O       3.0875940000    -2.0142270000    -0.4553700000
   13      C       2.4005720000     0.2622720000    -0.0241960000
   14      O       3.7586810000     0.6136500000    -0.0528400000
   15      H      -0.7712050000     2.6440350000     0.5867760000
   16      H      -3.1551020000     1.8970320000     0.6157870000
   17      H      -3.6858420000    -0.5373150000     0.2374550000
   18      H      -1.8312950000    -2.1468320000    -0.1569420000
   19      H       2.5020060000    -2.8172160000    -0.5534390000
   20      H       4.2141350000    -0.2200000000    -0.2232610000
 ----------------------------------------------------------------

   17    -685.7378270205      9.79e-09  Convergence criterion met
 Total energy in the final basis set =     -686.0265813035

                    Orbital Energies (a.u.)
 --------------------------------------------------------------

 Alpha MOs
 -- Occupied --
-19.1317 -19.1288 -19.0364 -19.0229 -10.1938 -10.1923 -10.1867 -10.1785
-10.1726 -10.1694 -10.1692 -10.1673 -10.1547 -10.1518  -1.0466  -1.0213
 -0.9357  -0.9300  -0.8407  -0.7788  -0.7420  -0.7113  -0.6596  -0.6060
 -0.5983  -0.5566  -0.5359  -0.5057  -0.4813  -0.4602  -0.4409  -0.4236
 -0.4150  -0.4126  -0.3871  -0.3819  -0.3647  -0.3636  -0.3542  -0.3523
 -0.3392  -0.3177  -0.3095  -0.3058  -0.2471  -0.2341  -0.2215  -0.2004
 -0.1940  -0.1219

          Ground-State Mulliken Net Atomic Charges

     Atom                 Charge (a.u.)
  ----------------------------------------
      1 O                    -0.442041
      2 C                    -1.742938
      3 C                    -1.957833
      4 C                    -0.456419
      5 C                     1.158641
      6 C                     1.097094
      7 C                     0.041499
      8 C                    -1.294150
      9 C                    -1.385811
     10 O                    -0.417360
     11 C                     1.260014
     12 O                    -0.169147
     13 C                     0.873261
     14 O                    -0.168107
     15 H                     0.064019
     16 H                     0.353179
     17 H                     0.386090
     18 H                     0.115450
     19 H                     0.327959
     20 H                     0.356599
  ----------------------------------------
  Sum of atomic charges =    -2.000000

                    Cartesian Multipole Moments
 -----------------------------------------------------------------
    Charge (ESU x 10^10)
                -9.6064
    Dipole Moment (Debye)
         X      -7.6902      Y      -0.7165      Z      -0.4623
       Tot       7.7373
    Quadrupole Moments (Debye-Ang)
        XX    -124.8439     XY      -9.3289     YY    -140.2743
        XZ      -0.1743     YZ      -7.4850     ZZ     -94.2295

 Total job time:  284.92s(wall), 2218.35s(cpu)
        *  Thank you very much for using Q-Chem.  Have a nice day.  *
