 Q-Chem 5.4, Q-Chem, Inc., Pleasanton, CA (2021)
 Q-Chem 5.4.0 for Intel X86 EM64T Linux

User input:
--------------------------------------------------------------
$molecule
0 1
C                 -3.5547330000      5.6547810000      3.2995220000
C                 -2.5333270000      6.2269590000      4.0508360000
C                 -2.0512220000      5.5773810000      5.1900960000
C                 -4.0999390000      4.4275350000      3.6848010000
C                 -3.6155330000      3.7756930000      4.8268730000
C                 -2.5899420000      4.3549470000      5.5780200000
C                 -5.1967430000      3.8188760000      2.8802260000
C                 -5.7670420000      2.5074370000      3.3224840000
C                 -5.2791660000      1.8666850000      4.4131560000
C                 -4.1895380000      2.4649780000      5.2413630000
O                 -5.6215350000      4.3763020000      1.8794980000
O                 -3.7813520000      1.8881720000      6.2389790000
H                 -2.1110130000      7.1793960000      3.7511640000
H                 -1.2552630000      6.0263590000      5.7733370000
C                 -6.8842110000      1.9526240000      2.4816030000
H                 -3.9434880000      6.1412650000      2.4135450000
H                 -2.2313330000      3.8339570000      6.4571010000
H                 -6.5363910000      1.0997290000      1.8880290000
H                 -7.2476430000      2.7104810000      1.7899310000
H                 -7.7086330000      1.6054280000      3.1072470000
C                 -5.8132310000      0.5330200000      4.8920540000
C                 -6.9665350000      0.7015200000      5.8572060000
C                 -8.1583210000      0.0886880000      5.8407660000
C                 -9.1690340000      0.3777370000      6.9323060000
C                 -9.4245930000     -0.8130530000      7.8903040000
C                -10.4715120000     -0.4966640000      8.9224790000
C                -10.3365990000     -0.3945290000     10.2524280000
C                 -8.5923820000     -0.9171260000      4.8027830000
C                -11.5351130000     -0.0473270000     11.1126770000
C                -11.4718320000      1.3636710000     11.7502890000
C                -12.6521050000      1.6389270000     12.6404540000
C                -13.6188430000      2.5566520000     12.4966790000
C                 -9.0442170000     -0.6156470000     10.9998660000
C                -13.6887370000      3.5539340000     11.3658300000
C                -14.7346690000      2.6512780000     13.5179410000
C                -16.1211910000      2.2058610000     12.9881650000
C                -17.2036980000      2.3725960000     14.0184910000
C                -17.9487720000      1.4319170000     14.6163180000
C                -17.8513950000     -0.0464420000     14.3279570000
C                -18.9828190000      1.8262050000     15.6519450000
C                -18.6204820000      1.4107590000     17.1003940000
C                -19.7011410000      1.7686600000     18.0828900000
C                -19.6582780000      2.6416310000     19.0995300000
C                -18.4418070000      3.4496230000     19.4811040000
C                -20.8829850000      2.8616520000     19.9649040000
C                -21.5512090000      4.2476290000     19.7797920000
C                -22.7190430000      4.4448000000     20.7063310000
C                -24.0164960000      4.5970650000     20.4049210000
C                -24.5696340000      4.6261760000     19.0008480000
C                -25.0386840000      4.7686830000     21.5107090000
C                -25.9916260000      3.5599300000     21.6889140000
C                -27.0253210000      3.8017840000     22.7538050000
C                -27.1966100000      3.1582230000     23.9163220000
C                -26.3515020000      2.0051870000     24.3968350000
C                -28.3000500000      3.5575120000     24.8661670000
H                 -4.9998510000      0.0162740000      5.4101580000
H                 -6.0985190000     -0.0778980000      4.0356020000
H                 -6.7676260000      1.3967250000      6.6698980000
H                -10.1242730000      0.6659260000      6.4729180000
H                 -8.8354020000      1.2345720000      7.5241240000
H                 -8.4772170000     -1.1012460000      8.3512280000
H                 -9.7610790000     -1.6774710000      7.3050570000
H                -11.4659850000     -0.3191020000      8.5121520000
H                 -7.9034160000     -0.9905110000      3.9613550000
H                 -9.5816040000     -0.6587560000      4.4083890000
H                 -8.6815140000     -1.9184220000      5.2376900000
H                -11.6305020000     -0.7884280000     11.9178170000
H                -12.4485350000     -0.1169280000     10.5150240000
H                -11.3859500000      2.1048300000     10.9526080000
H                -10.5564870000      1.4449670000     12.3489840000
H                -12.7180170000      0.9854200000     13.5108230000
H                 -8.2159180000     -0.8938470000     10.3491360000
H                 -9.1673330000     -1.4094770000     11.7460490000
H                 -8.7447580000      0.2837060000     11.5482300000
H                -12.8477890000      3.4781260000     10.6773070000
H                -13.7087420000      4.5765610000     11.7607980000
H                -14.6063730000      3.4276520000     10.7815050000
H                -14.8151130000      3.6878800000     13.8724820000
H                -14.4854350000      2.0416570000     14.3912140000
H                -16.0484350000      1.1723160000     12.6424800000
H                -16.3793670000      2.8093890000     12.1095010000
H                -17.3840660000      3.4063750000     14.3147470000
H                -17.1172880000     -0.2840370000     13.5587480000
H                -18.8222620000     -0.4344450000     13.9976190000
H                -17.5808620000     -0.6091750000     15.2276980000
H                -19.9490670000      1.3731520000     15.3917460000
H                -19.1304040000      2.9097490000     15.6292930000
H                -17.6650870000      1.8681780000     17.3667610000
H                -18.4643790000      0.3256300000     17.1330400000
H                -20.6436030000      1.2441450000     17.9228020000
H                -17.5756860000      3.2391390000     18.8545720000
H                -18.1614400000      3.2473540000     20.5216400000
H                -18.6430120000      4.5241720000     19.4159830000
H                -20.6056780000      2.7481700000     21.0217300000
H                -21.6263520000      2.0877780000     19.7529630000
H                -21.8426430000      4.3586220000     18.7330200000
H                -20.8106780000      5.0314840000     19.9801800000
H                -22.4546370000      4.4514620000     21.7641710000
H                -23.7990910000      4.5318900000     18.2363790000
H                -25.1070310000      5.5651940000     18.8228260000
H                -25.2924270000      3.8187730000     18.8424710000
H                -25.6451670000      5.6620770000     21.3088750000
H                -24.5259920000      4.9483830000     22.4600170000
H                -25.3945080000      2.6703450000     21.9017120000
H                -26.5065230000      3.3666370000     20.7399190000
H                -27.7095620000      4.6224930000     22.5375100000
H                -25.5467490000      1.7435790000     23.7105200000
H                -26.9698920000      1.1122650000     24.5475670000
H                -25.9026280000      2.2392400000     25.3693250000
H                -28.8861670000      4.3936240000     24.4794310000
H                -27.8924650000      3.8480540000     25.8419030000
H                -28.9822770000      2.7188290000     25.0503320000
$end

$rem
SMX_GAS_PHASE = true
BASIS  =  6-311++G(d,p)
GUI  =  2
JOB_TYPE  =  SP
METHOD  =  B3LYP
SCF_CONVERGENCE  = 8
SOLVENT_METHOD = sm12
$end

$smx
solvent dimethylformamide
charges CM5
$end

--------------------------------------------------------------

             Standard Nuclear Orientation (Angstroms)
    I     Atom           X                Y                Z
 ----------------------------------------------------------------
    1      C      -3.5547330000     5.6547810000     3.2995220000
    2      C      -2.5333270000     6.2269590000     4.0508360000
    3      C      -2.0512220000     5.5773810000     5.1900960000
    4      C      -4.0999390000     4.4275350000     3.6848010000
    5      C      -3.6155330000     3.7756930000     4.8268730000
    6      C      -2.5899420000     4.3549470000     5.5780200000
    7      C      -5.1967430000     3.8188760000     2.8802260000
    8      C      -5.7670420000     2.5074370000     3.3224840000
    9      C      -5.2791660000     1.8666850000     4.4131560000
   10      C      -4.1895380000     2.4649780000     5.2413630000
   11      O      -5.6215350000     4.3763020000     1.8794980000
   12      O      -3.7813520000     1.8881720000     6.2389790000
   13      H      -2.1110130000     7.1793960000     3.7511640000
   14      H      -1.2552630000     6.0263590000     5.7733370000
   15      C      -6.8842110000     1.9526240000     2.4816030000
   16      H      -3.9434880000     6.1412650000     2.4135450000
   17      H      -2.2313330000     3.8339570000     6.4571010000
   18      H      -6.5363910000     1.0997290000     1.8880290000
   19      H      -7.2476430000     2.7104810000     1.7899310000
   20      H      -7.7086330000     1.6054280000     3.1072470000
   21      C      -5.8132310000     0.5330200000     4.8920540000
   22      C      -6.9665350000     0.7015200000     5.8572060000
   23      C      -8.1583210000     0.0886880000     5.8407660000
   24      C      -9.1690340000     0.3777370000     6.9323060000
   25      C      -9.4245930000    -0.8130530000     7.8903040000
   26      C     -10.4715120000    -0.4966640000     8.9224790000
   27      C     -10.3365990000    -0.3945290000    10.2524280000
   28      C      -8.5923820000    -0.9171260000     4.8027830000
   29      C     -11.5351130000    -0.0473270000    11.1126770000
   30      C     -11.4718320000     1.3636710000    11.7502890000
   31      C     -12.6521050000     1.6389270000    12.6404540000
   32      C     -13.6188430000     2.5566520000    12.4966790000
   33      C      -9.0442170000    -0.6156470000    10.9998660000
   34      C     -13.6887370000     3.5539340000    11.3658300000
   35      C     -14.7346690000     2.6512780000    13.5179410000
   36      C     -16.1211910000     2.2058610000    12.9881650000
   37      C     -17.2036980000     2.3725960000    14.0184910000
   38      C     -17.9487720000     1.4319170000    14.6163180000
   39      C     -17.8513950000    -0.0464420000    14.3279570000
   40      C     -18.9828190000     1.8262050000    15.6519450000
   41      C     -18.6204820000     1.4107590000    17.1003940000
   42      C     -19.7011410000     1.7686600000    18.0828900000
   43      C     -19.6582780000     2.6416310000    19.0995300000
   44      C     -18.4418070000     3.4496230000    19.4811040000
   45      C     -20.8829850000     2.8616520000    19.9649040000
   46      C     -21.5512090000     4.2476290000    19.7797920000
   47      C     -22.7190430000     4.4448000000    20.7063310000
   48      C     -24.0164960000     4.5970650000    20.4049210000
   49      C     -24.5696340000     4.6261760000    19.0008480000
   50      C     -25.0386840000     4.7686830000    21.5107090000
   51      C     -25.9916260000     3.5599300000    21.6889140000
   52      C     -27.0253210000     3.8017840000    22.7538050000
   53      C     -27.1966100000     3.1582230000    23.9163220000
   54      C     -26.3515020000     2.0051870000    24.3968350000
   55      C     -28.3000500000     3.5575120000    24.8661670000
   56      H      -4.9998510000     0.0162740000     5.4101580000
   57      H      -6.0985190000    -0.0778980000     4.0356020000
   58      H      -6.7676260000     1.3967250000     6.6698980000
   59      H     -10.1242730000     0.6659260000     6.4729180000
   60      H      -8.8354020000     1.2345720000     7.5241240000
   61      H      -8.4772170000    -1.1012460000     8.3512280000
   62      H      -9.7610790000    -1.6774710000     7.3050570000
   63      H     -11.4659850000    -0.3191020000     8.5121520000
   64      H      -7.9034160000    -0.9905110000     3.9613550000
   65      H      -9.5816040000    -0.6587560000     4.4083890000
   66      H      -8.6815140000    -1.9184220000     5.2376900000
   67      H     -11.6305020000    -0.7884280000    11.9178170000
   68      H     -12.4485350000    -0.1169280000    10.5150240000
   69      H     -11.3859500000     2.1048300000    10.9526080000
   70      H     -10.5564870000     1.4449670000    12.3489840000
   71      H     -12.7180170000     0.9854200000    13.5108230000
   72      H      -8.2159180000    -0.8938470000    10.3491360000
   73      H      -9.1673330000    -1.4094770000    11.7460490000
   74      H      -8.7447580000     0.2837060000    11.5482300000
   75      H     -12.8477890000     3.4781260000    10.6773070000
   76      H     -13.7087420000     4.5765610000    11.7607980000
   77      H     -14.6063730000     3.4276520000    10.7815050000
   78      H     -14.8151130000     3.6878800000    13.8724820000
   79      H     -14.4854350000     2.0416570000    14.3912140000
   80      H     -16.0484350000     1.1723160000    12.6424800000
   81      H     -16.3793670000     2.8093890000    12.1095010000
   82      H     -17.3840660000     3.4063750000    14.3147470000
   83      H     -17.1172880000    -0.2840370000    13.5587480000
   84      H     -18.8222620000    -0.4344450000    13.9976190000
   85      H     -17.5808620000    -0.6091750000    15.2276980000
   86      H     -19.9490670000     1.3731520000    15.3917460000
   87      H     -19.1304040000     2.9097490000    15.6292930000
   88      H     -17.6650870000     1.8681780000    17.3667610000
   89      H     -18.4643790000     0.3256300000    17.1330400000
   90      H     -20.6436030000     1.2441450000    17.9228020000
   91      H     -17.5756860000     3.2391390000    18.8545720000
   92      H     -18.1614400000     3.2473540000    20.5216400000
   93      H     -18.6430120000     4.5241720000    19.4159830000
   94      H     -20.6056780000     2.7481700000    21.0217300000
   95      H     -21.6263520000     2.0877780000    19.7529630000
   96      H     -21.8426430000     4.3586220000    18.7330200000
   97      H     -20.8106780000     5.0314840000    19.9801800000
   98      H     -22.4546370000     4.4514620000    21.7641710000
   99      H     -23.7990910000     4.5318900000    18.2363790000
  100      H     -25.1070310000     5.5651940000    18.8228260000
  101      H     -25.2924270000     3.8187730000    18.8424710000
  102      H     -25.6451670000     5.6620770000    21.3088750000
  103      H     -24.5259920000     4.9483830000    22.4600170000
  104      H     -25.3945080000     2.6703450000    21.9017120000
  105      H     -26.5065230000     3.3666370000    20.7399190000
  106      H     -27.7095620000     4.6224930000    22.5375100000
  107      H     -25.5467490000     1.7435790000    23.7105200000
  108      H     -26.9698920000     1.1122650000    24.5475670000
  109      H     -25.9026280000     2.2392400000    25.3693250000
  110      H     -28.8861670000     4.3936240000    24.4794310000
  111      H     -27.8924650000     3.8480540000    25.8419030000
  112      H     -28.9822770000     2.7188290000    25.0503320000
 ----------------------------------------------------------------

   14   -1942.3325409261      8.24e-09  Convergence criterion met
 Total energy in the final basis set =    -1942.3325409261
   10   -1942.3310855693      4.04e-09  Convergence criterion met
 Total energy in the final basis set =    -1942.3679302976

                    Orbital Energies (a.u.)
 --------------------------------------------------------------

 Alpha MOs
 -- Occupied --
-19.1305 -19.1299 -10.2789 -10.2784 -10.2128 -10.2103 -10.2057 -10.2052
-10.1965 -10.1962 -10.1958 -10.1956 -10.1817 -10.1801 -10.1788 -10.1769
-10.1768 -10.1768 -10.1768 -10.1768 -10.1713 -10.1712 -10.1710 -10.1710
-10.1710 -10.1709 -10.1709 -10.1701 -10.1701 -10.1701 -10.1701 -10.1700
-10.1697 -10.1696 -10.1642 -10.1642 -10.1635 -10.1634 -10.1634 -10.1634
-10.1634 -10.1634 -10.1633 -10.1633 -10.1632 -10.1632 -10.1632 -10.1623
 -1.0642  -1.0622  -0.8885  -0.8544  -0.8344  -0.8323  -0.8287  -0.8240
 -0.8182  -0.8118  -0.8066  -0.7888  -0.7792  -0.7761  -0.7711  -0.7618
 -0.7519  -0.7420  -0.7325  -0.7253  -0.7094  -0.6940  -0.6911  -0.6905
 -0.6892  -0.6866  -0.6824  -0.6789  -0.6733  -0.6632  -0.6454  -0.6343
 -0.6270  -0.6173  -0.6084  -0.6004  -0.5927  -0.5875  -0.5825  -0.5501
 -0.5265  -0.5257  -0.5244  -0.5221  -0.5193  -0.5183  -0.5164  -0.5148
 -0.4972  -0.4831  -0.4824  -0.4819  -0.4810  -0.4799  -0.4749  -0.4680
 -0.4641  -0.4600  -0.4553  -0.4531  -0.4502  -0.4497  -0.4480  -0.4447
 -0.4402  -0.4392  -0.4355  -0.4329  -0.4327  -0.4239  -0.4217  -0.4212
 -0.4186  -0.4177  -0.4165  -0.4139  -0.4127  -0.4100  -0.4084  -0.4057
 -0.4054  -0.4040  -0.4025  -0.3977  -0.3944  -0.3918  -0.3856  -0.3846
 -0.3764  -0.3762  -0.3760  -0.3754  -0.3750  -0.3742  -0.3734  -0.3727
 -0.3722  -0.3698  -0.3688  -0.3671  -0.3662  -0.3644  -0.3635  -0.3601
 -0.3595  -0.3570  -0.3517  -0.3440  -0.3411  -0.3389  -0.3383  -0.3340
 -0.3324  -0.3314  -0.3302  -0.3236  -0.3170  -0.3125  -0.2894  -0.2867
 -0.2769  -0.2743  -0.2706  -0.2548  -0.2521  -0.2481  -0.2428  -0.2368
 -0.2309  -0.2265

          Ground-State Mulliken Net Atomic Charges

     Atom                 Charge (a.u.)
  ----------------------------------------
      1 C                     0.109804
      2 C                     0.295410
      3 C                     0.294817
      4 C                    -0.636691
      5 C                    -0.242678
      6 C                    -0.025436
      7 C                    -1.572271
      8 C                     0.605978
      9 C                     1.206711
     10 C                    -1.622609
     11 O                    -0.270492
     12 O                    -0.252352
     13 H                     0.318792
     14 H                     0.320020
     15 C                     0.018360
     16 H                     0.191407
     17 H                     0.191674
     18 H                     0.250107
     19 H                     0.172925
     20 H                     0.231498
     21 C                     0.196744
     22 C                    -1.658315
     23 C                     1.400718
     24 C                    -0.659851
     25 C                    -0.167898
     26 C                    -0.537939
     27 C                     0.242938
     28 C                    -0.184548
     29 C                    -0.340370
     30 C                    -0.161680
     31 C                    -0.515899
     32 C                     0.174026
     33 C                    -0.540118
     34 C                    -0.492460
     35 C                    -0.217112
     36 C                    -0.189978
     37 C                    -0.515786
     38 C                     0.205466
     39 C                    -0.472379
     40 C                    -0.244560
     41 C                    -0.147185
     42 C                    -0.587563
     43 C                     0.221883
     44 C                    -0.490526
     45 C                    -0.198808
     46 C                    -0.086034
     47 C                    -0.379212
     48 C                     0.169769
     49 C                    -0.521050
     50 C                    -0.440319
     51 C                    -0.165182
     52 C                    -0.145014
     53 C                    -0.103307
     54 C                    -0.500206
     55 C                    -0.436663
     56 H                     0.193529
     57 H                     0.255132
     58 H                     0.143049
     59 H                     0.160123
     60 H                     0.145702
     61 H                     0.113663
     62 H                     0.131249
     63 H                     0.180704
     64 H                     0.186820
     65 H                     0.181571
     66 H                     0.188366
     67 H                     0.131312
     68 H                     0.159861
     69 H                     0.093024
     70 H                     0.120824
     71 H                     0.184678
     72 H                     0.138690
     73 H                     0.175011
     74 H                     0.180358
     75 H                     0.157305
     76 H                     0.174989
     77 H                     0.184176
     78 H                     0.135176
     79 H                     0.161527
     80 H                     0.088463
     81 H                     0.123892
     82 H                     0.182193
     83 H                     0.158779
     84 H                     0.175688
     85 H                     0.183783
     86 H                     0.136969
     87 H                     0.158429
     88 H                     0.084250
     89 H                     0.124923
     90 H                     0.177734
     91 H                     0.158931
     92 H                     0.176273
     93 H                     0.184094
     94 H                     0.129750
     95 H                     0.167239
     96 H                     0.093725
     97 H                     0.119553
     98 H                     0.200579
     99 H                     0.157251
    100 H                     0.177618
    101 H                     0.187095
    102 H                     0.135910
    103 H                     0.149676
    104 H                     0.087265
    105 H                     0.121994
    106 H                     0.176435
    107 H                     0.167365
    108 H                     0.163590
    109 H                     0.164497
    110 H                     0.176726
    111 H                     0.170922
    112 H                     0.165019
  ----------------------------------------
  Sum of atomic charges =     0.000000

                    Cartesian Multipole Moments
 -----------------------------------------------------------------
    Charge (ESU x 10^10)
                 0.0000
    Dipole Moment (Debye)
         X       0.2781      Y       0.0413      Z       0.2539
       Tot       0.3788
    Quadrupole Moments (Debye-Ang)
        XX    -291.7886     XY      18.1860     YY    -289.0849
        XZ      -4.7615     YZ       4.7168     ZZ    -298.4269

 Total job time:  14923.49s(wall), 52465.74s(cpu)
        *  Thank you very much for using Q-Chem.  Have a nice day.  *
