 Q-Chem 5.4, Q-Chem, Inc., Pleasanton, CA (2021)
 Q-Chem 5.4.0 for Intel X86 EM64T Linux

User input:
--------------------------------------------------------------
$molecule
-1 2
C                 -3.2802860000      3.5961180000      0.0854890000
C                 -4.5065600000      2.9561540000      0.0920170000
C                 -4.5474780000      1.5437100000      0.0687320000
C                 -2.0667310000      2.8839230000      0.0563890000
C                 -2.1207910000      1.4569750000      0.0330700000
C                 -3.3747250000      0.8153750000      0.0398470000
C                 -0.8037610000      3.6218430000      0.0509810000
C                  0.4121070000      2.8067370000      0.0199520000
C                  0.3580470000      1.3797890000     -0.0033660000
C                 -0.9049210000      0.6418660000      0.0021970000
C                  1.6660380000      3.4483400000      0.0130270000
C                  2.8387890000      2.7200060000     -0.0160030000
C                  2.7978720000      1.3075620000     -0.0392900000
C                  1.5716000000      0.6675970000     -0.0326190000
O                 -0.7634140000      4.8784560000      0.0716210000
O                 -0.9452710000     -0.6147420000     -0.0187030000
H                 -3.4014950000     -0.2672890000      0.0218720000
H                  1.5131170000     -0.4147870000     -0.0500360000
H                 -3.2218020000      4.6785010000      0.1029120000
H                  1.6928090000      4.5310030000      0.0310110000
O                  4.0179180000      3.4477520000     -0.0209500000
O                 -5.7266090000      0.8159650000      0.0735280000
C                 -6.9482170000      1.5219910000      0.0951480000
C                  5.2395230000      2.7417190000     -0.0424940000
H                 -5.4155630000      3.5440120000      0.1148470000
H                  3.7068750000      0.7197080000     -0.0622360000
H                 -7.7345910000      0.7656680000      0.0916220000
H                 -7.0670090000      2.1646790000     -0.7868080000
H                 -7.0506030000      2.1389250000      0.9973430000
H                  6.0259010000      3.4980400000     -0.0390020000
H                  5.3419320000      2.1247240000     -0.9446440000
H                  5.3582880000      2.0990900000      0.8395080000
$end
$rem
MAX_SCF_CYCLES=200
BASIS  =  6-311++G(d,p)
GUI  =  2
JOB_TYPE  =  SP
METHOD  =  B3LYP
SOLVENT_METHOD = COSMO
$end
$solvent
dielectric 37.219
opticaldielectric 1.43
$end

--------------------------------------------------------------

             Standard Nuclear Orientation (Angstroms)
    I     Atom           X                Y                Z
 ----------------------------------------------------------------
    1      C       2.2613237028    -1.7085549246     0.0011789365
    2      C       3.5474082987    -1.1993098813     0.0017765618
    3      C       3.7344812017     0.2014821285     0.0018110944
    4      C       1.1280164369    -0.8740498779     0.0006948236
    5      C       1.3296649347     0.5398046878     0.0007610471
    6      C       2.6434308953     1.0478063791     0.0012575545
    7      C      -0.2047207822    -1.4769259005     0.0000624064
    8      C      -1.3296659294    -0.5398060642    -0.0005792890
    9      C      -1.1280174197     0.8740484833    -0.0005120657
   10      C       0.2047199553     1.4769248713     0.0002753930
   11      C      -2.6434309685    -1.0478083520    -0.0012238530
   12      C      -3.7344811048    -0.2014826602    -0.0019224029
   13      C      -3.5474092200     1.1993094897    -0.0018898562
   14      C      -2.2613248178     1.7085531281    -0.0011492205
   15      O      -0.3750771313    -2.7227625003     0.0000095192
   16      O       0.3750756934     2.7227609270     0.0000682161
   17      H       2.7822549430     2.1220172303     0.0012201686
   18      H      -2.0909838805     2.7791897121    -0.0010665267
   19      H       2.0909819458    -2.7791905198     0.0011022718
   20      H      -2.7822558004    -2.1220182692    -0.0011774387
   21      O      -4.9827745573    -0.8029359491    -0.0030668590
   22      O       4.9827747533     0.8029369680     0.0028045419
   23      C       6.1246429773    -0.0261313067    -0.0041952798
   24      C      -6.1246381719     0.0261375907     0.0040090220
   25      H       4.3906668522    -1.8785001908     0.0022524708
   26      H      -4.3906695609     1.8784979357    -0.0024818054
   27      H       6.9851988155     0.6445865467    -0.0056755663
   28      H       6.1656218281    -0.6614853629    -0.8984277705
   29      H       6.1730836801    -0.6666943474     0.8859613135
   30      H      -6.9851981828    -0.6445772396     0.0054554050
   31      H      -6.1730948829     0.6667628557    -0.8861012368
   32      H      -6.1655957524     0.6614293385     0.8982861361
 ----------------------------------------------------------------

   10    -918.1266737959      9.89e-06  Convergence criterion met
 Total energy in the final basis set =     -918.1266737959
    4    -918.2181220302      9.45e-06  Convergence criterion met
 Total energy in the final basis set =     -918.2181220302

                    Orbital Energies (a.u.)
 --------------------------------------------------------------

 Alpha MOs
 -- Occupied --
-19.1561 -19.1561 -19.0785 -19.0785 -10.2366 -10.2366 -10.2256 -10.2256
-10.2150 -10.2150 -10.1761 -10.1761 -10.1757 -10.1757 -10.1747 -10.1747
-10.1702 -10.1702 -10.1671 -10.1671  -1.0674  -1.0674  -1.0058  -1.0034
 -0.8636  -0.8533  -0.7878  -0.7623  -0.7599  -0.7449  -0.7021  -0.6997
 -0.6528  -0.6448  -0.6029  -0.5975  -0.5619  -0.5443  -0.5360  -0.5132
 -0.4915  -0.4853  -0.4713  -0.4676  -0.4673  -0.4542  -0.4357  -0.4257
 -0.4248  -0.4238  -0.4223  -0.4146  -0.4055  -0.3961  -0.3842  -0.3796
 -0.3716  -0.3644  -0.3634  -0.3551  -0.3326  -0.3286  -0.3210  -0.3127
 -0.2670  -0.2575  -0.2504  -0.2412  -0.2410  -0.2283  -0.1400

 Beta MOs
 -- Occupied --
-19.1558 -19.1558 -19.0732 -19.0732 -10.2360 -10.2360 -10.2237 -10.2236
-10.2150 -10.2150 -10.1755 -10.1755 -10.1751 -10.1751 -10.1746 -10.1746
-10.1698 -10.1698 -10.1669 -10.1669  -1.0667  -1.0667  -0.9966  -0.9940
 -0.8610  -0.8522  -0.7841  -0.7602  -0.7586  -0.7432  -0.6994  -0.6991
 -0.6469  -0.6432  -0.6008  -0.5966  -0.5596  -0.5432  -0.5343  -0.5117
 -0.4903  -0.4846  -0.4690  -0.4665  -0.4662  -0.4531  -0.4342  -0.4253
 -0.4237  -0.4183  -0.4136  -0.4113  -0.4028  -0.3948  -0.3774  -0.3712
 -0.3625  -0.3607  -0.3567  -0.3539  -0.3323  -0.3277  -0.3184  -0.3025
 -0.2553  -0.2490  -0.2456  -0.2363  -0.2322  -0.2225

          Ground-State Mulliken Net Atomic Charges

     Atom                 Charge (a.u.)    Spin (a.u.)
  --------------------------------------------------------
      1 C                    -0.011922       0.031769
      2 C                     0.078742       0.012698
      3 C                    -0.783301       0.031703
      4 C                     0.513392       0.009937
      5 C                     0.667033       0.062798
      6 C                    -0.537230       0.039472
      7 C                    -0.483275       0.118621
      8 C                     0.666789       0.062796
      9 C                     0.514072       0.009900
     10 C                    -0.483096       0.118699
     11 C                    -0.537053       0.039448
     12 C                    -0.783346       0.031711
     13 C                     0.078625       0.012671
     14 C                    -0.012039       0.031793
     15 O                    -0.499155       0.191701
     16 O                    -0.499367       0.191690
     17 H                     0.186560      -0.002856
     18 H                     0.183214      -0.001723
     19 H                     0.183228      -0.001722
     20 H                     0.186591      -0.002855
     21 O                    -0.232240       0.006918
     22 O                    -0.232194       0.006918
     23 C                    -0.368579      -0.000216
     24 C                    -0.368527      -0.000216
     25 H                     0.240863      -0.001850
     26 H                     0.240852      -0.001849
     27 H                     0.201357      -0.000034
     28 H                     0.172309       0.000530
     29 H                     0.172016       0.000524
     30 H                     0.201361      -0.000034
     31 H                     0.172035       0.000524
     32 H                     0.172271       0.000530
  --------------------------------------------------------
  Sum of atomic charges =    -1.000014

                    Cartesian Multipole Moments
 -----------------------------------------------------------------
    Charge (ESU x 10^10)
                -4.8033
    Dipole Moment (Debye)
         X      -0.0003      Y      -0.0005      Z      -0.0001
       Tot       0.0006
    Quadrupole Moments (Debye-Ang)
        XX     -88.3585     XY     -23.6369     YY    -156.1044
        XZ      -0.1192     YZ      -0.0184     ZZ    -122.5963

 Total job time:  136.39s(wall), 1008.31s(cpu)
        *  Thank you very much for using Q-Chem.  Have a nice day.  *
