 Gaussian 16, Revision A.03,
 Gaussian 16:  ES64L-G16RevA.03 25-Dec-2016

 --------------------------------------
 #P UB3LYP/6-311++G(d,p) nosym opt freq
 --------------------------------------

 -------
 Radical
 -------
 Symbolic Z-matrix:
 Charge = -1 Multiplicity = 2

 SCF Done:  E(UB3LYP) =  -1148.63542479     A.U. after   25 cycles
 SCF Done:  E(UB3LYP) =  -1148.64813733     A.U. after   19 cycles
 SCF Done:  E(UB3LYP) =  -1148.64863402     A.U. after   17 cycles
 SCF Done:  E(UB3LYP) =  -1148.64868358     A.U. after   16 cycles
 SCF Done:  E(UB3LYP) =  -1148.64868795     A.U. after   13 cycles
 SCF Done:  E(UB3LYP) =  -1148.64868832     A.U. after   11 cycles
 Optimization completed.
    -- Stationary point found.
 Normal termination of Gaussian 16 at Thu Dec 21 06:08:28 2023.

 ----------------------------------------------------------------------
 #P Geom=AllCheck Guess=TCheck SCRF=Check GenChk UB3LYP/6-311++G(d,p) F
 req
 ----------------------------------------------------------------------

 Structure from the checkpoint file:  "118-rad.chk"
 -------
 Radical
 -------
 Charge = -1 Multiplicity = 2

                          Input orientation:
 ---------------------------------------------------------------------
 Center     Atomic      Atomic             Coordinates (Angstroms)
 Number     Number       Type             X           Y           Z
 ---------------------------------------------------------------------
      1         17           0        5.197250   -1.484792   -0.004400
      2          6           0        3.633412   -0.645057   -0.149254
      3          6           0        3.641355    0.724409   -0.480614
      4          6           0        2.432416    1.379366   -0.593989
      5          6           0        1.205424    0.713230   -0.387336
      6          6           0       -0.044908    1.460979   -0.521612
      7          8           0       -0.060997    2.681424   -0.815358
      8          6           0       -1.275757    0.699868   -0.291269
      9          6           0       -2.521024    1.356121   -0.402984
     10          6           0       -3.707049    0.680892   -0.195232
     11          6           0       -3.686462   -0.691853    0.135766
     12          6           0       -2.481277   -1.354767    0.250674
     13          6           0       -1.254736   -0.685403    0.042731
     14          6           0       -0.003129   -1.433995    0.176534
     15          8           0        0.017175   -2.654740    0.471492
     16          6           0        1.224786   -0.672525   -0.053111
     17          6           0        2.467420   -1.337408    0.061418
     18          1           0        4.580045    1.240602   -0.640335
     19          1           0        2.391878    2.432565   -0.847171
     20          1           0       -2.506225    2.409545   -0.658110
     21          1           0       -4.655020    1.202879   -0.285723
     22          1           0       -4.618848   -1.224107    0.299492
     23          1           0       -2.435871   -2.407802    0.503559
     24          1           0        2.460142   -2.389431    0.315969
 ---------------------------------------------------------------------

 SCF Done:  E(UB3LYP) =  -1148.64868832     A.U. after    2 cycles

 Alpha  occ. eigenvalues -- -101.44894 -18.95390 -18.95337 -10.12386 -10.10436
 Alpha  occ. eigenvalues --  -10.10332 -10.07307 -10.06618 -10.06554 -10.06468
 Alpha  occ. eigenvalues --  -10.06417 -10.06248 -10.05906 -10.05781 -10.05767
 Alpha  occ. eigenvalues --  -10.05724 -10.05684  -9.36349  -7.12766  -7.11854
 Alpha  occ. eigenvalues --   -7.11830  -0.88108  -0.87827  -0.77900  -0.74386
 Alpha  occ. eigenvalues --   -0.72583  -0.66798  -0.64310  -0.63692  -0.62080
 Alpha  occ. eigenvalues --   -0.55220  -0.52804  -0.50219  -0.48044  -0.44426
 Alpha  occ. eigenvalues --   -0.42367  -0.41220  -0.36131  -0.36036  -0.35141
 Alpha  occ. eigenvalues --   -0.34418  -0.32036  -0.31093  -0.30662  -0.29955
 Alpha  occ. eigenvalues --   -0.29154  -0.29011  -0.27672  -0.27420  -0.25763
 Alpha  occ. eigenvalues --   -0.24369  -0.24051  -0.23844  -0.22154  -0.21350
 Alpha  occ. eigenvalues --   -0.21131  -0.15153  -0.14644  -0.14140  -0.13382
 Alpha  occ. eigenvalues --   -0.12355  -0.11517  -0.02313
 Alpha virt. eigenvalues --    0.05866   0.07974   0.08692   0.08883   0.09928
 Alpha virt. eigenvalues --    0.10109   0.10563   0.11251   0.11985   0.12937
 Alpha virt. eigenvalues --    0.13852   0.14451   0.15225   0.15248   0.16500

  Beta  occ. eigenvalues -- -101.44893 -18.94802 -18.94720 -10.12325 -10.10312
  Beta  occ. eigenvalues --  -10.10198 -10.07247 -10.06628 -10.06576 -10.06422
  Beta  occ. eigenvalues --  -10.06368 -10.06136 -10.05806 -10.05789 -10.05761
  Beta  occ. eigenvalues --  -10.05655 -10.05600  -9.36348  -7.12768  -7.11847
  Beta  occ. eigenvalues --   -7.11829  -0.87094  -0.86767  -0.77796  -0.74166
  Beta  occ. eigenvalues --   -0.72448  -0.66430  -0.64114  -0.63526  -0.61881
  Beta  occ. eigenvalues --   -0.54500  -0.52644  -0.49960  -0.47983  -0.44210
  Beta  occ. eigenvalues --   -0.42152  -0.41074  -0.35993  -0.35816  -0.34970
  Beta  occ. eigenvalues --   -0.34325  -0.32010  -0.31064  -0.29806  -0.29664
  Beta  occ. eigenvalues --   -0.28765  -0.28663  -0.27165  -0.27086  -0.24306
  Beta  occ. eigenvalues --   -0.23701  -0.23677  -0.23311  -0.21966  -0.21322
  Beta  occ. eigenvalues --   -0.20242  -0.14477  -0.13305  -0.12844  -0.12541
  Beta  occ. eigenvalues --   -0.11796  -0.10954
  Beta virt. eigenvalues --    0.03659   0.06660   0.07967   0.08874   0.09777
  Beta virt. eigenvalues --    0.09922   0.10128   0.10756   0.11253   0.11996
  Beta virt. eigenvalues --    0.12922   0.13845   0.14656   0.15243   0.15373

 Mulliken charges and spin densities:
               1          2
     1  Cl   0.423600   0.002304
     2  C    0.675217   0.034137
     3  C   -0.503517   0.051493
     4  C    0.036946   0.010329
     5  C    0.098732   0.054369
     6  C   -0.810196   0.062469
     7  O   -0.363894   0.218992
     8  C    0.204311   0.039372
     9  C    0.111350   0.015016
    10  C   -0.389514   0.040839
    11  C   -0.384810   0.033753
    12  C    0.085776   0.020663
    13  C    0.286646   0.041978
    14  C   -0.792515   0.069448
    15  O   -0.364846   0.230246
    16  C   -0.069754   0.077070
    17  C   -0.311653   0.012591
    18  H    0.149790  -0.003990
    19  H    0.166410  -0.000701
    20  H    0.159757  -0.001061
    21  H    0.125393  -0.003396
    22  H    0.126030  -0.002931
    23  H    0.157197  -0.001530
    24  H    0.183545  -0.001462
 Sum of Mulliken charges =  -1.00000   1.00000

 Dipole moment (field-independent basis, Debye):
    X=             -2.6567    Y=              1.0897    Z=              0.6497  Tot=              2.9441
 Quadrupole moment (field-independent basis, Debye-Ang):
   XX=           -133.8227   YY=           -136.5735   ZZ=           -112.9651
   XY=              7.2372   XZ=             -0.4678   YZ=              5.6012

  Exact polarizability: 355.842 -12.718 215.112  -6.606 -28.108 103.924
 Approx polarizability: 511.112 -11.921 411.259 -10.474 -61.787 169.113

                      1                      2                      3
                      A                      A                      A
 Frequencies --     45.2553                91.4707               130.7822
 Red. masses --      9.0073                 6.2343                 4.9730
 Frc consts  --      0.0109                 0.0307                 0.0501
 IR Inten    --      3.1279                 3.3624                 0.7720

                      4                      5                      6
                      A                      A                      A
 Frequencies --    152.1563               158.3831               197.3668
 Red. masses --     10.9241                 6.7995                 6.1704
 Frc consts  --      0.1490                 0.1005                 0.1416
 IR Inten    --      0.7973                 2.1400                 0.3261

                      7                      8                      9
                      A                      A                      A
 Frequencies --    262.0120               285.3775               294.4807
 Red. masses --      7.1818                 6.4412                11.3080
 Frc consts  --      0.2905                 0.3091                 0.5778
 IR Inten    --      2.5880                 0.3988                 0.7140

                     10                     11                     12
                      A                      A                      A
 Frequencies --    351.8428               378.6305               420.1307
 Red. masses --      6.9058                10.8121                 3.7392
 Frc consts  --      0.5037                 0.9133                 0.3889
 IR Inten    --      2.1088                 4.3899                 1.4390

                     13                     14                     15
                      A                      A                      A
 Frequencies --    421.5578               434.1559               467.4765
 Red. masses --      7.1988                 5.4227                 3.1545
 Frc consts  --      0.7537                 0.6022                 0.4062
 IR Inten    --      3.9558                 1.7985                 0.0000

                     16                     17                     18
                      A                      A                      A
 Frequencies --    477.9717               513.6610               525.9404
 Red. masses --     11.2507                 8.8333                 4.6793
 Frc consts  --      1.5144                 1.3732                 0.7626
 IR Inten    --      5.5506                13.2509                 4.0915

                     19                     20                     21
                      A                      A                      A
 Frequencies --    637.3987               640.8196               648.0403
 Red. masses --      6.9827                 4.5032                 7.0138
 Frc consts  --      1.6715                 1.0895                 1.7354
 IR Inten    --     13.6748                 3.4187                18.2488

                     22                     23                     24
                      A                      A                      A
 Frequencies --    695.7216               705.3384               705.3798
 Red. masses --      6.5713                 2.3669                 7.2536
 Frc consts  --      1.8740                 0.6938                 2.1264
 IR Inten    --      1.7146                71.2443                27.2961

                     25                     26                     27
                      A                      A                      A
 Frequencies --    727.1424               778.0366               794.5081
 Red. masses --      4.5635                 1.5972                 2.2413
 Frc consts  --      1.4216                 0.5697                 0.8336
 IR Inten    --      0.0190                 5.4635                15.9294

                     28                     29                     30
                      A                      A                      A
 Frequencies --    821.5230               822.6445               872.5903
 Red. masses --      2.3448                 6.7650                 1.5362
 Frc consts  --      0.9324                 2.6974                 0.6892
 IR Inten    --     15.6678                41.2563                 0.0736

                     31                     32                     33
                      A                      A                      A
 Frequencies --    924.9986               936.3753               958.0576
 Red. masses --      1.4093                 6.5630                 6.6517
 Frc consts  --      0.7105                 3.3904                 3.5972
 IR Inten    --     10.9379                26.1852                23.8363

                     34                     35                     36
                      A                      A                      A
 Frequencies --    980.1076               984.9204               985.9611
 Red. masses --      1.3132                 1.3684                 1.2726
 Frc consts  --      0.7432                 0.7821                 0.7289
 IR Inten    --      0.1037                 4.3632                 0.0014

                     37                     38                     39
                      A                      A                      A
 Frequencies --   1038.0778              1070.2672              1109.9147
 Red. masses --      2.0181                 1.9694                 2.1795
 Frc consts  --      1.2813                 1.3291                 1.5819
 IR Inten    --     28.9927                11.8444                17.8380

                     40                     41                     42
                      A                      A                      A
 Frequencies --   1118.9201              1148.1925              1177.2885
 Red. masses --      1.8208                 1.4420                 3.3765
 Frc consts  --      1.3431                 1.1201                 2.7573
 IR Inten    --     26.5571                13.8286                 3.4555

                     43                     44                     45
                      A                      A                      A
 Frequencies --   1192.0428              1218.3643              1221.0121
 Red. masses --      2.2566                 1.6335                 2.5088
 Frc consts  --      1.8892                 1.4286                 2.2037
 IR Inten    --      1.7883                 7.1616                25.2177

                     46                     47                     48
                      A                      A                      A
 Frequencies --   1255.0057              1325.4439              1358.3265
 Red. masses --      1.7545                 2.3159                11.1789
 Frc consts  --      1.6282                 2.3972                12.1523
 IR Inten    --     65.0713                28.6691                22.0344

                     49                     50                     51
                      A                      A                      A
 Frequencies --   1360.3406              1404.3632              1455.3520
 Red. masses --      9.9033                 3.2224                 2.5694
 Frc consts  --     10.7976                 3.7444                 3.2064
 IR Inten    --      2.7456               246.3835               128.7131

                     52                     53                     54
                      A                      A                      A
 Frequencies --   1476.0380              1485.3796              1519.6008
 Red. masses --      3.3372                 2.7967                 5.4402
 Frc consts  --      4.2838                 3.6356                 7.4015
 IR Inten    --     69.9800                 3.9253               587.8067

                     55                     56                     57
                      A                      A                      A
 Frequencies --   1533.3333              1554.1881              1606.0842
 Red. masses --      8.9950                 5.9933                 6.6329
 Frc consts  --     12.4602                 8.5294                10.0806
 IR Inten    --     12.0923                57.2982                61.3510

                     58                     59                     60
                      A                      A                      A
 Frequencies --   1617.0619              1629.8986              3135.5987
 Red. masses --      8.9343                 6.4168                 1.0848
 Frc consts  --     13.7646                10.0437                 6.2838
 IR Inten    --      3.3523                19.2615                17.4415

                     61                     62                     63
                      A                      A                      A
 Frequencies --   3154.4681              3175.6244              3182.6504
 Red. masses --      1.0911                 1.0865                 1.0914
 Frc consts  --      6.3969                 6.4555                 6.5136
 IR Inten    --     49.6400                 0.4308                 9.5249

                     64                     65                     66
                      A                      A                      A
 Frequencies --   3185.1870              3191.2861              3202.1007
 Red. masses --      1.0930                 1.0946                 1.0907
 Frc consts  --      6.5334                 6.5679                 6.5891
 IR Inten    --     33.5719                14.5818                 6.3118

 - Thermochemistry -
 -------------------
 Temperature   298.150 Kelvin.  Pressure   1.00000 Atm.
 Atom     1 has atomic number 17 and mass  34.96885

 Molecular mass:   242.01346 amu.
 Principal axes and moments of inertia in atomic units:
                           1         2         3
     Eigenvalues --  1782.793537004.666598787.45996
           X            0.98765   0.15242   0.03628
           Y           -0.15668   0.95933   0.23482
           Z            0.00099  -0.23760   0.97136
 This molecule is an asymmetric top.
 Rotational symmetry number  1.
 Warning -- assumption of classical behavior for rotation
           may cause significant error
 Rotational temperatures (Kelvin)      0.04858     0.01237     0.00986
 Rotational constants (GHZ):           1.01231     0.25765     0.20538
 Zero-point vibrational energy     438608.6 (Joules/Mol)
                                  104.82997 (Kcal/Mol)
 Warning -- explicit consideration of  18 degrees of freedom as
           vibrations may cause significant error
 Vibrational temperatures:     65.11   131.61   188.17   218.92   227.88
          (Kelvin)            283.97   376.98   410.59   423.69   506.22
                              544.76   604.47   606.53   624.65   672.59
                              687.69   739.04   756.71   917.07   922.00
                              932.39  1000.99  1014.82  1014.88  1046.20
                             1119.42  1143.12  1181.99  1183.60  1255.46
                             1330.87  1347.24  1378.43  1410.16  1417.08
                             1418.58  1493.56  1539.88  1596.92  1609.88
                             1651.99  1693.86  1715.08  1752.95  1756.76
                             1805.67  1907.02  1954.33  1957.23  2020.57
                             2093.93  2123.69  2137.13  2186.37  2206.12
                             2236.13  2310.80  2326.59  2345.06  4511.43
                             4538.58  4569.02  4579.12  4582.77  4591.55
                             4607.11

 Zero-point correction=                           0.167057 (Hartree/Particle)
 Thermal correction to Energy=                    0.179549
 Thermal correction to Enthalpy=                  0.180493
 Thermal correction to Gibbs Free Energy=         0.127038
 Sum of electronic and zero-point Energies=          -1148.481631
 Sum of electronic and thermal Energies=             -1148.469140
 Sum of electronic and thermal Enthalpies=           -1148.468195
 Sum of electronic and thermal Free Energies=        -1148.521650

                     E (Thermal)             CV                S
                      KCal/Mol        Cal/Mol-Kelvin    Cal/Mol-Kelvin
 Total                  112.669             50.167            112.504
 Electronic               0.000              0.000              1.377
 Translational            0.889              2.981             42.353
 Rotational               0.889              2.981             33.062
 Vibrational            110.891             44.206             35.713
 Vibration     1          0.595              1.979              5.015
 Vibration     2          0.602              1.955              3.628
 Vibration     3          0.612              1.923              2.935
 Vibration     4          0.619              1.900              2.645
 Vibration     5          0.621              1.893              2.569
 Vibration     6          0.637              1.844              2.158
 Vibration     7          0.669              1.742              1.648
 Vibration     8          0.683              1.701              1.501
 Vibration     9          0.689              1.684              1.448
 Vibration    10          0.728              1.571              1.158
 Vibration    11          0.749              1.516              1.045
 Vibration    12          0.783              1.426              0.892
 Vibration    13          0.784              1.423              0.887
 Vibration    14          0.795              1.396              0.845
 Vibration    15          0.825              1.322              0.745
 Vibration    16          0.834              1.299              0.716
 Vibration    17          0.869              1.220              0.625
 Vibration    18          0.881              1.193              0.596

 Optimization completed.
    -- Stationary point found.
 Normal termination of Gaussian 16 at Thu Dec 21 06:47:40 2023.
