 Gaussian 16, Revision A.03,
 Gaussian 16:  ES64L-G16RevA.03 25-Dec-2016

 --------------------------------------
 #P UB3LYP/6-311++G(d,p) nosym opt freq
 --------------------------------------

 -------
 Reduced
 -------
 Symbolic Z-matrix:
 Charge = -2 Multiplicity = 1

 SCF Done:  E(UB3LYP) =  -990.015054549     A.U. after   18 cycles
 SCF Done:  E(UB3LYP) =  -990.015054087     A.U. after    9 cycles
 SCF Done:  E(UB3LYP) =  -990.015054610     A.U. after    8 cycles
 Optimization completed.
    -- Stationary point found.
 Normal termination of Gaussian 16 at Sun Jan  7 06:59:35 2024.

 ----------------------------------------------------------------------
 #P Geom=AllCheck Guess=TCheck SCRF=Check GenChk UB3LYP/6-311++G(d,p) F
 req
 ----------------------------------------------------------------------

 Structure from the checkpoint file:  "205-an.chk"
 -------
 Reduced
 -------
 Charge = -2 Multiplicity = 1

                          Input orientation:
 ---------------------------------------------------------------------
 Center     Atomic      Atomic             Coordinates (Angstroms)
 Number     Number       Type             X           Y           Z
 ---------------------------------------------------------------------
      1          8           0       -2.679831   -2.581808    0.538875
      2          6           0       -2.569790   -1.224905    0.398774
      3          6           0       -3.698182   -0.438312    0.408889
      4          6           0       -3.604025    0.976205    0.264320
      5          6           0       -2.382434    1.589677    0.111147
      6          8           0       -2.311626    2.949451   -0.026422
      7          6           0       -1.171328    0.806922    0.094424
      8          6           0        0.095686    1.437344   -0.063747
      9          8           0        0.184147    2.766901   -0.199607
     10          6           0        1.266812    0.627352   -0.074834
     11          6           0        2.569790    1.224890   -0.232633
     12          8           0        2.679808    2.581801   -0.372829
     13          6           0        3.698191    0.438323   -0.242676
     14          6           0        3.604032   -0.976198   -0.098071
     15          6           0        2.382438   -1.589676    0.055059
     16          8           0        2.311600   -2.949437    0.192628
     17          6           0        1.171328   -0.806902    0.071732
     18          6           0       -0.095665   -1.437289    0.229928
     19          8           0       -0.184092   -2.766881    0.365883
     20          6           0       -1.266811   -0.627337    0.240968
     21          1           0       -1.723064   -2.912445    0.497634
     22          1           0       -4.665855   -0.917245    0.529494
     23          1           0       -4.498800    1.592333    0.273008
     24          1           0       -1.320376    3.136554   -0.120551
     25          1           0        1.723050    2.912324   -0.331780
     26          1           0        4.665860    0.917264   -0.363273
     27          1           0        4.498812   -1.592318   -0.106721
     28          1           0        1.320323   -3.136590    0.286673
 ---------------------------------------------------------------------

 SCF Done:  E(UB3LYP) =  -990.015054610     A.U. after    1 cycles

 Alpha  occ. eigenvalues --  -18.87859 -18.87858 -18.87857 -18.87857 -18.82967
 Alpha  occ. eigenvalues --  -18.82966  -9.98062  -9.98061  -9.98060  -9.98060
 Alpha  occ. eigenvalues --   -9.96936  -9.96935  -9.92754  -9.92752  -9.92715
 Alpha  occ. eigenvalues --   -9.92715  -9.92311  -9.92311  -9.92268  -9.92267
 Alpha  occ. eigenvalues --   -0.79905  -0.79739  -0.79164  -0.79041  -0.72773
 Alpha  occ. eigenvalues --   -0.72574  -0.60758  -0.58858  -0.54036  -0.49531
 Alpha  occ. eigenvalues --   -0.49348  -0.47786  -0.43085  -0.39777  -0.38674
 Alpha  occ. eigenvalues --   -0.34962  -0.33234  -0.30001  -0.27813  -0.27757
 Alpha  occ. eigenvalues --   -0.26512  -0.25918  -0.25466  -0.22495  -0.20383
 Alpha  occ. eigenvalues --   -0.18654  -0.18401  -0.17130  -0.16941  -0.16257
 Alpha  occ. eigenvalues --   -0.16167  -0.16089  -0.15971  -0.15628  -0.14912
 Alpha  occ. eigenvalues --   -0.13538  -0.11749  -0.11325  -0.11251  -0.10775
 Alpha  occ. eigenvalues --   -0.09387  -0.08899  -0.05694  -0.05186  -0.01531
 Alpha  occ. eigenvalues --   -0.01331   0.00049   0.00049   0.02650   0.04352
 Alpha  occ. eigenvalues --    0.10546
 Alpha virt. eigenvalues --    0.16875   0.16903   0.18797   0.18816   0.20560
 Alpha virt. eigenvalues --    0.20951   0.21411   0.21688   0.23069   0.24062
 Alpha virt. eigenvalues --    0.25370   0.25654   0.25793   0.26490   0.26567

  Beta  occ. eigenvalues --  -18.87859 -18.87858 -18.87857 -18.87857 -18.82967
  Beta  occ. eigenvalues --  -18.82966  -9.98062  -9.98061  -9.98060  -9.98060
  Beta  occ. eigenvalues --   -9.96936  -9.96935  -9.92754  -9.92752  -9.92715
  Beta  occ. eigenvalues --   -9.92715  -9.92311  -9.92311  -9.92268  -9.92267
  Beta  occ. eigenvalues --   -0.79905  -0.79739  -0.79164  -0.79041  -0.72773
  Beta  occ. eigenvalues --   -0.72574  -0.60758  -0.58858  -0.54036  -0.49531
  Beta  occ. eigenvalues --   -0.49348  -0.47786  -0.43085  -0.39777  -0.38674
  Beta  occ. eigenvalues --   -0.34962  -0.33234  -0.30001  -0.27813  -0.27757
  Beta  occ. eigenvalues --   -0.26512  -0.25918  -0.25466  -0.22495  -0.20383
  Beta  occ. eigenvalues --   -0.18654  -0.18401  -0.17130  -0.16941  -0.16257
  Beta  occ. eigenvalues --   -0.16167  -0.16089  -0.15971  -0.15628  -0.14912
  Beta  occ. eigenvalues --   -0.13538  -0.11749  -0.11325  -0.11251  -0.10775
  Beta  occ. eigenvalues --   -0.09387  -0.08899  -0.05694  -0.05186  -0.01531
  Beta  occ. eigenvalues --   -0.01331   0.00049   0.00049   0.02650   0.04352
  Beta  occ. eigenvalues --    0.10546
  Beta virt. eigenvalues --    0.16875   0.16903   0.18797   0.18816   0.20560
  Beta virt. eigenvalues --    0.20951   0.21411   0.21688   0.23069   0.24062
  Beta virt. eigenvalues --    0.25370   0.25654   0.25793   0.26490   0.26567

 Mulliken charges and spin densities:
               1          2
     1  O   -0.446186  -0.000000
     2  C   -0.416757   0.000000
     3  C   -0.056476  -0.000000
     4  C   -0.056459   0.000000
     5  C   -0.416899   0.000000
     6  O   -0.446221   0.000000
     7  C    0.426079  -0.000000
     8  C   -0.333459   0.000000
     9  O   -0.670694  -0.000000
    10  C    0.425954  -0.000000
    11  C   -0.416704  -0.000000
    12  O   -0.446209  -0.000000
    13  C   -0.056523   0.000000
    14  C   -0.056415   0.000000
    15  C   -0.416861   0.000000
    16  O   -0.446242   0.000000
    17  C    0.425991   0.000000
    18  C   -0.333481   0.000000
    19  O   -0.670701  -0.000000
    20  C    0.425971   0.000000
    21  H    0.397637   0.000000
    22  H    0.097893  -0.000000
    23  H    0.097891   0.000000
    24  H    0.397700  -0.000000
    25  H    0.397684   0.000000
    26  H    0.097892  -0.000000
    27  H    0.097889  -0.000000
    28  H    0.397707   0.000000
 Sum of Mulliken charges =  -2.00000   0.00000

 Dipole moment (field-independent basis, Debye):
    X=             -0.0003    Y=             -0.0001    Z=             -0.7987  Tot=              0.7987
 Quadrupole moment (field-independent basis, Debye-Ang):
   XX=           -189.6532   YY=           -186.4196   ZZ=           -127.3161
   XY=              0.6697   XZ=              4.7839   YZ=              5.7840

  Exact polarizability: 372.729 -10.548 243.094 -19.107 -12.121 112.525
 Approx polarizability: 634.145 -15.003 459.040 -33.800 -26.548 178.952

                      1                      2                      3
                      A                      A                      A
 Frequencies --     62.4744                64.2389               106.6128
 Red. masses --      7.3004                 9.9392                14.2014
 Frc consts  --      0.0168                 0.0242                 0.0951
 IR Inten    --      0.2871                 0.0021                 0.0000

                      4                      5                      6
                      A                      A                      A
 Frequencies --    129.8539               133.6086               180.0363
 Red. masses --      8.2791                 7.4653                 8.9273
 Frc consts  --      0.0823                 0.0785                 0.1705
 IR Inten    --      0.0189                 0.0000                 0.4183

                      7                      8                      9
                      A                      A                      A
 Frequencies --    229.1092               260.6943               317.1917
 Red. masses --      6.9864                 6.1500                 7.5046
 Frc consts  --      0.2161                 0.2463                 0.4449
 IR Inten    --      0.1325                 0.0000                 0.0000

                     10                     11                     12
                      A                      A                      A
 Frequencies --    325.8075               368.0393               372.5708
 Red. masses --      7.5713                 8.1528                 6.2667
 Frc consts  --      0.4735                 0.6506                 0.5125
 IR Inten    --      0.0000                 0.0000                 0.0000

                     13                     14                     15
                      A                      A                      A
 Frequencies --    380.4095               417.2520               429.6600
 Red. masses --      9.4843                 6.1559                10.3273
 Frc consts  --      0.8086                 0.6315                 1.1233
 IR Inten    --      0.0000                64.5810                 0.0001

                     16                     17                     18
                      A                      A                      A
 Frequencies --    442.4655               468.6201               480.6922
 Red. masses --      7.7362                10.3269                11.7777
 Frc consts  --      0.8924                 1.3362                 1.6034
 IR Inten    --      0.0000                 3.7246                 0.0001

                     19                     20                     21
                      A                      A                      A
 Frequencies --    481.3422               482.8368               486.2958
 Red. masses --      4.2367                11.2834                10.0630
 Frc consts  --      0.5783                 1.5498                 1.4021
 IR Inten    --      0.0028                76.6389                15.7454

                     22                     23                     24
                      A                      A                      A
 Frequencies --    526.5895               545.7625               570.5534
 Red. masses --      5.4006                 3.6588                 9.3836
 Frc consts  --      0.8823                 0.6421                 1.7997
 IR Inten    --      0.0000                20.1927                 0.0000

                     25                     26                     27
                      A                      A                      A
 Frequencies --    612.8638               613.4228               637.4505
 Red. masses --      4.1084                 3.9107                 2.9951
 Frc consts  --      0.9092                 0.8670                 0.7171
 IR Inten    --      4.1724                 0.0000                 0.0000

                     28                     29                     30
                      A                      A                      A
 Frequencies --    714.7959               721.6591               725.1958
 Red. masses --      6.8904                 6.3204                 3.1230
 Frc consts  --      2.0742                 1.9394                 0.9677
 IR Inten    --      0.0000                 0.0000                40.3597

                     31                     32                     33
                      A                      A                      A
 Frequencies --    736.5851               768.6220               774.8533
 Red. masses --      7.9185                 7.6640                 1.7577
 Frc consts  --      2.5313                 2.6677                 0.6218
 IR Inten    --    108.4638                 0.0000                 0.0000

                     34                     35                     36
                      A                      A                      A
 Frequencies --    781.7867               807.3643               809.0731
 Red. masses --      2.2913                 1.3981                 1.4926
 Frc consts  --      0.8251                 0.5370                 0.5757
 IR Inten    --     81.9498                 0.0010                 0.0000

                     37                     38                     39
                      A                      A                      A
 Frequencies --    819.8241               843.5120               928.1252
 Red. masses --      9.0808                 9.3571                 1.0602
 Frc consts  --      3.5960                 3.9226                 0.5381
 IR Inten    --    116.8485                 0.0000                 0.5705

                     40                     41                     42
                      A                      A                      A
 Frequencies --    930.2801               945.0691               959.5783
 Red. masses --      1.0639                10.4555                 1.0368
 Frc consts  --      0.5425                 5.5020                 0.5625
 IR Inten    --    257.8755               353.2498                 0.0253

                     43                     44                     45
                      A                      A                      A
 Frequencies --    960.4449               975.1769               988.7613
 Red. masses --      1.0386                 5.0572                 3.7652
 Frc consts  --      0.5645                 2.8335                 2.1688
 IR Inten    --      0.0013                 0.0000                 0.0000

                     46                     47                     48
                      A                      A                      A
 Frequencies --   1066.4260              1123.8794              1175.7307
 Red. masses --      1.4912                 1.6666                 5.4210
 Frc consts  --      0.9992                 1.2403                 4.4151
 IR Inten    --     87.8014                 0.0000                36.9993

                     49                     50                     51
                      A                      A                      A
 Frequencies --   1195.4912              1230.5408              1247.0942
 Red. masses --      9.4250                 1.9426                 4.5945
 Frc consts  --      7.9364                 1.7331                 4.2100
 IR Inten    --    189.7738                91.0557               132.3037

                     52                     53                     54
                      A                      A                      A
 Frequencies --   1251.6828              1261.1317              1270.2787
 Red. masses --      1.9162                12.2435                 7.0031
 Frc consts  --      1.7688                11.4730                 6.6579
 IR Inten    --      0.0000                 0.0000                 0.0000

                     55                     56                     57
                      A                      A                      A
 Frequencies --   1316.6795              1327.0960              1343.7517
 Red. masses --      2.8072                 3.3419                 3.2161
 Frc consts  --      2.8674                 3.4678                 3.4215
 IR Inten    --     61.8134                 0.0001                 0.0001

                     58                     59                     60
                      A                      A                      A
 Frequencies --   1361.3680              1362.2055              1447.6982
 Red. masses --      4.9245                10.0697                 7.9486
 Frc consts  --      5.3773                11.0091                 9.8152
 IR Inten    --    629.3050                24.0236                 0.0022

                     61                     62                     63
                      A                      A                      A
 Frequencies --   1454.3371              1512.1499              1544.0134
 Red. masses --      6.9324                 2.6932                 1.9579
 Frc consts  --      8.6390                 3.6284                 2.7500
 IR Inten    --    548.4612                 0.0000               778.6368

                     64                     65                     66
                      A                      A                      A
 Frequencies --   1551.8186              1560.6932              1603.4653
 Red. masses --      3.2492                 5.5384                 3.2949
 Frc consts  --      4.6101                 7.9482                 4.9913
 IR Inten    --      0.0001               189.1960                 0.0000

                     67                     68                     69
                      A                      A                      A
 Frequencies --   1608.3673              1651.2138              1677.0645
 Red. masses --      1.4244                 2.5170                 1.6348
 Frc consts  --      2.1709                 4.0433                 2.7090
 IR Inten    --    329.7725                 0.0001                 0.0000

                     70                     71                     72
                      A                      A                      A
 Frequencies --   1699.4901              2781.6006              2808.0533
 Red. masses --      1.9157                 1.0734                 1.0740
 Frc consts  --      3.2600                 4.8932                 4.9897
 IR Inten    --      0.0394                 0.2204              2186.9875

                     73                     74                     75
                      A                      A                      A
 Frequencies --   2898.4902              2918.5961              3128.8663
 Red. masses --      1.0776                 1.0760                 1.0850
 Frc consts  --      5.3338                 5.4001                 6.2582
 IR Inten    --     11.6743                 0.0026                98.5724

                     76                     77                     78
                      A                      A                      A
 Frequencies --   3128.9920              3149.3907              3149.7998
 Red. masses --      1.0852                 1.0924                 1.0922
 Frc consts  --      6.2600                 6.3840                 6.3841
 IR Inten    --      0.0152               164.2418                 0.0015

 - Thermochemistry -
 -------------------
 Temperature   298.150 Kelvin.  Pressure   1.00000 Atm.
 Atom     1 has atomic number  8 and mass  15.99491

 Molecular mass:   272.03209 amu.
 Principal axes and moments of inertia in atomic units:
                           1         2         3
     Eigenvalues --  3518.455555404.193968922.64950
           X            0.99492   0.06608   0.07599
           Y           -0.07329   0.99264   0.09637
           Z           -0.06906  -0.10145   0.99244
 This molecule is an asymmetric top.
 Rotational symmetry number  1.
 Warning -- assumption of classical behavior for rotation
           may cause significant error
 Rotational temperatures (Kelvin)      0.02462     0.01603     0.00971
 Rotational constants (GHZ):           0.51294     0.33395     0.20227
 Zero-point vibrational energy     503177.0 (Joules/Mol)
                                  120.26218 (Kcal/Mol)
 Warning -- explicit consideration of  26 degrees of freedom as
           vibrations may cause significant error
 Vibrational temperatures:     89.89    92.43   153.39   186.83   192.23
          (Kelvin)            259.03   329.64   375.08   456.37   468.76
                              529.53   536.05   547.32   600.33   618.18
                              636.61   674.24   691.61   692.54   694.69
                              699.67   757.64   785.23   820.90   881.77
                              882.58   917.15  1028.43  1038.31  1043.40
                             1059.78  1105.88  1114.84  1124.82  1161.62
                             1164.08  1179.54  1213.63  1335.37  1338.47
                             1359.74  1380.62  1381.87  1403.06  1422.61
                             1534.35  1617.01  1691.61  1720.05  1770.47
                             1794.29  1800.89  1814.49  1827.65  1894.41
                             1909.40  1933.36  1958.70  1959.91  2082.91
                             2092.47  2175.65  2221.49  2232.72  2245.49
                             2307.03  2314.08  2375.73  2412.92  2445.19
                             4002.10  4040.16  4170.28  4199.21  4501.74
                             4501.92  4531.27  4531.86

 Zero-point correction=                           0.191650 (Hartree/Particle)
 Thermal correction to Energy=                    0.206123
 Thermal correction to Enthalpy=                  0.207067
 Thermal correction to Gibbs Free Energy=         0.150661
 Sum of electronic and zero-point Energies=           -989.823405
 Sum of electronic and thermal Energies=              -989.808932
 Sum of electronic and thermal Enthalpies=            -989.807988
 Sum of electronic and thermal Free Energies=         -989.864394

                     E (Thermal)             CV                S
                      KCal/Mol        Cal/Mol-Kelvin    Cal/Mol-Kelvin
 Total                  129.344             59.891            118.717
 Electronic               0.000              0.000              0.000
 Translational            0.889              2.981             42.701
 Rotational               0.889              2.981             33.495
 Vibrational            127.567             53.929             42.521
 Vibration     1          0.597              1.972              4.377
 Vibration     2          0.597              1.971              4.323
 Vibration     3          0.605              1.944              3.330
 Vibration     4          0.612              1.923              2.948
 Vibration     5          0.613              1.920              2.893
 Vibration     6          0.629              1.867              2.328
 Vibration     7          0.652              1.797              1.886
 Vibration     8          0.669              1.745              1.657
 Vibration     9          0.704              1.641              1.325
 Vibration    10          0.710              1.624              1.281
 Vibration    11          0.741              1.538              1.088
 Vibration    12          0.744              1.528              1.069
 Vibration    13          0.750              1.512              1.038
 Vibration    14          0.780              1.433              0.901
 Vibration    15          0.791              1.406              0.860
 Vibration    16          0.802              1.378              0.819
 Vibration    17          0.826              1.320              0.741
 Vibration    18          0.837              1.293              0.708
 Vibration    19          0.838              1.291              0.706
 Vibration    20          0.839              1.288              0.702
 Vibration    21          0.842              1.280              0.693
 Vibration    22          0.882              1.191              0.595
 Vibration    23          0.901              1.149              0.553
 Vibration    24          0.927              1.095              0.503
 Vibration    25          0.972              1.005              0.428
 Vibration    26          0.973              1.003              0.427

 Optimization completed.
    -- Stationary point found.
 Normal termination of Gaussian 16 at Sun Jan  7 08:25:53 2024.
