 Q-Chem 5.4, Q-Chem, Inc., Pleasanton, CA (2021)
 Q-Chem 5.4.0 for Intel X86 EM64T Linux

User input:
--------------------------------------------------------------
$molecule
-2 1
O                 -2.6798310000     -2.5818080000      0.5388750000
C                 -2.5697900000     -1.2249050000      0.3987740000
C                 -3.6981820000     -0.4383120000      0.4088890000
C                 -3.6040250000      0.9762050000      0.2643200000
C                 -2.3824340000      1.5896770000      0.1111470000
O                 -2.3116260000      2.9494510000     -0.0264220000
C                 -1.1713280000      0.8069220000      0.0944240000
C                  0.0956860000      1.4373440000     -0.0637470000
O                  0.1841470000      2.7669010000     -0.1996070000
C                  1.2668120000      0.6273520000     -0.0748340000
C                  2.5697900000      1.2248900000     -0.2326330000
O                  2.6798080000      2.5818010000     -0.3728290000
C                  3.6981910000      0.4383230000     -0.2426760000
C                  3.6040320000     -0.9761980000     -0.0980710000
C                  2.3824380000     -1.5896760000      0.0550590000
O                  2.3116000000     -2.9494370000      0.1926280000
C                  1.1713280000     -0.8069020000      0.0717320000
C                 -0.0956650000     -1.4372890000      0.2299280000
O                 -0.1840920000     -2.7668810000      0.3658830000
C                 -1.2668110000     -0.6273370000      0.2409680000
H                 -1.7230640000     -2.9124450000      0.4976340000
H                 -4.6658550000     -0.9172450000      0.5294940000
H                 -4.4988000000      1.5923330000      0.2730080000
H                 -1.3203760000      3.1365540000     -0.1205510000
H                  1.7230500000      2.9123240000     -0.3317800000
H                  4.6658600000      0.9172640000     -0.3632730000
H                  4.4988120000     -1.5923180000     -0.1067210000
H                  1.3203230000     -3.1365900000      0.2866730000
$end
$rem
MAX_SCF_CYCLES=200
BASIS  =  6-311++G(d,p)
GUI  =  2
JOB_TYPE  =  SP
METHOD  =  B3LYP
SOLVENT_METHOD = COSMO
$end
$solvent
dielectric 37.219
opticaldielectric 1.43
$end

--------------------------------------------------------------

             Standard Nuclear Orientation (Angstroms)
    I     Atom           X                Y                Z
 ----------------------------------------------------------------
    1      O      -2.5084764034    -2.7861349588    -0.0001098308
    2      C      -2.4887617212    -1.4177291759    -0.0000199010
    3      C      -3.6697631121    -0.7125093020     0.0000831972
    4      C      -3.6697654464     0.7124903751     0.0000844262
    5      C      -2.4887647369     1.4177078971     0.0000165421
    6      O      -2.5084688983     2.7861142949    -0.0000851577
    7      C      -1.2252947053     0.7224336554     0.0000104288
    8      C       0.0000010790     1.4479849475     0.0000674021
    9      O      -0.0000433449     2.7873897040     0.0000910390
   10      C       1.2253012047     0.7224605401    -0.0000081966
   11      C       2.4887624392     1.4177083830    -0.0000184200
   12      O       2.5084602127     2.7861302253    -0.0000237488
   13      C       3.6697659067     0.7125076079    -0.0000468729
   14      C       3.6697640582    -0.7124998242    -0.0000129115
   15      C       2.4887637731    -1.4177191379     0.0000114914
   16      O       2.5084371343    -2.7861146136     0.0001121645
   17      C       1.2252918224    -0.7224212276    -0.0000304901
   18      C       0.0000126399    -1.4479389258    -0.0000576836
   19      O       0.0000868954    -2.7873858163     0.0000121718
   20      C      -1.2253012069    -0.7224507774    -0.0000341043
   21      H      -1.5294933942    -3.0469356434    -0.0002025018
   22      H      -4.6057472015    -1.2640953822     0.0000896872
   23      H      -4.6057460203     1.2640806756     0.0000946544
   24      H      -1.5294689522     3.0468890356    -0.0001490910
   25      H       1.5295077717     3.0468378222    -0.0001319291
   26      H       4.6057448776     1.2641005533    -0.0000449563
   27      H       4.6057463961    -1.2640857084     0.0000157240
   28      H       1.5294197908    -3.0469322485     0.0000858624
 ----------------------------------------------------------------

    9    -990.0151954321      7.37e-06  Convergence criterion met
 Total energy in the final basis set =     -990.0151954321
    4    -990.2616837152      7.06e-06  Convergence criterion met
 Total energy in the final basis set =     -990.2616837152

                    Orbital Energies (a.u.)
 --------------------------------------------------------------

 Alpha MOs
 -- Occupied --
-19.1139 -19.1139 -19.1139 -19.1139 -19.0689 -19.0688 -10.2114 -10.2114
-10.2114 -10.2114 -10.2061 -10.2060 -10.1628 -10.1628 -10.1624 -10.1624
-10.1490 -10.1490 -10.1485 -10.1485  -1.0354  -1.0338  -1.0273  -1.0262
 -0.9672  -0.9653  -0.8419  -0.8201  -0.7713  -0.7278  -0.7265  -0.7099
 -0.6635  -0.6309  -0.6168  -0.5811  -0.5672  -0.5321  -0.5094  -0.5068
 -0.4980  -0.4958  -0.4904  -0.4522  -0.4335  -0.4236  -0.4162  -0.4084
 -0.4050  -0.3974  -0.3972  -0.3916  -0.3880  -0.3869  -0.3832  -0.3717
 -0.3501  -0.3487  -0.3468  -0.3392  -0.3339  -0.3262  -0.2933  -0.2864
 -0.2519  -0.2505  -0.2370  -0.2321  -0.2106  -0.1909  -0.1300

          Ground-State Mulliken Net Atomic Charges

     Atom                 Charge (a.u.)
  ----------------------------------------
      1 O                    -0.497162
      2 C                    -0.317014
      3 C                    -0.242607
      4 C                    -0.242417
      5 C                    -0.317312
      6 O                    -0.497236
      7 C                     0.442216
      8 C                    -0.255814
      9 O                    -0.752512
     10 C                     0.441491
     11 C                    -0.316706
     12 O                    -0.497160
     13 C                    -0.242681
     14 C                    -0.242398
     15 C                    -0.317338
     16 O                    -0.497245
     17 C                     0.442749
     18 C                    -0.256856
     19 O                    -0.751656
     20 C                     0.443333
     21 H                     0.426636
     22 H                     0.191836
     23 H                     0.191877
     24 H                     0.426759
     25 H                     0.426762
     26 H                     0.191829
     27 H                     0.191879
     28 H                     0.426744
  ----------------------------------------
  Sum of atomic charges =    -2.000000

                    Cartesian Multipole Moments
 -----------------------------------------------------------------
    Charge (ESU x 10^10)
                -9.6064
    Dipole Moment (Debye)
         X      -0.0016      Y      -0.0057      Z       0.0004
       Tot       0.0059
    Quadrupole Moments (Debye-Ang)
        XX    -170.4214     XY      -0.0004     YY    -188.4907
        XZ      -0.0009     YZ      -0.0006     ZZ    -125.7380

 Total job time:  77.82s(wall), 587.54s(cpu)
        *  Thank you very much for using Q-Chem.  Have a nice day.  *
