 Q-Chem 5.4, Q-Chem, Inc., Pleasanton, CA (2021)
 Q-Chem 5.4.0 for Intel X86 EM64T Linux

User input:
--------------------------------------------------------------
$molecule
0 1
C                 -1.4289270000      2.1403070000      0.0339070000
C                 -2.7495220000      1.4662560000      0.0316490000
C                 -2.9375390000      0.1340230000      0.0333700000
C                 -1.6935120000     -0.7086130000      0.0380140000
C                 -0.3729090000     -0.0345700000      0.0401420000
C                 -0.1848650000      1.2976610000      0.0385580000
O                 -1.3956090000      3.3625150000      0.0319580000
O                 -1.7268580000     -1.9308220000      0.0401490000
C                  1.1928510000      1.9643780000      0.0411430000
C                  1.3507990000      2.8395590000     -1.2275930000
C                  1.3438700000      2.8435810000      1.3079720000
C                  2.3226010000      0.9182100000      0.0459070000
C                 -4.3152230000     -0.5327760000      0.0309800000
C                 -5.4450700000      0.5133280000      0.0263550000
C                 -4.4729050000     -1.4078210000      1.2998470000
C                 -4.4663070000     -1.4120510000     -1.2357510000
H                 -3.5756440000      2.1659210000      0.0283970000
H                  0.4532030000     -0.7342510000      0.0433330000
H                  1.2466900000      2.2349100000     -2.1334530000
H                  2.3490650000      3.2867740000     -1.2375930000
H                  0.6146880000      3.6414610000     -1.2562390000
H                  0.6074930000      3.6454500000      1.3301610000
H                  2.3419600000      3.2911130000      1.3218600000
H                  1.2350990000      2.2417370000      2.2151360000
H                  3.2867970000      1.4323790000      0.0476590000
H                  2.2882220000      0.2807700000      0.9338370000
H                  2.2930340000      0.2778250000     -0.8400780000
H                 -5.4110300000      1.1506360000     -0.8616820000
H                 -5.4152450000      1.1538340000      0.9122400000
H                 -6.4092100000     -0.0009390000      0.0249630000
H                 -4.3688770000     -0.8029960000      2.2055920000
H                 -3.7366500000     -2.2095940000      1.3285930000
H                 -5.4710690000     -1.8552720000      1.3099640000
H                 -4.3575360000     -0.8102820000     -2.1429730000
H                 -5.4643900000     -1.8595860000     -1.2496100000
H                 -3.7299050000     -2.2139050000     -1.2579350000
$end
$rem
MAX_SCF_CYCLES=200
BASIS  =  6-311++G(d,p)
GUI  =  2
JOB_TYPE  =  SP
METHOD  =  B3LYP
SOLVENT_METHOD = PCM
$end
$pcm
theory = CPCM
$end
$solvent
dielectric 37.219
opticaldielectric 1.43
$end

--------------------------------------------------------------

             Standard Nuclear Orientation (Angstroms)
    I     Atom           X                Y                Z
 ----------------------------------------------------------------
    1      C      -1.4289270000     2.1403070000     0.0339070000
    2      C      -2.7495220000     1.4662560000     0.0316490000
    3      C      -2.9375390000     0.1340230000     0.0333700000
    4      C      -1.6935120000    -0.7086130000     0.0380140000
    5      C      -0.3729090000    -0.0345700000     0.0401420000
    6      C      -0.1848650000     1.2976610000     0.0385580000
    7      O      -1.3956090000     3.3625150000     0.0319580000
    8      O      -1.7268580000    -1.9308220000     0.0401490000
    9      C       1.1928510000     1.9643780000     0.0411430000
   10      C       1.3507990000     2.8395590000    -1.2275930000
   11      C       1.3438700000     2.8435810000     1.3079720000
   12      C       2.3226010000     0.9182100000     0.0459070000
   13      C      -4.3152230000    -0.5327760000     0.0309800000
   14      C      -5.4450700000     0.5133280000     0.0263550000
   15      C      -4.4729050000    -1.4078210000     1.2998470000
   16      C      -4.4663070000    -1.4120510000    -1.2357510000
   17      H      -3.5756440000     2.1659210000     0.0283970000
   18      H       0.4532030000    -0.7342510000     0.0433330000
   19      H       1.2466900000     2.2349100000    -2.1334530000
   20      H       2.3490650000     3.2867740000    -1.2375930000
   21      H       0.6146880000     3.6414610000    -1.2562390000
   22      H       0.6074930000     3.6454500000     1.3301610000
   23      H       2.3419600000     3.2911130000     1.3218600000
   24      H       1.2350990000     2.2417370000     2.2151360000
   25      H       3.2867970000     1.4323790000     0.0476590000
   26      H       2.2882220000     0.2807700000     0.9338370000
   27      H       2.2930340000     0.2778250000    -0.8400780000
   28      H      -5.4110300000     1.1506360000    -0.8616820000
   29      H      -5.4152450000     1.1538340000     0.9122400000
   30      H      -6.4092100000    -0.0009390000     0.0249630000
   31      H      -4.3688770000    -0.8029960000     2.2055920000
   32      H      -3.7366500000    -2.2095940000     1.3285930000
   33      H      -5.4710690000    -1.8552720000     1.3099640000
   34      H      -4.3575360000    -0.8102820000    -2.1429730000
   35      H      -5.4643900000    -1.8595860000    -1.2496100000
   36      H      -3.7299050000    -2.2139050000    -1.2579350000
 ----------------------------------------------------------------

    8    -696.1698003451      9.23e-06  Convergence criterion met
 Total energy in the final basis set =     -696.1698003451

                    Orbital Energies (a.u.)
 --------------------------------------------------------------

 Alpha MOs
 -- Occupied --
-19.1369 -19.1369 -10.2827 -10.2827 -10.2125 -10.2125 -10.1998 -10.1998
-10.1974 -10.1974 -10.1574 -10.1574 -10.1566 -10.1566 -10.1566 -10.1566
 -1.0696  -1.0678  -0.8680  -0.8421  -0.8053  -0.7610  -0.7025  -0.6903
 -0.6866  -0.6865  -0.6839  -0.6397  -0.6051  -0.5643  -0.5435  -0.5221
 -0.4926  -0.4788  -0.4705  -0.4550  -0.4504  -0.4415  -0.4388  -0.4364
 -0.4358  -0.4247  -0.4244  -0.3944  -0.3858  -0.3844  -0.3826  -0.3778
 -0.3663  -0.3656  -0.3579  -0.3526  -0.3403  -0.3392  -0.3388  -0.3318
 -0.2995  -0.2811  -0.2806  -0.2688

          Ground-State Mulliken Net Atomic Charges

     Atom                 Charge (a.u.)
  ----------------------------------------
      1 C                    -0.928810
      2 C                    -0.415375
      3 C                     1.302931
      4 C                    -0.928871
      5 C                    -0.414596
      6 C                     1.301331
      7 O                    -0.259407
      8 O                    -0.259422
      9 C                     0.536931
     10 C                    -0.722853
     11 C                    -0.723181
     12 C                    -0.554341
     13 C                     0.535680
     14 C                    -0.553998
     15 C                    -0.722988
     16 C                    -0.723251
     17 H                     0.260285
     18 H                     0.260292
     19 H                     0.156396
     20 H                     0.176273
     21 H                     0.175388
     22 H                     0.175376
     23 H                     0.176244
     24 H                     0.156399
     25 H                     0.190363
     26 H                     0.149175
     27 H                     0.149185
     28 H                     0.149203
     29 H                     0.149174
     30 H                     0.190349
     31 H                     0.156396
     32 H                     0.175405
     33 H                     0.176257
     34 H                     0.156383
     35 H                     0.176274
     36 H                     0.175403
  ----------------------------------------
  Sum of atomic charges =     0.000000

                    Cartesian Multipole Moments
 -----------------------------------------------------------------
    Charge (ESU x 10^10)
                 0.0000
    Dipole Moment (Debye)
         X       0.0002      Y      -0.0001      Z      -0.0003
       Tot       0.0003
    Quadrupole Moments (Debye-Ang)
        XX     -84.7459     XY       2.0148     YY    -118.9878
        XZ       0.0333     YZ       0.0402     ZZ     -98.9823

 Total job time:  121.27s(wall), 423.15s(cpu)
        *  Thank you very much for using Q-Chem.  Have a nice day.  *
