 Gaussian 16, Revision A.03,
 Gaussian 16:  ES64L-G16RevA.03 25-Dec-2016

 --------------------------------------
 #P UB3LYP/6-311++G(d,p) nosym opt freq
 --------------------------------------

 --------
 Oxidized
 --------
 Symbolic Z-matrix:
 Charge =  0 Multiplicity = 1

 SCF Done:  E(UB3LYP) =  -696.160001975     A.U. after   14 cycles
 Optimization completed.
    -- Stationary point found.
 Normal termination of Gaussian 16 at Sat Jan  6 05:44:41 2024.

 ----------------------------------------------------------------------
 #P Geom=AllCheck Guess=TCheck SCRF=Check GenChk UB3LYP/6-311++G(d,p) F
 req
 ----------------------------------------------------------------------

 Structure from the checkpoint file:  "045.chk"
 --------
 Oxidized
 --------
 Charge =  0 Multiplicity = 1

                          Input orientation:
 ---------------------------------------------------------------------
 Center     Atomic      Atomic             Coordinates (Angstroms)
 Number     Number       Type             X           Y           Z
 ---------------------------------------------------------------------
      1          6           0       -1.428927    2.140307    0.033907
      2          6           0       -2.749522    1.466256    0.031649
      3          6           0       -2.937539    0.134023    0.033370
      4          6           0       -1.693512   -0.708613    0.038014
      5          6           0       -0.372909   -0.034570    0.040142
      6          6           0       -0.184865    1.297661    0.038558
      7          8           0       -1.395609    3.362515    0.031958
      8          8           0       -1.726858   -1.930822    0.040149
      9          6           0        1.192851    1.964378    0.041143
     10          6           0        1.350799    2.839559   -1.227593
     11          6           0        1.343870    2.843581    1.307972
     12          6           0        2.322601    0.918210    0.045907
     13          6           0       -4.315223   -0.532776    0.030980
     14          6           0       -5.445070    0.513328    0.026355
     15          6           0       -4.472905   -1.407821    1.299847
     16          6           0       -4.466307   -1.412051   -1.235751
     17          1           0       -3.575644    2.165921    0.028397
     18          1           0        0.453203   -0.734251    0.043333
     19          1           0        1.246690    2.234910   -2.133453
     20          1           0        2.349065    3.286774   -1.237593
     21          1           0        0.614688    3.641461   -1.256239
     22          1           0        0.607493    3.645450    1.330161
     23          1           0        2.341960    3.291113    1.321860
     24          1           0        1.235099    2.241737    2.215136
     25          1           0        3.286797    1.432379    0.047659
     26          1           0        2.288222    0.280770    0.933837
     27          1           0        2.293034    0.277825   -0.840078
     28          1           0       -5.411030    1.150636   -0.861682
     29          1           0       -5.415245    1.153834    0.912240
     30          1           0       -6.409210   -0.000939    0.024963
     31          1           0       -4.368877   -0.802996    2.205592
     32          1           0       -3.736650   -2.209594    1.328593
     33          1           0       -5.471069   -1.855272    1.309964
     34          1           0       -4.357536   -0.810282   -2.142973
     35          1           0       -5.464390   -1.859586   -1.249610
     36          1           0       -3.729905   -2.213905   -1.257935
 ---------------------------------------------------------------------

 SCF Done:  E(UB3LYP) =  -696.160001975     A.U. after    1 cycles

 Alpha  occ. eigenvalues --  -19.13500 -19.13500 -10.28212 -10.28211 -10.21695
 Alpha  occ. eigenvalues --  -10.21694 -10.20751 -10.20751 -10.20280 -10.20279
 Alpha  occ. eigenvalues --  -10.16980 -10.16980 -10.16387 -10.16387 -10.16387
 Alpha  occ. eigenvalues --  -10.16387  -1.06728  -1.06535  -0.87301  -0.84941
 Alpha  occ. eigenvalues --   -0.81243  -0.76724  -0.70748  -0.70019  -0.69379
 Alpha  occ. eigenvalues --   -0.69373  -0.69163  -0.64464  -0.61035  -0.57138
 Alpha  occ. eigenvalues --   -0.54700  -0.52492  -0.49690  -0.48048  -0.47667
 Alpha  occ. eigenvalues --   -0.45969  -0.45306  -0.45071  -0.44258  -0.44198
 Alpha  occ. eigenvalues --   -0.44172  -0.43033  -0.42453  -0.39897  -0.39346
 Alpha  occ. eigenvalues --   -0.39235  -0.39188  -0.38836  -0.37454  -0.37338
 Alpha  occ. eigenvalues --   -0.36277  -0.36058  -0.34882  -0.34694  -0.34576
 Alpha  occ. eigenvalues --   -0.33967  -0.30149  -0.28734  -0.27918  -0.26841
 Alpha virt. eigenvalues --   -0.12966  -0.02618  -0.01310  -0.00594  -0.00488
 Alpha virt. eigenvalues --    0.01051   0.01273   0.01334   0.01804   0.02064
 Alpha virt. eigenvalues --    0.03005   0.03202   0.03485   0.04165   0.04399

  Beta  occ. eigenvalues --  -19.13500 -19.13500 -10.28212 -10.28211 -10.21695
  Beta  occ. eigenvalues --  -10.21694 -10.20751 -10.20751 -10.20280 -10.20279
  Beta  occ. eigenvalues --  -10.16980 -10.16980 -10.16387 -10.16387 -10.16387
  Beta  occ. eigenvalues --  -10.16387  -1.06728  -1.06535  -0.87301  -0.84941
  Beta  occ. eigenvalues --   -0.81243  -0.76724  -0.70748  -0.70019  -0.69379
  Beta  occ. eigenvalues --   -0.69373  -0.69163  -0.64464  -0.61035  -0.57138
  Beta  occ. eigenvalues --   -0.54700  -0.52492  -0.49690  -0.48048  -0.47667
  Beta  occ. eigenvalues --   -0.45969  -0.45306  -0.45071  -0.44258  -0.44198
  Beta  occ. eigenvalues --   -0.44172  -0.43033  -0.42453  -0.39897  -0.39346
  Beta  occ. eigenvalues --   -0.39235  -0.39188  -0.38836  -0.37454  -0.37338
  Beta  occ. eigenvalues --   -0.36277  -0.36058  -0.34882  -0.34694  -0.34576
  Beta  occ. eigenvalues --   -0.33967  -0.30149  -0.28734  -0.27918  -0.26841
  Beta virt. eigenvalues --   -0.12966  -0.02618  -0.01310  -0.00594  -0.00488
  Beta virt. eigenvalues --    0.01051   0.01273   0.01334   0.01804   0.02064
  Beta virt. eigenvalues --    0.03005   0.03202   0.03485   0.04165   0.04399

 Mulliken charges and spin densities:
               1          2
     1  C   -1.003472   0.000000
     2  C   -0.420002   0.000000
     3  C    1.313109   0.000000
     4  C   -1.003476  -0.000000
     5  C   -0.419852  -0.000000
     6  C    1.312945   0.000000
     7  O   -0.188946   0.000000
     8  O   -0.188947   0.000000
     9  C    0.464365  -0.000000
    10  C   -0.667449   0.000000
    11  C   -0.667475   0.000000
    12  C   -0.484389   0.000000
    13  C    0.464292  -0.000000
    14  C   -0.484372  -0.000000
    15  C   -0.667430   0.000000
    16  C   -0.667525   0.000000
    17  H    0.233044   0.000000
    18  H    0.233048   0.000000
    19  H    0.140038   0.000000
    20  H    0.157273  -0.000000
    21  H    0.191129   0.000000
    22  H    0.191134   0.000000
    23  H    0.157273   0.000000
    24  H    0.140016   0.000000
    25  H    0.174684   0.000000
    26  H    0.134865  -0.000000
    27  H    0.134854  -0.000000
    28  H    0.134878  -0.000000
    29  H    0.134837  -0.000000
    30  H    0.174680  -0.000000
    31  H    0.140031   0.000000
    32  H    0.191137  -0.000000
    33  H    0.157263   0.000000
    34  H    0.140021   0.000000
    35  H    0.157279   0.000000
    36  H    0.191138  -0.000000
 Sum of Mulliken charges =  -0.00000   0.00000

 Dipole moment (field-independent basis, Debye):
    X=              0.0002    Y=             -0.0000    Z=             -0.0002  Tot=              0.0002
 Quadrupole moment (field-independent basis, Debye-Ang):
   XX=            -88.6996   YY=           -114.5527   ZZ=            -99.3296
   XY=              2.3013   XZ=              0.0239   YZ=              0.0326

  Exact polarizability: 191.823  28.713 200.535   0.112  -0.043 129.935
 Approx polarizability: 232.747  25.630 380.307   0.058  -0.244 193.751

                      1                      2                      3
                      A                      A                      A
 Frequencies --     32.0204                54.0110                83.1399
 Red. masses --      4.0646                 3.0196                 4.0589
 Frc consts  --      0.0025                 0.0052                 0.0165
 IR Inten    --      2.4615                 0.0527                 0.0000

                      4                      5                      6
                      A                      A                      A
 Frequencies --    129.2632               139.0203               154.4732
 Red. masses --      3.3693                 4.6223                 3.6229
 Frc consts  --      0.0332                 0.0526                 0.0509
 IR Inten    --      0.0000                 6.7861                 0.6675

                      7                      8                      9
                      A                      A                      A
 Frequencies --    205.6837               218.6971               222.0974
 Red. masses --      1.4753                 1.1779                 3.6521
 Frc consts  --      0.0368                 0.0332                 0.1061
 IR Inten    --      0.0000                 0.8199                 0.0000

                     10                     11                     12
                      A                      A                      A
 Frequencies --    239.5643               256.7896               256.9085
 Red. masses --      2.6837                 1.8846                 1.0618
 Frc consts  --      0.0907                 0.0732                 0.0413
 IR Inten    --      0.0000                 0.0000                 0.1952

                     13                     14                     15
                      A                      A                      A
 Frequencies --    258.5467               285.5326               301.3184
 Red. masses --      1.2956                 2.5266                 2.6847
 Frc consts  --      0.0510                 0.1214                 0.1436
 IR Inten    --      0.0000                 0.0036                 0.0634

                     16                     17                     18
                      A                      A                      A
 Frequencies --    314.9662               324.0219               326.0438
 Red. masses --      2.6251                 1.0510                 1.0508
 Frc consts  --      0.1534                 0.0650                 0.0658
 IR Inten    --      0.0000                 0.0639                 0.0000

                     19                     20                     21
                      A                      A                      A
 Frequencies --    345.9879               374.8793               383.0412
 Red. masses --      4.4631                 2.2571                 2.2439
 Frc consts  --      0.3148                 0.1869                 0.1940
 IR Inten    --      9.9815                 0.0000                 0.2698

                     22                     23                     24
                      A                      A                      A
 Frequencies --    405.5025               420.4281               464.0933
 Red. masses --      2.6714                 2.7017                 6.1157
 Frc consts  --      0.2588                 0.2814                 0.7761
 IR Inten    --      0.0000                 1.1967                 0.0000

                     25                     26                     27
                      A                      A                      A
 Frequencies --    472.4840               475.7733               513.5374
 Red. masses --      2.9949                 3.5809                 3.5128
 Frc consts  --      0.3939                 0.4776                 0.5458
 IR Inten    --      0.1707                20.7885                 0.0000

                     28                     29                     30
                      A                      A                      A
 Frequencies --    532.1254               626.6071               626.9924
 Red. masses --      5.0306                 3.8496                 4.8627
 Frc consts  --      0.8393                 0.8905                 1.1263
 IR Inten    --      0.0000                 8.2555                 0.0002

                     31                     32                     33
                      A                      A                      A
 Frequencies --    690.7438               754.9873               799.2345
 Red. masses --      5.3955                 6.3427                 3.3095
 Frc consts  --      1.5168                 2.1301                 1.2456
 IR Inten    --      0.0000                 7.0478                 0.0000

                     34                     35                     36
                      A                      A                      A
 Frequencies --    804.3001               806.5797               847.3637
 Red. masses --      3.4969                 3.9905                 2.6520
 Frc consts  --      1.3328                 1.5296                 1.1219
 IR Inten    --      0.0000                 0.0972                24.2821

                     37                     38                     39
                      A                      A                      A
 Frequencies --    905.8636               929.1802               934.3852
 Red. masses --      1.7122                 1.8630                 1.6524
 Frc consts  --      0.8278                 0.9477                 0.8500
 IR Inten    --      0.0000                 0.4452                 0.0000

                     40                     41                     42
                      A                      A                      A
 Frequencies --    937.8535               938.7706               951.9633
 Red. masses --      1.7662                 1.7411                 1.4805
 Frc consts  --      0.9153                 0.9041                 0.7905
 IR Inten    --      1.8389                 0.0002                32.8201

                     43                     44                     45
                      A                      A                      A
 Frequencies --    965.4596               965.4795               979.9700
 Red. masses --      1.1998                 1.2000                 3.4075
 Frc consts  --      0.6589                 0.6590                 1.9280
 IR Inten    --      0.0002                 0.1773                 0.0000

                     46                     47                     48
                      A                      A                      A
 Frequencies --   1034.1039              1047.4167              1048.1278
 Red. masses --      1.7110                 1.3954                 1.3855
 Frc consts  --      1.0780                 0.9020                 0.8968
 IR Inten    --     52.4968                 0.0000                 0.0000

                     49                     50                     51
                      A                      A                      A
 Frequencies --   1048.8464              1084.9278              1199.1651
 Red. masses --      1.3863                 2.1790                 2.6700
 Frc consts  --      0.8985                 1.5112                 2.2622
 IR Inten    --      0.1355                62.7818                74.8004

                     52                     53                     54
                      A                      A                      A
 Frequencies --   1216.5103              1216.8608              1225.9374
 Red. masses --      2.6622                 2.6834                 2.6993
 Frc consts  --      2.3213                 2.3411                 2.3902
 IR Inten    --      0.0047                 5.0949                 0.0000

                     55                     56                     57
                      A                      A                      A
 Frequencies --   1236.7764              1259.3430              1273.9105
 Red. masses --      2.0915                 4.4292                 1.8946
 Frc consts  --      1.8849                 4.1387                 1.8115
 IR Inten    --      0.0000                78.5760                 0.0010

                     58                     59                     60
                      A                      A                      A
 Frequencies --   1274.7507              1356.4631              1361.8782
 Red. masses --      2.4849                 3.0157                 1.8877
 Frc consts  --      2.3791                 3.2693                 2.0628
 IR Inten    --     30.5382                 0.0002                44.0392

                     61                     62                     63
                      A                      A                      A
 Frequencies --   1392.2972              1392.3457              1398.5453
 Red. masses --      1.1970                 1.1970                 1.2492
 Frc consts  --      1.3671                 1.3672                 1.4396
 IR Inten    --      0.4979                18.0810                 0.0562

                     64                     65                     66
                      A                      A                      A
 Frequencies --   1398.6309              1427.7787              1428.0221
 Red. masses --      1.2288                 1.2180                 1.2218
 Frc consts  --      1.4162                 1.4629                 1.4680
 IR Inten    --     31.5948                13.8246                 0.0021

                     67                     68                     69
                      A                      A                      A
 Frequencies --   1480.7414              1480.8030              1495.5576
 Red. masses --      1.0459                 1.0459                 1.0473
 Frc consts  --      1.3511                 1.3513                 1.3801
 IR Inten    --      0.0000                 0.0139                 0.0090

                     70                     71                     72
                      A                      A                      A
 Frequencies --   1495.6037              1498.3288              1498.4780
 Red. masses --      1.0488                 1.0449                 1.0448
 Frc consts  --      1.3822                 1.3820                 1.3822
 IR Inten    --      2.3804                 0.0001                 0.6827

                     73                     74                     75
                      A                      A                      A
 Frequencies --   1503.1689              1503.3747              1512.0788
 Red. masses --      1.0544                 1.0527                 1.0489
 Frc consts  --      1.4037                 1.4018                 1.4130
 IR Inten    --      0.0000                31.6171                15.8782

                     76                     77                     78
                      A                      A                      A
 Frequencies --   1512.1308              1528.9778              1529.2925
 Red. masses --      1.0489                 1.0606                 1.0600
 Frc consts  --      1.4131                 1.4608                 1.4607
 IR Inten    --      0.0086                34.9906                 0.0017

                     79                     80                     81
                      A                      A                      A
 Frequencies --   1640.3202              1674.8018              1706.3715
 Red. masses --      8.1916                 9.8093                11.4129
 Frc consts  --     12.9860                16.2112                19.5792
 IR Inten    --     94.4835                 0.0000               439.9596

                     82                     83                     84
                      A                      A                      A
 Frequencies --   1708.1452              3022.7601              3022.7734
 Red. masses --      9.1791                 1.0356                 1.0356
 Frc consts  --     15.7798                 5.5751                 5.5753
 IR Inten    --      0.0002                 6.8081                21.0778

                     85                     86                     87
                      A                      A                      A
 Frequencies --   3024.8873              3024.9705              3030.4866
 Red. masses --      1.0379                 1.0379                 1.0384
 Frc consts  --      5.5951                 5.5954                 5.6187
 IR Inten    --      0.0451                73.6023                60.8926

                     88                     89                     90
                      A                      A                      A
 Frequencies --   3030.7859              3081.3591              3081.4609
 Red. masses --      1.0384                 1.1023                 1.1023
 Frc consts  --      5.6201                 6.1662                 6.1667
 IR Inten    --      0.0001                 0.0005                13.4099

                     91                     92                     93
                      A                      A                      A
 Frequencies --   3082.9739              3083.0519              3089.6508
 Red. masses --      1.1017                 1.1017                 1.1022
 Frc consts  --      6.1695                 6.1696                 6.1991
 IR Inten    --     42.6240                 0.0311                 0.8504

                     94                     95                     96
                      A                      A                      A
 Frequencies --   3089.7477              3094.5264              3094.7210
 Red. masses --      1.1022                 1.1007                 1.1006
 Frc consts  --      6.1994                 6.2104                 6.2104
 IR Inten    --     66.4660               111.7272                 0.7299

                     97                     98                     99
                      A                      A                      A
 Frequencies --   3133.0782              3133.1248              3135.7054
 Red. masses --      1.0986                 1.0986                 1.0979
 Frc consts  --      6.3538                 6.3539                 6.3605
 IR Inten    --      0.0353                 0.0524                 4.4113

                    100                    101                    102
                      A                      A                      A
 Frequencies --   3135.7686              3199.6251              3201.3174
 Red. masses --      1.0979                 1.0900                 1.0905
 Frc consts  --      6.3607                 6.5747                 6.5844
 IR Inten    --     23.0099                 2.9752                 0.0001

 - Thermochemistry -
 -------------------
 Temperature   298.150 Kelvin.  Pressure   1.00000 Atm.
 Atom     1 has atomic number  6 and mass  12.00000

 Molecular mass:   220.14633 amu.
 Principal axes and moments of inertia in atomic units:
                           1         2         3
     Eigenvalues --  1678.908185856.462166730.27232
           X            0.87756  -0.47947  -0.00261
           Y            0.47947   0.87756   0.00168
           Z            0.00148  -0.00273   1.00000
 This molecule is an asymmetric top.
 Rotational symmetry number  1.
 Warning -- assumption of classical behavior for rotation
           may cause significant error
 Rotational temperatures (Kelvin)      0.05159     0.01479     0.01287
 Rotational constants (GHZ):           1.07495     0.30816     0.26815
 Zero-point vibrational energy     810704.9 (Joules/Mol)
                                  193.76312 (Kcal/Mol)
 Warning -- explicit consideration of  28 degrees of freedom as
           vibrations may cause significant error
 Vibrational temperatures:     46.07    77.71   119.62   185.98   200.02
          (Kelvin)            222.25   295.93   314.66   319.55   344.68
                              369.46   369.63   371.99   410.82   433.53
                              453.17   466.20   469.10   497.80   539.37
                              551.11   583.43   604.90   667.73   679.80
                              684.53   738.87   765.61   901.55   902.10
                              993.83  1086.26  1149.92  1157.21  1160.49
                             1219.17  1303.34  1336.88  1344.37  1349.36
                             1350.68  1369.66  1389.08  1389.11  1409.96
                             1487.84  1507.00  1508.02  1509.06  1560.97
                             1725.33  1750.29  1750.79  1763.85  1779.45
                             1811.91  1832.87  1834.08  1951.65  1959.44
                             2003.21  2003.27  2012.19  2012.32  2054.26
                             2054.61  2130.46  2130.55  2151.77  2151.84
                             2155.76  2155.98  2162.72  2163.02  2175.54
                             2175.62  2199.86  2200.31  2360.05  2409.67
                             2455.09  2457.64  4349.08  4349.10  4352.14
                             4352.26  4360.19  4360.62  4433.39  4433.53
                             4435.71  4435.82  4445.32  4445.46  4452.33
                             4452.61  4507.80  4507.87  4511.58  4511.67
                             4603.55  4605.98

 Zero-point correction=                           0.308781 (Hartree/Particle)
 Thermal correction to Energy=                    0.326018
 Thermal correction to Enthalpy=                  0.326962
 Thermal correction to Gibbs Free Energy=         0.265405
 Sum of electronic and zero-point Energies=           -695.851221
 Sum of electronic and thermal Energies=              -695.833984
 Sum of electronic and thermal Enthalpies=            -695.833040
 Sum of electronic and thermal Free Energies=         -695.894597

                     E (Thermal)             CV                S
                      KCal/Mol        Cal/Mol-Kelvin    Cal/Mol-Kelvin
 Total                  204.579             67.207            129.558
 Electronic               0.000              0.000              0.000
 Translational            0.889              2.981             42.070
 Rotational               0.889              2.981             32.559
 Vibrational            202.802             61.246             54.929
 Vibration     1          0.594              1.983              5.700
 Vibration     2          0.596              1.976              4.665
 Vibration     3          0.600              1.961              3.815
 Vibration     4          0.612              1.924              2.957
 Vibration     5          0.615              1.914              2.817
 Vibration     6          0.620              1.898              2.616
 Vibration     7          0.640              1.832              2.082
 Vibration     8          0.646              1.813              1.970
 Vibration     9          0.648              1.807              1.942
 Vibration    10          0.657              1.780              1.806
 Vibration    11          0.666              1.751              1.683
 Vibration    12          0.666              1.751              1.683
 Vibration    13          0.667              1.748              1.672
 Vibration    14          0.683              1.701              1.500
 Vibration    15          0.693              1.671              1.410
 Vibration    16          0.702              1.645              1.336
 Vibration    17          0.709              1.627              1.290
 Vibration    18          0.710              1.623              1.280
 Vibration    19          0.724              1.583              1.184
 Vibration    20          0.746              1.524              1.060
 Vibration    21          0.752              1.506              1.027
 Vibration    22          0.770              1.458              0.943
 Vibration    23          0.783              1.426              0.891
 Vibration    24          0.822              1.330              0.754
 Vibration    25          0.829              1.311              0.731
 Vibration    26          0.832              1.304              0.722
 Vibration    27          0.869              1.220              0.625
 Vibration    28          0.887              1.179              0.582

 Optimization completed.
    -- Stationary point found.
 Normal termination of Gaussian 16 at Sat Jan  6 07:48:02 2024.
