 Q-Chem 5.4, Q-Chem, Inc., Pleasanton, CA (2021)
 Q-Chem 5.4.0 for Intel X86 EM64T Linux

User input:
--------------------------------------------------------------
$molecule
-2 1
C                 -1.7295550000      4.5819700000      5.3847550000
C                 -3.0427970000      4.1653070000      5.4742140000
C                 -3.6014240000      3.3648020000      4.4491340000
C                 -0.9156230000      4.2202700000      4.2822780000
C                 -1.4792060000      3.4056260000      3.2412040000
C                 -2.8238550000      3.0048800000      3.3600030000
C                  0.4414480000      4.6686820000      4.1847020000
C                  1.1650010000      4.2155970000      3.0398340000
C                  0.6801330000      3.3724060000      2.0322150000
C                 -0.7099140000      2.9902720000      2.0580300000
O                  1.0553600000      5.4382890000      5.0259270000
O                 -1.2937020000      2.3421120000      1.1204690000
O                  2.4457050000      4.7036260000      2.9977220000
H                 -1.2794090000      5.2004270000      6.1543610000
H                 -3.6490380000      4.4528830000      6.3303210000
H                 -4.6351360000      3.0354010000      4.5163520000
H                 -3.2259060000      2.3974460000      2.5562850000
H                  2.4567710000      5.2370310000      3.8309360000
C                  2.9382850000      2.3551810000      1.2952600000
C                  3.0399110000      1.5793940000      2.4513640000
C                  4.0617510000      2.4556600000      0.4668560000
C                  5.2502780000      1.7981720000      0.7771330000
C                  5.3379800000      1.0217160000      1.9340030000
C                  4.2262010000      0.9182270000      2.7691830000
H                  2.1815770000      1.5125810000      3.1100050000
H                  3.9909230000      3.0542460000     -0.4360380000
H                  6.1099580000      1.8936730000      0.1196000000
H                  4.2832170000      0.3252090000      3.6771970000
H                  6.2632070000      0.5108630000      2.1839770000
C                  1.6420040000      3.0575840000      0.8754540000
H                  1.9679990000      4.0327780000      0.4869510000
N                  1.0660780000      2.3487340000     -0.3027040000
C                  0.9651370000      0.8875260000     -0.1856130000
C                  0.2332920000      0.3221810000     -1.4044240000
C                  0.1488380000     -1.2085710000     -1.4066580000
C                 -0.5547690000     -1.7840930000     -2.6423710000
C                 -0.6186330000     -3.3164500000     -2.6673990000
C                 -1.2957870000     -3.8897300000     -3.9187160000
C                 -1.3411610000     -5.4224320000     -3.9558820000
C                 -1.9986670000     -5.9942320000     -5.2181960000
C                 -2.0313840000     -7.5271990000     -5.2608030000
C                 -2.6776200000     -8.0979150000     -6.5292670000
C                 -2.7029210000     -9.6311720000     -6.5731580000
C                 -3.3447550000    -10.1991910000     -7.8423460000
H                  0.0949400000      2.6612910000     -0.3338000000
H                  0.4233030000      0.5844910000      0.7221610000
H                  1.9723430000      0.4601880000     -0.1402630000
H                  0.7445780000      0.6668550000     -2.3128050000
H                 -0.7787600000      0.7436690000     -1.4280780000
H                 -0.3757240000     -1.5436040000     -0.5029000000
H                  1.1624000000     -1.6286210000     -1.3447750000
H                 -0.0387750000     -1.4321380000     -3.5461270000
H                 -1.5732850000     -1.3782010000     -2.6984560000
H                 -1.1491380000     -3.6708460000     -1.7738230000
H                  0.4001910000     -3.7202100000     -2.5935650000
H                 -0.7700080000     -3.5243820000     -4.8111140000
H                 -2.3183890000     -3.4959760000     -3.9888430000
H                 -1.8771710000     -5.7899190000     -3.0708270000
H                 -0.3186650000     -5.8147070000     -3.8740160000
H                 -1.4655390000     -5.6211120000     -6.1027830000
H                 -3.0235710000     -5.6085850000     -5.2989080000
H                 -2.5704060000     -7.9019250000     -4.3805800000
H                 -1.0065210000     -7.9120630000     -5.1742850000
H                 -2.1409380000     -7.7224580000     -7.4104170000
H                 -3.7041230000     -7.7185360000     -6.6169100000
H                 -3.2407220000    -10.0081190000     -5.6938700000
H                 -1.6770170000    -10.0108730000     -6.4841420000
H                 -4.3861990000     -9.8734040000     -7.9446050000
H                 -3.3447440000    -11.2946100000     -7.8393780000
H                 -2.8072770000     -9.8761950000     -8.7412670000
$end
$rem
MAX_SCF_CYCLES=200
SCF_algorithm=DIIS_GDM
BASIS  =  6-311++G(d,p)
GUI  =  2
JOB_TYPE  =  SP
METHOD  =  B3LYP
THRESH = 14
SCF_CONVERGENCE = 8
SOLVENT_METHOD = COSMO
$end
$solvent
dielectric 37.219
opticaldielectric 1.43
$end

--------------------------------------------------------------

             Standard Nuclear Orientation (Angstroms)
    I     Atom           X                Y                Z
 ----------------------------------------------------------------
    1      C       6.4929991224     3.1818383064     0.7787680789
    2      C       5.9819697647     4.4563075574     0.9229646212
    3      C       4.6296905317     4.7165168746     0.5954079484
    4      C       5.6873776358     2.1139717464     0.3103635993
    5      C       4.3134648492     2.3745077478    -0.0206807554
    6      C       3.8267913230     3.6871750004     0.1304650512
    7      C       6.2258105084     0.7966669804     0.1459425186
    8      C       5.3072004833    -0.1981043562    -0.3080655300
    9      C       3.9474618943    -0.0075441369    -0.5840399156
   10      C       3.4083688701     1.3282455520    -0.5210471485
   11      O       7.4507253459     0.4379537564     0.3644621804
   12      O       2.2214026151     1.6412212745    -0.8858727914
   13      O       5.8956650636    -1.4262201607    -0.4680326182
   14      H       7.5273715045     2.9575295077     1.0178772910
   15      H       6.6175696814     5.2608366529     1.2861353548
   16      H       4.2243617329     5.7188835388     0.7074499613
   17      H       2.7887223505     3.8573354387    -0.1341893048
   18      H       6.8213353515    -1.2137222136    -0.1907817196
   19      C       3.1473238359    -2.4244292484    -0.1418349036
   20      C       3.2976240578    -2.2903933798     1.2395390505
   21      C       2.9221508306    -3.7047119409    -0.6601961821
   22      C       2.8429823340    -4.8186645796     0.1728707926
   23      C       2.9905958750    -4.6709681588     1.5532040015
   24      C       3.2199318193    -3.4005867151     2.0802942807
   25      H       3.4932337635    -1.3056869284     1.6483167982
   26      H       2.8008666971    -3.8180503986    -1.7330353747
   27      H       2.6700928890    -5.8029579667    -0.2535041099
   28      H       3.3459949834    -3.2723544660     3.1513102310
   29      H       2.9349593020    -5.5361066764     2.2073773018
   30      C       3.1718429442    -1.2293899331    -1.1016428694
   31      H       3.7323180844    -1.5876512523    -1.9767012121
   32      N       1.7905309496    -0.9837609797    -1.6054870355
   33      C       0.7351380004    -0.9325262865    -0.5844341788
   34      C      -0.5923033964    -0.5378384591    -1.2346904236
   35      C      -1.7716197421    -0.5342276422    -0.2551297704
   36      C      -3.1119216190    -0.1714426308    -0.9072439594
   37      C      -4.3027192039    -0.1932626546     0.0593728131
   38      C      -5.6459881283     0.1402889839    -0.6019543629
   39      C      -6.8410773326     0.0976485360     0.3585450480
   40      C      -8.1863215345     0.4096171811    -0.3090623339
   41      C      -9.3825850093     0.3533980346     0.6494086818
   42      C     -10.7286855451     0.6530358777    -0.0218357969
   43      C     -11.9245539850     0.5893019894     0.9369552409
   44      C     -13.2682186478     0.8846340862     0.2640667852
   45      H       1.8231685390    -0.0326267474    -1.9743316022
   46      H       0.9669229280    -0.2083779256     0.2101429594
   47      H       0.6311365726    -1.9211482822    -0.1251428030
   48      H      -0.7986894106    -1.2303634339    -2.0612396077
   49      H      -0.4801595876     0.4602961656    -1.6747039844
   50      H      -1.5633265773     0.1705847417     0.5597594163
   51      H      -1.8585848395    -1.5247566030     0.2127044798
   52      H      -3.3090042153    -0.8670782549    -1.7343754885
   53      H      -3.0330376086     0.8245393781    -1.3622888319
   54      H      -4.1165945509     0.5139367457     0.8783580202
   55      H      -4.3688767573    -1.1852575433     0.5263259790
   56      H      -5.8239684353    -0.5614893509    -1.4278642172
   57      H      -5.5858377959     1.1363144700    -1.0602010513
   58      H      -6.6712432501     0.8075197021     1.1788590612
   59      H      -6.8928172861    -0.8954358126     0.8245774948
   60      H      -8.3521386026    -0.2970602219    -1.1331071794
   61      H      -8.1393530032     1.4049732878    -0.7702850812
   62      H      -9.2218278482     1.0646871697     1.4703725803
   63      H      -9.4253525781    -0.6405118847     1.1144504423
   64      H     -10.8899113070    -0.0561631379    -0.8443100277
   65      H     -10.6910941754     1.6479938536    -0.4843978416
   66      H     -11.7658317216     1.2990730506     1.7588424759
   67      H     -11.9616492432    -0.4047678165     1.4006629913
   68      H     -13.2832516719     1.8879282557    -0.1768124445
   69      H     -14.0977750424     0.8296246171     0.9773421467
   70      H     -13.4801729302     0.1678122435    -0.5375003104
 ----------------------------------------------------------------

   57   -1408.2104695916      3.40e-09  Convergence criterion met
 Total energy in the final basis set =    -1408.2104695916
   23   -1408.4507862876      4.37e-09  Convergence criterion met
 Total energy in the final basis set =    -1408.4507862876

                    Orbital Energies (a.u.)
 --------------------------------------------------------------

 Alpha MOs
 -- Occupied --
-19.1115 -19.0310 -19.0190 -14.2715 -10.1860 -10.1795 -10.1775 -10.1676
-10.1660 -10.1652 -10.1646 -10.1633 -10.1629 -10.1611 -10.1588 -10.1573
-10.1548 -10.1546 -10.1544 -10.1541 -10.1537 -10.1532 -10.1525 -10.1516
-10.1510 -10.1490 -10.1467 -10.1450 -10.1449 -10.1439 -10.1379 -10.1337
-10.1298  -1.0287  -0.9452  -0.9384  -0.8833  -0.8447  -0.8262  -0.8069
 -0.7945  -0.7783  -0.7684  -0.7511  -0.7416  -0.7369  -0.7227  -0.7161
 -0.7061  -0.6780  -0.6527  -0.6336  -0.6237  -0.5996  -0.5968  -0.5882
 -0.5775  -0.5720  -0.5709  -0.5659  -0.5635  -0.5530  -0.5358  -0.5057
 -0.5000  -0.4822  -0.4791  -0.4695  -0.4574  -0.4545  -0.4500  -0.4433
 -0.4393  -0.4320  -0.4272  -0.4262  -0.4220  -0.4195  -0.4129  -0.4108
 -0.4079  -0.4014  -0.3985  -0.3950  -0.3874  -0.3833  -0.3785  -0.3737
 -0.3687  -0.3661  -0.3601  -0.3577  -0.3548  -0.3539  -0.3486  -0.3437
 -0.3393  -0.3354  -0.3312  -0.3284  -0.3248  -0.3211  -0.3196  -0.3180
 -0.3173  -0.3154  -0.3145  -0.3133  -0.3127  -0.3110  -0.3040  -0.3015
 -0.2888  -0.2483  -0.2393  -0.2321  -0.2283  -0.2236  -0.2183  -0.1950
 -0.1879  -0.1107

          Ground-State Mulliken Net Atomic Charges

     Atom                 Charge (a.u.)
  ----------------------------------------
      1 C                    -0.142989
      2 C                    -0.480664
      3 C                    -0.623145
      4 C                     0.033013
      5 C                     0.452961
      6 C                    -0.049015
      7 C                    -0.756978
      8 C                    -0.468651
      9 C                     0.930278
     10 C                    -0.571672
     11 O                    -0.766015
     12 O                    -0.636579
     13 O                    -0.312574
     14 H                     0.171540
     15 H                     0.173460
     16 H                     0.173935
     17 H                     0.166333
     18 H                     0.303581
     19 C                     0.157252
     20 C                    -0.214841
     21 C                     0.128094
     22 C                    -0.344459
     23 C                    -0.449869
     24 C                    -0.329197
     25 H                     0.169379
     26 H                     0.184299
     27 H                     0.216622
     28 H                     0.217505
     29 H                     0.187225
     30 C                     0.285770
     31 H                     0.214087
     32 N                     0.014386
     33 C                    -0.650073
     34 C                    -0.301321
     35 C                    -0.046627
     36 C                    -0.225344
     37 C                    -0.443681
     38 C                    -0.360152
     39 C                    -0.228329
     40 C                    -0.071708
     41 C                    -0.126021
     42 C                    -0.288914
     43 C                    -0.237115
     44 C                    -0.709833
     45 H                     0.263935
     46 H                     0.197160
     47 H                     0.080801
     48 H                     0.147606
     49 H                     0.150051
     50 H                     0.122199
     51 H                     0.132321
     52 H                     0.118967
     53 H                     0.132643
     54 H                     0.138110
     55 H                     0.134759
     56 H                     0.135084
     57 H                     0.137512
     58 H                     0.134383
     59 H                     0.132520
     60 H                     0.132041
     61 H                     0.133245
     62 H                     0.131152
     63 H                     0.130213
     64 H                     0.127146
     65 H                     0.128675
     66 H                     0.136556
     67 H                     0.136308
     68 H                     0.145636
     69 H                     0.151229
     70 H                     0.145792
  ----------------------------------------
  Sum of atomic charges =    -2.000000

                    Cartesian Multipole Moments
 -----------------------------------------------------------------
    Charge (ESU x 10^10)
                -9.6064
    Dipole Moment (Debye)
         X     -45.4116      Y      -8.3815      Z       2.8662
       Tot      46.2675
    Quadrupole Moments (Debye-Ang)
        XX    -485.8559     XY     -37.3719     YY    -244.6480
        XZ      -1.6064     YZ      -0.9583     ZZ    -220.4913

 Total job time:  3199.97s(wall), 24941.78s(cpu)
        *  Thank you very much for using Q-Chem.  Have a nice day.  *
