 Gaussian 16, Revision A.03,
 Gaussian 16:  ES64L-G16RevA.03 25-Dec-2016

 --------------------------------------
 #P UB3LYP/6-311++G(d,p) nosym opt freq
 --------------------------------------

 --------
 Oxidized
 --------
 Symbolic Z-matrix:
 Charge =  0 Multiplicity = 1

 SCF Done:  E(UB3LYP) =  -839.417914365     A.U. after   15 cycles
 SCF Done:  E(UB3LYP) =  -839.430622680     A.U. after   13 cycles
 SCF Done:  E(UB3LYP) =  -839.431832868     A.U. after   13 cycles
 SCF Done:  E(UB3LYP) =  -839.431926312     A.U. after   11 cycles
 SCF Done:  E(UB3LYP) =  -839.431934936     A.U. after   11 cycles
 Optimization completed.
    -- Stationary point found.
 Normal termination of Gaussian 16 at Sat Jan  6 01:51:22 2024.

 ----------------------------------------------------------------------
 #P Geom=AllCheck Guess=TCheck SCRF=Check GenChk UB3LYP/6-311++G(d,p) F
 req
 ----------------------------------------------------------------------

 Structure from the checkpoint file:  "331.chk"
 --------
 Oxidized
 --------
 Charge =  0 Multiplicity = 1

                          Input orientation:
 ---------------------------------------------------------------------
 Center     Atomic      Atomic             Coordinates (Angstroms)
 Number     Number       Type             X           Y           Z
 ---------------------------------------------------------------------
      1          6           0       -1.882961    3.505473   -0.950440
      2          6           0       -2.989511    2.909517   -0.363157
      3          6           0       -0.663301    2.822782   -1.019475
      4          6           0       -0.521812    1.518804   -0.498771
      5          6           0       -2.871492    1.617707    0.159364
      6          6           0       -1.661992    0.944603    0.089258
      7          6           0        0.475365    3.523961   -1.661513
      8          6           0        1.832136    2.774190   -1.742765
      9          6           0        1.900027    1.406381   -1.172775
     10          6           0        0.771913    0.803951   -0.576116
     11          6           0        3.126720    0.737307   -1.250029
     12          6           0        3.261473   -0.544525   -0.736954
     13          6           0        2.156198   -1.160364   -0.141248
     14          6           0        0.942855   -0.494719   -0.066526
     15          8           0        0.391454    4.642374   -2.119193
     16          8           0        2.778980    3.323203   -2.261834
     17          8           0        4.427856   -1.251181   -0.780069
     18          8           0       -4.205904    3.519590   -0.263737
     19          1           0       -1.931381    4.506108   -1.367854
     20          1           0       -3.737588    1.155256    0.617325
     21          1           0       -1.618064   -0.052284    0.506600
     22          1           0        3.958939    1.251298   -1.720208
     23          1           0        2.264870   -2.161449    0.258422
     24          1           0        0.116087   -1.010531    0.402816
     25          1           0        5.113880   -0.728999   -1.210341
     26          1           0       -4.166459    4.399148   -0.655220
 ---------------------------------------------------------------------

 SCF Done:  E(UB3LYP) =  -839.431934936     A.U. after    1 cycles

 Alpha  occ. eigenvalues --  -19.17857 -19.17857 -19.13643 -19.13641 -10.27883
 Alpha  occ. eigenvalues --  -10.27864 -10.26307 -10.26306 -10.21780 -10.21750
 Alpha  occ. eigenvalues --  -10.21044 -10.21043 -10.20541 -10.20541 -10.20312
 Alpha  occ. eigenvalues --  -10.20312 -10.20212 -10.20211  -1.09057  -1.09055
 Alpha  occ. eigenvalues --   -1.08142  -1.05459  -0.90565  -0.87849  -0.81393
 Alpha  occ. eigenvalues --   -0.79614  -0.78422  -0.74957  -0.71601  -0.66986
 Alpha  occ. eigenvalues --   -0.65522  -0.62644  -0.62494  -0.58921  -0.57660
 Alpha  occ. eigenvalues --   -0.54585  -0.52197  -0.51336  -0.49584  -0.49050
 Alpha  occ. eigenvalues --   -0.46950  -0.46459  -0.46231  -0.45732  -0.44781
 Alpha  occ. eigenvalues --   -0.43957  -0.43750  -0.43350  -0.42527  -0.40531
 Alpha  occ. eigenvalues --   -0.39527  -0.38864  -0.38857  -0.38629  -0.36811
 Alpha  occ. eigenvalues --   -0.34848  -0.30823  -0.28935  -0.28392  -0.28295
 Alpha  occ. eigenvalues --   -0.26051  -0.23158
 Alpha virt. eigenvalues --   -0.12658  -0.05659  -0.05473  -0.01858  -0.01741
 Alpha virt. eigenvalues --   -0.01266  -0.01092   0.00657   0.01094   0.01626
 Alpha virt. eigenvalues --    0.03179   0.03449   0.04152   0.04240   0.05289

  Beta  occ. eigenvalues --  -19.17857 -19.17857 -19.13643 -19.13641 -10.27883
  Beta  occ. eigenvalues --  -10.27864 -10.26307 -10.26306 -10.21780 -10.21750
  Beta  occ. eigenvalues --  -10.21044 -10.21043 -10.20541 -10.20541 -10.20312
  Beta  occ. eigenvalues --  -10.20312 -10.20212 -10.20211  -1.09057  -1.09055
  Beta  occ. eigenvalues --   -1.08142  -1.05459  -0.90565  -0.87849  -0.81393
  Beta  occ. eigenvalues --   -0.79614  -0.78422  -0.74957  -0.71601  -0.66986
  Beta  occ. eigenvalues --   -0.65522  -0.62644  -0.62494  -0.58921  -0.57660
  Beta  occ. eigenvalues --   -0.54585  -0.52197  -0.51336  -0.49584  -0.49050
  Beta  occ. eigenvalues --   -0.46950  -0.46459  -0.46231  -0.45732  -0.44781
  Beta  occ. eigenvalues --   -0.43957  -0.43750  -0.43350  -0.42527  -0.40531
  Beta  occ. eigenvalues --   -0.39527  -0.38864  -0.38857  -0.38629  -0.36811
  Beta  occ. eigenvalues --   -0.34848  -0.30823  -0.28935  -0.28392  -0.28295
  Beta  occ. eigenvalues --   -0.26051  -0.23158
  Beta virt. eigenvalues --   -0.12658  -0.05659  -0.05473  -0.01858  -0.01741
  Beta virt. eigenvalues --   -0.01266  -0.01092   0.00657   0.01094   0.01626
  Beta virt. eigenvalues --    0.03179   0.03449   0.04152   0.04240   0.05289

 Mulliken charges and spin densities:
               1          2
     1  C    0.154820   0.000000
     2  C   -0.421564   0.000000
     3  C    0.758663   0.000000
     4  C    0.587465   0.000000
     5  C   -0.408920  -0.000000
     6  C   -0.333496  -0.000000
     7  C   -0.631429  -0.000000
     8  C   -0.631646  -0.000000
     9  C    0.758817   0.000000
    10  C    0.587396   0.000000
    11  C    0.155019  -0.000000
    12  C   -0.421548   0.000000
    13  C   -0.408892  -0.000000
    14  C   -0.333335   0.000000
    15  O   -0.197227   0.000000
    16  O   -0.197216  -0.000000
    17  O   -0.229381   0.000000
    18  O   -0.229377  -0.000000
    19  H    0.151602  -0.000000
    20  H    0.209422  -0.000000
    21  H    0.083941  -0.000000
    22  H    0.151609   0.000000
    23  H    0.209428   0.000000
    24  H    0.083924   0.000000
    25  H    0.275962  -0.000000
    26  H    0.275961   0.000000
 Sum of Mulliken charges =  -0.00000   0.00000

 Dipole moment (field-independent basis, Debye):
    X=             -1.5334    Y=             -2.9631    Z=              1.7352  Tot=              3.7606
 Quadrupole moment (field-independent basis, Debye-Ang):
   XX=            -94.3108   YY=           -115.9436   ZZ=           -109.6543
   XY=            -13.6692   XZ=              2.6816   YZ=              8.7585

  Exact polarizability: 249.871 -43.724 200.848 -30.933 -37.864 108.469
 Approx polarizability: 390.901 -42.267 349.984 -58.416 -80.658 186.144

                      1                      2                      3
                      A                      A                      A
 Frequencies --     26.3874                54.2785                93.9067
 Red. masses --      9.7853                 6.0493                 4.2414
 Frc consts  --      0.0040                 0.0105                 0.0220
 IR Inten    --      0.0000                 1.1045                 0.0000

                      4                      5                      6
                      A                      A                      A
 Frequencies --    138.4167               166.0548               173.3803
 Red. masses --      6.7687                 7.6070                 6.7165
 Frc consts  --      0.0764                 0.1236                 0.1190
 IR Inten    --      3.8220                 0.0000                 0.5883

                      7                      8                      9
                      A                      A                      A
 Frequencies --    262.4483               270.0680               306.4433
 Red. masses --      8.5443                 5.0655                 7.5583
 Frc consts  --      0.3467                 0.2177                 0.4182
 IR Inten    --     13.6348                 1.4513                 0.0773

                     10                     11                     12
                      A                      A                      A
 Frequencies --    339.3196               342.4191               375.3585
 Red. masses --      1.0942                 1.1497                 8.3522
 Frc consts  --      0.0742                 0.0794                 0.6933
 IR Inten    --      1.7076               226.7366                 1.6742

                     13                     14                     15
                      A                      A                      A
 Frequencies --    383.9691               385.8878               390.6189
 Red. masses --     15.0339                 4.4564                 4.7842
 Frc consts  --      1.3059                 0.3910                 0.4301
 IR Inten    --      4.4213                 0.0001                 0.0382

                     16                     17                     18
                      A                      A                      A
 Frequencies --    422.2437               424.6430               441.3056
 Red. masses --      5.6005                 6.1825                 4.3692
 Frc consts  --      0.5883                 0.6568                 0.5013
 IR Inten    --      2.8101                 0.3583                 0.0000

                     19                     20                     21
                      A                      A                      A
 Frequencies --    485.2474               491.5616               533.8909
 Red. masses --      3.7409                 5.8299                 8.3628
 Frc consts  --      0.5190                 0.8300                 1.4045
 IR Inten    --     31.9368                 0.7095                27.2916

                     22                     23                     24
                      A                      A                      A
 Frequencies --    573.8641               605.4992               655.4675
 Red. masses --      2.9077                 5.3453                 5.4197
 Frc consts  --      0.5642                 1.1547                 1.3719
 IR Inten    --      0.0000                 0.0143                 6.7695

                     25                     26                     27
                      A                      A                      A
 Frequencies --    676.4008               687.3233               706.9508
 Red. masses --      7.9412                 6.0821                 4.4861
 Frc consts  --      2.1406                 1.6929                 1.3210
 IR Inten    --      0.0912                 1.0501                10.0986

                     28                     29                     30
                      A                      A                      A
 Frequencies --    708.6495               721.0901               833.0532
 Red. masses --      4.9518                 7.7827                 1.9470
 Frc consts  --      1.4651                 2.3843                 0.7961
 IR Inten    --      0.0022                 0.1173                 0.0009

                     31                     32                     33
                      A                      A                      A
 Frequencies --    834.7134               841.0521               842.5780
 Red. masses --      8.8533                 1.4065                 3.3229
 Frc consts  --      3.6344                 0.5862                 1.3899
 IR Inten    --     95.0291                49.5125                 0.0066

                     34                     35                     36
                      A                      A                      A
 Frequencies --    898.4677               903.3033               904.6842
 Red. masses --      1.4282                 7.6832                 1.6273
 Frc consts  --      0.6793                 3.6937                 0.7847
 IR Inten    --     35.0592                 3.1365                 0.0001

                     37                     38                     39
                      A                      A                      A
 Frequencies --    959.8899               973.3834              1005.9825
 Red. masses --      1.3547                 1.3123                 4.3238
 Frc consts  --      0.7354                 0.7326                 2.5781
 IR Inten    --      0.0000                 0.3206                 2.5256

                     40                     41                     42
                      A                      A                      A
 Frequencies --   1031.6008              1058.4153              1125.9578
 Red. masses --      3.6363                 2.6434                 2.2922
 Frc consts  --      2.2800                 1.7447                 1.7122
 IR Inten    --      1.5719                 1.3061                 4.1804

                     43                     44                     45
                      A                      A                      A
 Frequencies --   1140.3160              1185.5405              1192.2907
 Red. masses --      1.6044                 1.3652                 1.3607
 Frc consts  --      1.2292                 1.1306                 1.1396
 IR Inten    --      2.5800               154.4521                10.8469

                     46                     47                     48
                      A                      A                      A
 Frequencies --   1196.0251              1234.8906              1244.0116
 Red. masses --      2.0943                 2.5075                 1.6418
 Frc consts  --      1.7651                 2.2529                 1.4970
 IR Inten    --    267.6117                76.7320                 0.8320

                     49                     50                     51
                      A                      A                      A
 Frequencies --   1274.7933              1301.5787              1325.1756
 Red. masses --      2.1137                 3.6138                 2.0505
 Frc consts  --      2.0238                 3.6071                 2.1216
 IR Inten    --    144.4982                15.9468                57.3459

                     52                     53                     54
                      A                      A                      A
 Frequencies --   1339.6442              1347.1917              1373.4889
 Red. masses --      4.7113                 6.5264                 2.5673
 Frc consts  --      4.9816                 6.9788                 2.8535
 IR Inten    --     41.6504               213.8068                10.1191

                     55                     56                     57
                      A                      A                      A
 Frequencies --   1458.5576              1471.7785              1518.1818
 Red. masses --      3.3665                 3.4746                 2.8336
 Frc consts  --      4.2196                 4.4345                 3.8480
 IR Inten    --     40.8889               319.0529               169.2902

                     58                     59                     60
                      A                      A                      A
 Frequencies --   1540.6157              1612.0705              1627.7145
 Red. masses --      3.4788                 5.2367                 6.9244
 Frc consts  --      4.8648                 8.0182                10.8090
 IR Inten    --      4.2108                 1.5142                 2.7943

                     61                     62                     63
                      A                      A                      A
 Frequencies --   1640.1621              1644.2319              1742.4037
 Red. masses --      6.0696                 6.3893                13.0623
 Frc consts  --      9.6202                10.1772                23.3651
 IR Inten    --     40.8068               188.5622               380.3393

                     64                     65                     66
                      A                      A                      A
 Frequencies --   1766.1592              3170.1141              3170.3114
 Red. masses --     12.8581                 1.0906                 1.0906
 Frc consts  --     23.6313                 6.4574                 6.4586
 IR Inten    --     12.4942                16.8549                 2.3436

                     67                     68                     69
                      A                      A                      A
 Frequencies --   3185.3524              3190.1102              3200.8173
 Red. masses --      1.0880                 1.0894                 1.0950
 Frc consts  --      6.5043                 6.5322                 6.6098
 IR Inten    --      8.9513                 0.0979                 0.4458

                     70                     71                     72
                      A                      A                      A
 Frequencies --   3212.9748              3826.9650              3827.4389
 Red. masses --      1.0905                 1.0662                 1.0663
 Frc consts  --      6.6326                 9.2002                 9.2031
 IR Inten    --     10.6109               157.8101                51.4989

 - Thermochemistry -
 -------------------
 Temperature   298.150 Kelvin.  Pressure   1.00000 Atm.
 Atom     1 has atomic number  6 and mass  12.00000

 Molecular mass:   240.04226 amu.
 Principal axes and moments of inertia in atomic units:
                           1         2         3
     Eigenvalues --  2161.689376357.846858519.53617
           X            0.87407   0.40772   0.26413
           Y           -0.48298   0.78783   0.38217
           Z           -0.05227  -0.46161   0.88554
 This molecule is an asymmetric top.
 Rotational symmetry number  1.
 Warning -- assumption of classical behavior for rotation
           may cause significant error
 Rotational temperatures (Kelvin)      0.04007     0.01362     0.01017
 Rotational constants (GHZ):           0.83488     0.28386     0.21184
 Zero-point vibrational energy     490571.1 (Joules/Mol)
                                  117.24931 (Kcal/Mol)
 Warning -- explicit consideration of  23 degrees of freedom as
           vibrations may cause significant error
 Vibrational temperatures:     37.97    78.09   135.11   199.15   238.92
          (Kelvin)            249.46   377.60   388.57   440.90   488.21
                              492.66   540.06   552.45   555.21   562.01
                              607.51   610.97   634.94   698.16   707.25
                              768.15   825.66   871.18   943.07   973.19
                              988.90  1017.14  1019.59  1037.49  1198.58
                             1200.97  1210.09  1212.28  1292.69  1299.65
                             1301.64  1381.07  1400.48  1447.38  1484.24
                             1522.82  1620.00  1640.66  1705.73  1715.44
                             1720.81  1776.73  1789.86  1834.14  1872.68
                             1906.63  1927.45  1938.31  1976.14  2098.54
                             2117.56  2184.33  2216.60  2319.41  2341.92
                             2359.83  2365.68  2506.93  2541.11  4561.09
                             4561.37  4583.01  4589.86  4605.26  4622.75
                             5506.15  5506.83

 Zero-point correction=                           0.186849 (Hartree/Particle)
 Thermal correction to Energy=                    0.200781
 Thermal correction to Enthalpy=                  0.201725
 Thermal correction to Gibbs Free Energy=         0.145608
 Sum of electronic and zero-point Energies=           -839.245086
 Sum of electronic and thermal Energies=              -839.231154
 Sum of electronic and thermal Enthalpies=            -839.230210
 Sum of electronic and thermal Free Energies=         -839.286327

                     E (Thermal)             CV                S
                      KCal/Mol        Cal/Mol-Kelvin    Cal/Mol-Kelvin
 Total                  125.992             55.587            118.109
 Electronic               0.000              0.000              0.000
 Translational            0.889              2.981             42.328
 Rotational               0.889              2.981             33.126
 Vibrational            124.215             49.626             42.655
 Vibration     1          0.593              1.985              6.084
 Vibration     2          0.596              1.976              4.655
 Vibration     3          0.603              1.954              3.577
 Vibration     4          0.614              1.915              2.826
 Vibration     5          0.624              1.884              2.480
 Vibration     6          0.627              1.875              2.399
 Vibration     7          0.670              1.742              1.645
 Vibration     8          0.674              1.728              1.596
 Vibration     9          0.697              1.661              1.381
 Vibration    10          0.719              1.597              1.215
 Vibration    11          0.722              1.591              1.201
 Vibration    12          0.746              1.523              1.058
 Vibration    13          0.753              1.504              1.023
 Vibration    14          0.755              1.500              1.016
 Vibration    15          0.758              1.490              0.998
 Vibration    16          0.785              1.422              0.884
 Vibration    17          0.787              1.417              0.876
 Vibration    18          0.801              1.380              0.823
 Vibration    19          0.841              1.283              0.696
 Vibration    20          0.847              1.269              0.680
 Vibration    21          0.889              1.175              0.579
 Vibration    22          0.930              1.088              0.497
 Vibration    23          0.964              1.020              0.440

                           ! Non-Optimized Parameters !
 Normal termination of Gaussian 16 at Sat Jan  6 02:20:02 2024.
