 Q-Chem 5.4, Q-Chem, Inc., Pleasanton, CA (2021)
 Q-Chem 5.4.0 for Intel X86 EM64T Linux

User input:
--------------------------------------------------------------
$molecule
-2 1
C                 -2.9997690000      3.7070680000      0.2020230000
C                 -4.2588690000      3.1432870000      0.2223720000
C                 -4.3988700000      1.7314080000      0.1277540000
C                 -1.8240900000      2.9231790000      0.0891150000
C                 -1.9664880000      1.4878350000     -0.0076450000
C                 -3.2733520000      0.9407430000      0.0161900000
C                 -0.5320640000      3.5850730000      0.0716780000
C                  0.6042720000      2.6916330000     -0.0475520000
C                  0.4638880000      1.2565490000     -0.1437540000
C                 -0.8272150000      0.5949630000     -0.1300780000
C                  1.9097000000      3.2440070000     -0.0850270000
C                  3.0123010000      2.4401630000     -0.2055830000
C                  2.9020800000      1.0322650000     -0.2991000000
C                  1.6408040000      0.4765990000     -0.2610620000
O                 -0.4057070000      4.8544330000      0.1523910000
O                 -0.9542460000     -0.6736570000     -0.2186700000
H                 -3.3462710000     -0.1397370000     -0.0583450000
H                  1.5061020000     -0.5978650000     -0.3286030000
H                 -2.8596110000      4.7811460000      0.2721650000
H                  2.0033690000      4.3224160000     -0.0257600000
H                  3.7893050000      0.4169290000     -0.3884050000
H                 -5.3884810000      1.2789290000      0.1436150000
O                  4.2767140000      3.0819810000     -0.3493150000
C                  5.3270240000      2.7745100000      0.4377020000
C                  6.5620370000      3.5291270000     -0.0122510000
O                  5.3204480000      1.9776110000      1.3481040000
H                 -5.1412270000      3.7741550000      0.3108520000
H                  6.3106450000      4.4816190000     -0.4784650000
H                  7.1105750000      2.9278270000     -0.7505140000
H                  7.2250940000      3.6836820000      0.8383990000
$end
$rem
MAX_SCF_CYCLES=200
BASIS  =  6-311++G(d,p)
GUI  =  2
JOB_TYPE  =  SP
METHOD  =  B3LYP
SOLVENT_METHOD = PCM
$end
$pcm
theory = CPCM
$end
$solvent
dielectric 37.219
opticaldielectric 1.43
$end

--------------------------------------------------------------

             Standard Nuclear Orientation (Angstroms)
    I     Atom           X                Y                Z
 ----------------------------------------------------------------
    1      C      -2.9997690000     3.7070680000     0.2020230000
    2      C      -4.2588690000     3.1432870000     0.2223720000
    3      C      -4.3988700000     1.7314080000     0.1277540000
    4      C      -1.8240900000     2.9231790000     0.0891150000
    5      C      -1.9664880000     1.4878350000    -0.0076450000
    6      C      -3.2733520000     0.9407430000     0.0161900000
    7      C      -0.5320640000     3.5850730000     0.0716780000
    8      C       0.6042720000     2.6916330000    -0.0475520000
    9      C       0.4638880000     1.2565490000    -0.1437540000
   10      C      -0.8272150000     0.5949630000    -0.1300780000
   11      C       1.9097000000     3.2440070000    -0.0850270000
   12      C       3.0123010000     2.4401630000    -0.2055830000
   13      C       2.9020800000     1.0322650000    -0.2991000000
   14      C       1.6408040000     0.4765990000    -0.2610620000
   15      O      -0.4057070000     4.8544330000     0.1523910000
   16      O      -0.9542460000    -0.6736570000    -0.2186700000
   17      H      -3.3462710000    -0.1397370000    -0.0583450000
   18      H       1.5061020000    -0.5978650000    -0.3286030000
   19      H      -2.8596110000     4.7811460000     0.2721650000
   20      H       2.0033690000     4.3224160000    -0.0257600000
   21      H       3.7893050000     0.4169290000    -0.3884050000
   22      H      -5.3884810000     1.2789290000     0.1436150000
   23      O       4.2767140000     3.0819810000    -0.3493150000
   24      C       5.3270240000     2.7745100000     0.4377020000
   25      C       6.5620370000     3.5291270000    -0.0122510000
   26      O       5.3204480000     1.9776110000     1.3481040000
   27      H      -5.1412270000     3.7741550000     0.3108520000
   28      H       6.3106450000     4.4816190000    -0.4784650000
   29      H       7.1105750000     2.9278270000    -0.7505140000
   30      H       7.2250940000     3.6836820000     0.8383990000
 ----------------------------------------------------------------

    9    -917.1488720515      6.26e-06  Convergence criterion met
 Total energy in the final basis set =     -917.1488720515

                    Orbital Energies (a.u.)
 --------------------------------------------------------------

 Alpha MOs
 -- Occupied --
-19.1751 -19.1180 -19.0259 -19.0250 -10.3107 -10.2173 -10.1788 -10.1775
-10.1724 -10.1569 -10.1547 -10.1539 -10.1505 -10.1499 -10.1478 -10.1475
-10.1423 -10.1398 -10.1391 -10.1386  -1.1116  -1.0310  -0.9487  -0.9454
 -0.8378  -0.8257  -0.7687  -0.7471  -0.7306  -0.7249  -0.7091  -0.6490
 -0.6259  -0.6086  -0.5702  -0.5657  -0.5289  -0.5098  -0.5006  -0.4874
 -0.4745  -0.4731  -0.4441  -0.4398  -0.4305  -0.4143  -0.4101  -0.4030
 -0.3997  -0.3900  -0.3848  -0.3781  -0.3757  -0.3704  -0.3622  -0.3465
 -0.3335  -0.3319  -0.3254  -0.3191  -0.3050  -0.3018  -0.2887  -0.2399
 -0.2303  -0.2289  -0.2187  -0.2091  -0.2011  -0.1083

          Ground-State Mulliken Net Atomic Charges

     Atom                 Charge (a.u.)
  ----------------------------------------
      1 C                    -0.024991
      2 C                    -0.526288
      3 C                    -0.522311
      4 C                     0.310837
      5 C                     0.198748
      6 C                     0.017497
      7 C                    -0.511943
      8 C                     0.278835
      9 C                     0.277922
     10 C                    -0.338344
     11 C                    -0.064853
     12 C                    -0.736239
     13 C                    -0.040109
     14 C                     0.016715
     15 O                    -0.671948
     16 O                    -0.669041
     17 H                     0.146614
     18 H                     0.152436
     19 H                     0.144948
     20 H                     0.175843
     21 H                     0.220269
     22 H                     0.174162
     23 O                    -0.045935
     24 C                     0.192559
     25 C                    -0.545857
     26 O                    -0.349839
     27 H                     0.174879
     28 H                     0.179605
     29 H                     0.204590
     30 H                     0.181236
  ----------------------------------------
  Sum of atomic charges =    -2.000001

                    Cartesian Multipole Moments
 -----------------------------------------------------------------
    Charge (ESU x 10^10)
                -9.6064
    Dipole Moment (Debye)
         X       4.9277      Y     -18.9866      Z      -1.9507
       Tot      19.7124
    Quadrupole Moments (Debye-Ang)
        XX    -143.2375     XY      14.7041     YY    -211.1113
        XZ     -12.3447     YZ      -5.1498     ZZ    -132.0258

 Total job time:  98.07s(wall), 447.90s(cpu)
        *  Thank you very much for using Q-Chem.  Have a nice day.  *
