 Gaussian 16, Revision A.03,
 Gaussian 16:  ES64L-G16RevA.03 25-Dec-2016

 ----------------------------------------------------------------------
 #P UB3LYP/6-311++G(d,p) nosym opt freq SCRF=(PCM,Solvent=n,n-DiMethylF
 ormamide)
 ----------------------------------------------------------------------

 -------
 Radical
 -------
 Symbolic Z-matrix:
 Charge = -1 Multiplicity = 2

 SCF Done:  E(UB3LYP) =  -843.939104859     A.U. after   20 cycles
 SCF Done:  E(UB3LYP) =  -843.940329631     A.U. after   19 cycles
 SCF Done:  E(UB3LYP) =  -843.940734769     A.U. after   17 cycles
 SCF Done:  E(UB3LYP) =  -843.940885461     A.U. after   17 cycles
 SCF Done:  E(UB3LYP) =  -843.940914453     A.U. after   14 cycles
 SCF Done:  E(UB3LYP) =  -843.940918259     A.U. after   14 cycles
 SCF Done:  E(UB3LYP) =  -843.940921009     A.U. after   12 cycles
 SCF Done:  E(UB3LYP) =  -843.940921373     A.U. after   12 cycles
 SCF Done:  E(UB3LYP) =  -843.940921443     A.U. after   10 cycles
 Optimization completed.
    -- Stationary point found.
 Normal termination of Gaussian 16 at Sat Feb 10 11:49:40 2024.

 ----------------------------------------------------------------------
 #P Geom=AllCheck Guess=TCheck SCRF=Check GenChk UB3LYP/6-311++G(d,p) F
 req
 ----------------------------------------------------------------------

 Structure from the checkpoint file:  "063-rad.chk"
 -------
 Radical
 -------
 Charge = -1 Multiplicity = 2

                          Input orientation:
 ---------------------------------------------------------------------
 Center     Atomic      Atomic             Coordinates (Angstroms)
 Number     Number       Type             X           Y           Z
 ---------------------------------------------------------------------
      1          6           0       -1.611817   -1.969306    1.442485
      2          6           0       -2.123585   -2.027086    0.094843
      3          6           0       -1.737300   -1.140160   -0.867357
      4          6           0       -0.783395   -0.089518   -0.606237
      5          6           0       -0.245955   -0.013379    0.752629
      6          6           0       -0.641148   -0.913291    1.731642
      7          8           0       -2.010022   -2.785631    2.329384
      8          8           0       -0.420636    0.707278   -1.525600
      9          1           0       -2.134582   -1.200852   -1.876243
     10          6           0        0.638363   -1.861720    3.682390
     11          6           0       -0.440553    0.271875    3.945271
     12          6           0        1.107230   -1.788262    4.992772
     13          6           0        0.799054   -0.683520    5.788660
     14          6           0        0.019803    0.345275    5.260232
     15          1           0       -2.844051   -2.810139   -0.122226
     16          1           0        0.878911   -2.725596    3.073302
     17          1           0       -1.046229    1.076234    3.543218
     18          1           0        1.711611   -2.594820    5.393945
     19          1           0        1.160383   -0.627216    6.809548
     20          1           0       -0.231761    1.205861    5.870784
     21          6           0        0.772719    1.046083    1.019982
     22          6           0        0.432475    2.404515    0.955082
     23          6           0        2.099162    0.709298    1.320154
     24          6           0        1.382070    3.394188    1.202464
     25          6           0        3.054644    1.697123    1.560388
     26          6           0        2.698958    3.044524    1.506224
     27          1           0       -0.587120    2.686065    0.717800
     28          1           0        2.384863   -0.335634    1.365079
     29          1           0        1.094462    4.439148    1.156671
     30          1           0        4.076139    1.412893    1.789371
     31          1           0        3.439112    3.813975    1.696142
     32          6           0       -0.134644   -0.828651    3.134022
 ---------------------------------------------------------------------

 SCF Done:  E(UB3LYP) =  -843.940921443     A.U. after    1 cycles

 Alpha  occ. eigenvalues --  -19.07614 -19.07610 -10.22078 -10.22070 -10.18305
 Alpha  occ. eigenvalues --  -10.18295 -10.17770 -10.17713 -10.17444 -10.17439
 Alpha  occ. eigenvalues --  -10.17419 -10.17413 -10.17358 -10.17352 -10.17262
 Alpha  occ. eigenvalues --  -10.17257 -10.17212 -10.17206 -10.16358 -10.16291
 Alpha  occ. eigenvalues --   -0.99707  -0.99435  -0.86626  -0.85620  -0.82482
 Alpha  occ. eigenvalues --   -0.77841  -0.75820  -0.74681  -0.74625  -0.71539
 Alpha  occ. eigenvalues --   -0.67911  -0.62785  -0.60921  -0.60617  -0.60258
 Alpha  occ. eigenvalues --   -0.57117  -0.55848  -0.51399  -0.51258  -0.48093
 Alpha  occ. eigenvalues --   -0.47032  -0.46051  -0.45825  -0.44997  -0.44596
 Alpha  occ. eigenvalues --   -0.43171  -0.42163  -0.42018  -0.41693  -0.40385
 Alpha  occ. eigenvalues --   -0.40166  -0.38664  -0.37854  -0.37275  -0.36638
 Alpha  occ. eigenvalues --   -0.36443  -0.34787  -0.34605  -0.34385  -0.33986
 Alpha  occ. eigenvalues --   -0.28257  -0.26786  -0.26340  -0.25762  -0.25407
 Alpha  occ. eigenvalues --   -0.24139  -0.23815  -0.23155  -0.16276
 Alpha virt. eigenvalues --   -0.03174  -0.01974  -0.01088  -0.00893  -0.00466
 Alpha virt. eigenvalues --    0.00301   0.00673   0.00854   0.01209   0.02214
 Alpha virt. eigenvalues --    0.02494   0.02640   0.02729   0.03948   0.04236

  Beta  occ. eigenvalues --  -19.06904 -19.06899 -10.21944 -10.21936 -10.18315
  Beta  occ. eigenvalues --  -10.18305 -10.17659 -10.17601 -10.17445 -10.17439
  Beta  occ. eigenvalues --  -10.17421 -10.17415 -10.17354 -10.17349 -10.17254
  Beta  occ. eigenvalues --  -10.17248 -10.17203 -10.17197 -10.16252 -10.16183
  Beta  occ. eigenvalues --   -0.98480  -0.98171  -0.86528  -0.85600  -0.82008
  Beta  occ. eigenvalues --   -0.77609  -0.75719  -0.74671  -0.74615  -0.71391
  Beta  occ. eigenvalues --   -0.66971  -0.62500  -0.60814  -0.60595  -0.60220
  Beta  occ. eigenvalues --   -0.56921  -0.55588  -0.51295  -0.51176  -0.47900
  Beta  occ. eigenvalues --   -0.46732  -0.45950  -0.45700  -0.44929  -0.44469
  Beta  occ. eigenvalues --   -0.42973  -0.42133  -0.42007  -0.41641  -0.39751
  Beta  occ. eigenvalues --   -0.38436  -0.38360  -0.37608  -0.36624  -0.36381
  Beta  occ. eigenvalues --   -0.34775  -0.34519  -0.34495  -0.34016  -0.33859
  Beta  occ. eigenvalues --   -0.26582  -0.26247  -0.25718  -0.25358  -0.24778
  Beta  occ. eigenvalues --   -0.23519  -0.23226  -0.22582
  Beta virt. eigenvalues --   -0.09062  -0.02689  -0.01880  -0.01015  -0.00848
  Beta virt. eigenvalues --   -0.00453   0.00680   0.00702   0.01230   0.01421
  Beta virt. eigenvalues --    0.02228   0.02525   0.02754   0.03433   0.04241

 Mulliken charges and spin densities:
               1          2
     1  C   -0.650687   0.101283
     2  C   -0.104709   0.076320
     3  C   -0.104306   0.076481
     4  C   -0.649253   0.101356
     5  C    0.029045   0.064605
     6  C    0.036438   0.064605
     7  O   -0.470964   0.255185
     8  O   -0.472177   0.254993
     9  H    0.190322  -0.007389
    10  C   -0.232237   0.017068
    11  C   -0.403410   0.007476
    12  C   -0.359438  -0.002802
    13  C   -0.297463   0.002788
    14  C   -0.491792  -0.003088
    15  H    0.190454  -0.007372
    16  H    0.208734  -0.001147
    17  H    0.188071  -0.000809
    18  H    0.193201   0.000235
    19  H    0.179928  -0.000287
    20  H    0.194031   0.000179
    21  C    1.325274  -0.009725
    22  C   -0.233636   0.016859
    23  C   -0.403143   0.007413
    24  C   -0.358226  -0.002620
    25  C   -0.492837  -0.003005
    26  C   -0.296663   0.002645
    27  H    0.208499  -0.001121
    28  H    0.188366  -0.000800
    29  H    0.193225   0.000235
    30  H    0.193888   0.000174
    31  H    0.180080  -0.000279
    32  C    1.321385  -0.009460
 Sum of Mulliken charges =  -1.00000   1.00000

 Dipole moment (field-independent basis, Debye):
    X=              5.2938    Y=              4.5777    Z=             -2.5140  Tot=              7.4364
 Quadrupole moment (field-independent basis, Debye-Ang):
   XX=           -126.5032   YY=           -133.5010   ZZ=           -141.9412
   XY=            -16.4988   XZ=             15.2395   YZ=             22.2541

  Exact polarizability: 287.603  49.137 354.421  30.556 -42.178 359.725
 Approx polarizability: 321.845  34.534 407.444  25.429 -52.998 389.546

                      1                      2                      3
                      A                      A                      A
 Frequencies --     39.9995                43.1329                46.9967
 Red. masses --      4.1339                 3.7773                 6.8754
 Frc consts  --      0.0039                 0.0041                 0.0089
 IR Inten    --      0.3917                 0.1668                 0.1061

                      4                      5                      6
                      A                      A                      A
 Frequencies --     54.9837                92.3877               104.7650
 Red. masses --      5.2848                 4.8046                 5.7810
 Frc consts  --      0.0094                 0.0242                 0.0374
 IR Inten    --      0.7855                 4.5832                 5.7731

                      7                      8                      9
                      A                      A                      A
 Frequencies --    121.9688               208.9457               223.7242
 Red. masses --      8.0632                 5.1225                 6.4537
 Frc consts  --      0.0707                 0.1318                 0.1903
 IR Inten    --     11.6566                 0.0075                 1.3154

                     10                     11                     12
                      A                      A                      A
 Frequencies --    249.6998               290.1017               301.6598
 Red. masses --      4.9955                 7.3257                 5.9491
 Frc consts  --      0.1835                 0.3632                 0.3190
 IR Inten    --      1.5397                18.2911                 3.3763

                     13                     14                     15
                      A                      A                      A
 Frequencies --    335.6827               407.4559               413.7560
 Red. masses --      4.8128                 5.0758                 2.8743
 Frc consts  --      0.3195                 0.4965                 0.2899
 IR Inten    --      0.3951                 0.7945                 0.2557

                     16                     17                     18
                      A                      A                      A
 Frequencies --    414.5334               445.8703               492.4261
 Red. masses --      2.9182                 8.7232                 4.8623
 Frc consts  --      0.2954                 1.0217                 0.6947
 IR Inten    --      0.9184                15.3136                 6.5799

                     19                     20                     21
                      A                      A                      A
 Frequencies --    493.4582               529.3676               584.7682
 Red. masses --      7.2099                 3.7510                 4.8456
 Frc consts  --      1.0344                 0.6193                 0.9763
 IR Inten    --      5.2302                13.2167                 1.4881

                     22                     23                     24
                      A                      A                      A
 Frequencies --    592.2439               628.0913               633.7992
 Red. masses --      5.2543                 4.9742                 6.3483
 Frc consts  --      1.0858                 1.1562                 1.5025
 IR Inten    --      0.1892                 0.3838                 0.0225

                     25                     26                     27
                      A                      A                      A
 Frequencies --    646.1584               652.8700               684.3896
 Red. masses --      3.7761                 3.5715                 6.7522
 Frc consts  --      0.9289                 0.8969                 1.8634
 IR Inten    --     25.6163                 4.1077                 3.7757

                     28                     29                     30
                      A                      A                      A
 Frequencies --    710.4845               711.5447               746.5546
 Red. masses --      1.6158                 1.6202                 7.0844
 Frc consts  --      0.4806                 0.4833                 2.3264
 IR Inten    --     95.3109                62.6812                53.8715

                     31                     32                     33
                      A                      A                      A
 Frequencies --    765.4629               768.5174               808.8377
 Red. masses --      2.1922                 2.3695                 5.8717
 Frc consts  --      0.7568                 0.8246                 2.2633
 IR Inten    --     91.6933                23.4714                 4.1617

                     34                     35                     36
                      A                      A                      A
 Frequencies --    834.7328               855.9866               857.4805
 Red. masses --      2.0371                 1.2521                 1.2513
 Frc consts  --      0.8363                 0.5405                 0.5421
 IR Inten    --     75.0903                 0.6336                 1.1286

                     37                     38                     39
                      A                      A                      A
 Frequencies --    893.1803               913.0293               934.3164
 Red. masses --      3.0602                 4.8593                 1.5827
 Frc consts  --      1.4384                 2.3867                 0.8140
 IR Inten    --     58.4559                13.4839                 0.5065

                     40                     41                     42
                      A                      A                      A
 Frequencies --    937.6629               964.7190               988.5794
 Red. masses --      1.9315                 1.2941                 1.3760
 Frc consts  --      1.0006                 0.7096                 0.7923
 IR Inten    --     20.0766                 0.2568                 0.5261

                     43                     44                     45
                      A                      A                      A
 Frequencies --    989.6271              1004.0484              1004.7604
 Red. masses --      1.3726                 1.2889                 1.2828
 Frc consts  --      0.7920                 0.7656                 0.7630
 IR Inten    --      0.5138                 0.3545                 0.1087

                     46                     47                     48
                      A                      A                      A
 Frequencies --   1013.2670              1013.8271              1039.4777
 Red. masses --      6.2123                 6.2648                 3.1672
 Frc consts  --      3.7579                 3.7939                 2.0163
 IR Inten    --      0.4751                 0.0013                28.8817

                     49                     50                     51
                      A                      A                      A
 Frequencies --   1046.8803              1064.1272              1094.0410
 Red. masses --      2.2241                 2.3578                 1.5974
 Frc consts  --      1.4361                 1.5731                 1.1265
 IR Inten    --     13.5542                13.5445                 0.3170

                     52                     53                     54
                      A                      A                      A
 Frequencies --   1096.5560              1104.5245              1172.8594
 Red. masses --      1.6434                 1.7668                 1.1034
 Frc consts  --      1.1642                 1.2700                 0.8943
 IR Inten    --     25.6902                 5.8202                 0.0036

                     55                     56                     57
                      A                      A                      A
 Frequencies --   1172.9558              1194.3073              1194.9212
 Red. masses --      1.1031                 1.1329                 1.1338
 Frc consts  --      0.8942                 0.9521                 0.9538
 IR Inten    --      0.0048                 0.4525                 0.0510

                     58                     59                     60
                      A                      A                      A
 Frequencies --   1205.1806              1235.7146              1240.5504
 Red. masses --      2.0319                 5.3249                 2.9661
 Frc consts  --      1.7389                 4.7907                 2.6895
 IR Inten    --     16.9712                11.4746                37.0048

                     61                     62                     63
                      A                      A                      A
 Frequencies --   1306.0258              1309.6607              1346.4716
 Red. masses --      4.3958                 4.7424                 1.6624
 Frc consts  --      4.4176                 4.7925                 1.7758
 IR Inten    --      3.3062                 0.2801                11.7398

                     64                     65                     66
                      A                      A                      A
 Frequencies --   1347.8422              1359.5630              1417.1576
 Red. masses --      1.5173                 2.1710                 6.0752
 Frc consts  --      1.6240                 2.3644                 7.1887
 IR Inten    --      0.2113                 9.5775               508.7394

                     67                     68                     69
                      A                      A                      A
 Frequencies --   1463.4233              1467.3110              1474.4301
 Red. masses --      2.2685                 2.1783                11.3574
 Frc consts  --      2.8623                 2.7632                14.5471
 IR Inten    --      0.1212                 9.2418                13.4477

                     70                     71                     72
                      A                      A                      A
 Frequencies --   1490.5049              1504.6017              1524.7086
 Red. masses --      4.0050                 3.9400                 2.6877
 Frc consts  --      5.2423                 5.2552                 3.6813
 IR Inten    --     18.2651               646.5719               193.3052

                     73                     74                     75
                      A                      A                      A
 Frequencies --   1527.2108              1607.7525              1608.0817
 Red. masses --      2.7992                 5.4404                 5.4052
 Frc consts  --      3.8466                 8.2855                 8.2353
 IR Inten    --     81.1491                 5.8121                 3.8326

                     76                     77                     78
                      A                      A                      A
 Frequencies --   1625.5737              1634.2455              1637.8619
 Red. masses --      6.7121                 5.6866                 6.2109
 Frc consts  --     10.4502                 8.9482                 9.8165
 IR Inten    --     48.9014                22.4715                 0.6663

                     79                     80                     81
                      A                      A                      A
 Frequencies --   3146.1977              3157.2043              3157.2805
 Red. masses --      1.0857                 1.0851                 1.0850
 Frc consts  --      6.3316                 6.3725                 6.3727
 IR Inten    --     28.1213                 2.8457                 3.2624

                     82                     83                     84
                      A                      A                      A
 Frequencies --   3163.7841              3163.9623              3165.5424
 Red. masses --      1.0877                 1.0877                 1.0956
 Frc consts  --      6.4145                 6.4155                 6.4686
 IR Inten    --      0.3319                 9.8513                43.6836

                     85                     86                     87
                      A                      A                      A
 Frequencies --   3174.3135              3174.4412              3179.6345
 Red. masses --      1.0913                 1.0913                 1.0942
 Frc consts  --      6.4788                 6.4792                 6.5178
 IR Inten    --     20.2779                38.8024                 9.2365

                     88                     89                     90
                      A                      A                      A
 Frequencies --   3179.8455              3186.8214              3186.9744
 Red. masses --      1.0941                 1.0980                 1.0979
 Frc consts  --      6.5180                 6.5698                 6.5703
 IR Inten    --     97.5254                14.4791                20.0301

 - Thermochemistry -
 -------------------
 Temperature   298.150 Kelvin.  Pressure   1.00000 Atm.
 Atom     1 has atomic number  6 and mass  12.00000

 Molecular mass:   260.08373 amu.
 Principal axes and moments of inertia in atomic units:
                           1         2         3
     Eigenvalues --  4472.496584706.509128134.67082
           X           -0.26874   0.60120   0.75255
           Y           -0.66325   0.45106  -0.59720
           Z            0.69849   0.65962  -0.27753
 This molecule is an asymmetric top.
 Rotational symmetry number  1.
 Warning -- assumption of classical behavior for rotation
           may cause significant error
 Rotational temperatures (Kelvin)      0.01937     0.01840     0.01065
 Rotational constants (GHZ):           0.40352     0.38346     0.22186
 Zero-point vibrational energy     640004.4 (Joules/Mol)
                                  152.96472 (Kcal/Mol)
 Warning -- explicit consideration of  22 degrees of freedom as
           vibrations may cause significant error
 Vibrational temperatures:     57.55    62.06    67.62    79.11   132.93
          (Kelvin)            150.73   175.49   300.63   321.89   359.26
                              417.39   434.02   482.97   586.24   595.30
                              596.42   641.51   708.49   709.98   761.64
                              841.35   852.11   903.68   911.90   929.68
                              939.33   984.68  1022.23  1023.75  1074.13
                             1101.33  1105.73  1163.74  1200.99  1231.57
                             1233.72  1285.09  1313.65  1344.27  1349.09
                             1388.02  1422.35  1423.85  1444.60  1445.63
                             1457.87  1458.67  1495.58  1506.23  1531.04
                             1574.08  1577.70  1589.16  1687.48  1687.62
                             1718.34  1719.23  1733.99  1777.92  1784.88
                             1879.08  1884.31  1937.27  1939.24  1956.11
                             2038.97  2105.54  2111.13  2121.38  2144.50
                             2164.79  2193.72  2197.32  2313.20  2313.67
                             2338.84  2351.31  2356.52  4526.68  4542.51
                             4542.62  4551.98  4552.24  4554.51  4567.13
                             4567.31  4574.78  4575.09  4585.13  4585.35

 Zero-point correction=                           0.243765 (Hartree/Particle)
 Thermal correction to Energy=                    0.259367
 Thermal correction to Enthalpy=                  0.260312
 Thermal correction to Gibbs Free Energy=         0.198666
 Sum of electronic and zero-point Energies=           -843.697157
 Sum of electronic and thermal Energies=              -843.681554
 Sum of electronic and thermal Enthalpies=            -843.680610
 Sum of electronic and thermal Free Energies=         -843.742255

                     E (Thermal)             CV                S
                      KCal/Mol        Cal/Mol-Kelvin    Cal/Mol-Kelvin
 Total                  162.755             61.738            129.743
 Electronic               0.000              0.000              1.377
 Translational            0.889              2.981             42.567
 Rotational               0.889              2.981             33.504
 Vibrational            160.978             55.776             52.295
 Vibration     1          0.594              1.981              5.259
 Vibration     2          0.595              1.980              5.110
 Vibration     3          0.595              1.979              4.940
 Vibration     4          0.596              1.976              4.630
 Vibration     5          0.602              1.955              3.609
 Vibration     6          0.605              1.945              3.364
 Vibration     7          0.609              1.931              3.069
 Vibration     8          0.642              1.827              2.053
 Vibration     9          0.649              1.805              1.929
 Vibration    10          0.662              1.763              1.733
 Vibration    11          0.686              1.692              1.473
 Vibration    12          0.694              1.671              1.408
 Vibration    13          0.717              1.604              1.233
 Vibration    14          0.772              1.454              0.936
 Vibration    15          0.777              1.440              0.913
 Vibration    16          0.778              1.439              0.911
 Vibration    17          0.805              1.370              0.808
 Vibration    18          0.848              1.267              0.677
 Vibration    19          0.849              1.265              0.675
 Vibration    20          0.884              1.185              0.589
 Vibration    21          0.942              1.064              0.477
 Vibration    22          0.950              1.048              0.463

 Optimization completed.
    -- Stationary point found.
 Normal termination of Gaussian 16 at Sat Feb 10 12:53:15 2024.
