 Q-Chem 5.4, Q-Chem, Inc., Pleasanton, CA (2021)
 Q-Chem 5.4.0 for Intel X86 EM64T Linux

User input:
--------------------------------------------------------------
$molecule
0 1
C                  4.8975170000     -2.9383040000     -0.3196230000
C                  5.6598390000     -2.0708940000     -1.0877620000
C                  5.1258520000     -0.8668580000     -1.5321180000
C                  3.5853520000     -2.5960030000      0.0072350000
C                  3.0091740000     -1.3801170000     -0.4270480000
C                  3.8090350000     -0.5042640000     -1.2143820000
C                  2.8165550000     -3.5663070000      0.8334940000
C                  1.4450440000     -3.2452880000      1.1949150000
C                  0.8570880000     -2.0218840000      0.7611630000
C                  1.6091880000     -1.0560860000     -0.0558370000
C                  0.7034960000     -4.1511180000      1.9755250000
C                 -0.6273790000     -3.8341860000      2.3232740000
C                 -0.4704430000     -1.7308460000      1.1215860000
C                 -1.1960690000     -2.6565860000      1.9067660000
O                  3.3509420000     -4.6271520000      1.1997670000
O                  1.0625510000     -0.0014710000     -0.4138620000
O                  1.2008610000     -5.3145670000      2.4121630000
H                  5.2922780000     -3.8799060000      0.0367430000
H                  6.6806870000     -2.3272610000     -1.3475000000
H                  5.7383470000     -0.2066120000     -2.1293980000
O                  3.2632110000      0.6536440000     -1.6290280000
H                  2.1314270000     -5.3702010000      2.0790810000
O                 -1.1023720000     -0.6079380000      0.7594050000
H                 -2.2167330000     -2.4043050000      2.1684260000
H                 -1.1814300000     -4.5446310000      2.9247600000
H                 -0.4510870000     -0.0859820000      0.2220490000
C                  4.0329620000      1.5556340000     -2.4181840000
H                  3.3720590000      2.3969640000     -2.6160080000
H                  4.3353750000      1.0995970000     -3.3662440000
H                  4.9169300000      1.9067590000     -1.8763760000
$end

$rem
BASIS  =  6-311++G(d,p)
GUI  =  2
JOB_TYPE  =  SP
METHOD  =  B3LYP
SCF_CONVERGENCE  = 8
SOLVENT_METHOD = sm12
$end

$smx
solvent dimethylformamide
charges CM5
$end

--------------------------------------------------------------

             Standard Nuclear Orientation (Angstroms)
    I     Atom           X                Y                Z
 ----------------------------------------------------------------
    1      C       4.8975170000    -2.9383040000    -0.3196230000
    2      C       5.6598390000    -2.0708940000    -1.0877620000
    3      C       5.1258520000    -0.8668580000    -1.5321180000
    4      C       3.5853520000    -2.5960030000     0.0072350000
    5      C       3.0091740000    -1.3801170000    -0.4270480000
    6      C       3.8090350000    -0.5042640000    -1.2143820000
    7      C       2.8165550000    -3.5663070000     0.8334940000
    8      C       1.4450440000    -3.2452880000     1.1949150000
    9      C       0.8570880000    -2.0218840000     0.7611630000
   10      C       1.6091880000    -1.0560860000    -0.0558370000
   11      C       0.7034960000    -4.1511180000     1.9755250000
   12      C      -0.6273790000    -3.8341860000     2.3232740000
   13      C      -0.4704430000    -1.7308460000     1.1215860000
   14      C      -1.1960690000    -2.6565860000     1.9067660000
   15      O       3.3509420000    -4.6271520000     1.1997670000
   16      O       1.0625510000    -0.0014710000    -0.4138620000
   17      O       1.2008610000    -5.3145670000     2.4121630000
   18      H       5.2922780000    -3.8799060000     0.0367430000
   19      H       6.6806870000    -2.3272610000    -1.3475000000
   20      H       5.7383470000    -0.2066120000    -2.1293980000
   21      O       3.2632110000     0.6536440000    -1.6290280000
   22      H       2.1314270000    -5.3702010000     2.0790810000
   23      O      -1.1023720000    -0.6079380000     0.7594050000
   24      H      -2.2167330000    -2.4043050000     2.1684260000
   25      H      -1.1814300000    -4.5446310000     2.9247600000
   26      H      -0.4510870000    -0.0859820000     0.2220490000
   27      C       4.0329620000     1.5556340000    -2.4181840000
   28      H       3.3720590000     2.3969640000    -2.6160080000
   29      H       4.3353750000     1.0995970000    -3.3662440000
   30      H       4.9169300000     1.9067590000    -1.8763760000
 ----------------------------------------------------------------

   15    -954.0160468220      5.69e-09  Convergence criterion met
 Total energy in the final basis set =     -954.0437970204

                    Orbital Energies (a.u.)
 --------------------------------------------------------------

 Alpha MOs
 -- Occupied --
-19.1654 -19.1627 -19.1582 -19.1355 -19.1292 -10.2857 -10.2852 -10.2669
-10.2662 -10.2645 -10.2191 -10.2119 -10.2112 -10.2090 -10.2084 -10.2037
-10.2025 -10.1993 -10.1946 -10.1899  -1.0917  -1.0898  -1.0849  -1.0585
 -1.0527  -0.8929  -0.8773  -0.8188  -0.7836  -0.7774  -0.7650  -0.7144
 -0.7002  -0.6655  -0.6644  -0.6300  -0.5948  -0.5747  -0.5616  -0.5533
 -0.5401  -0.5195  -0.5077  -0.4950  -0.4818  -0.4801  -0.4661  -0.4645
 -0.4614  -0.4539  -0.4386  -0.4337  -0.4296  -0.4248  -0.4222  -0.4014
 -0.3956  -0.3937  -0.3832  -0.3831  -0.3788  -0.3453  -0.3389  -0.3325
 -0.2938  -0.2925  -0.2807  -0.2716  -0.2484  -0.2314

          Ground-State Mulliken Net Atomic Charges

     Atom                 Charge (a.u.)
  ----------------------------------------
      1 C                    -0.122138
      2 C                     0.636130
      3 C                     1.413824
      4 C                    -0.787905
      5 C                     0.320507
      6 C                     0.125455
      7 C                    -1.284739
      8 C                    -0.482589
      9 C                     0.454905
     10 C                    -0.987423
     11 C                    -0.837727
     12 C                     0.704406
     13 C                    -0.859259
     14 C                     0.504964
     15 O                    -0.321614
     16 O                    -0.339306
     17 O                    -0.325627
     18 H                     0.187975
     19 H                     0.348442
     20 H                     0.372019
     21 O                    -0.175909
     22 H                     0.306792
     23 O                    -0.346306
     24 H                     0.298358
     25 H                     0.308589
     26 H                     0.330644
     27 C                    -0.129957
     28 H                     0.220164
     29 H                     0.233645
     30 H                     0.233681
  ----------------------------------------
  Sum of atomic charges =     0.000000

                    Cartesian Multipole Moments
 -----------------------------------------------------------------
    Charge (ESU x 10^10)
                 0.0000
    Dipole Moment (Debye)
         X       4.1719      Y       2.5206      Z      -2.9957
       Tot       5.7212
    Quadrupole Moments (Debye-Ang)
        XX     -80.8054     XY      11.9027     YY    -126.9784
        XZ     -20.4269     YZ       0.9773     ZZ    -109.1623

 Total job time:  763.36s(wall), 5984.13s(cpu)
        *  Thank you very much for using Q-Chem.  Have a nice day.  *
