 Gaussian 16, Revision A.03,
 Gaussian 16:  ES64L-G16RevA.03 25-Dec-2016

 --------------------------------------
 #P UB3LYP/6-311++G(d,p) nosym opt freq
 --------------------------------------

 --------
 Oxidized
 --------
 Symbolic Z-matrix:
 Charge =  0 Multiplicity = 1

 SCF Done:  E(UB3LYP) =  -954.018370197     A.U. after   16 cycles
 Optimization completed.
    -- Stationary point found.
 Normal termination of Gaussian 16 at Sun Jan  7 05:00:07 2024.

 ----------------------------------------------------------------------
 #P Geom=AllCheck Guess=TCheck SCRF=Check GenChk UB3LYP/6-311++G(d,p) F
 req
 ----------------------------------------------------------------------

 Structure from the checkpoint file:  "191.chk"
 --------
 Oxidized
 --------
 Charge =  0 Multiplicity = 1

                          Input orientation:
 ---------------------------------------------------------------------
 Center     Atomic      Atomic             Coordinates (Angstroms)
 Number     Number       Type             X           Y           Z
 ---------------------------------------------------------------------
      1          6           0        4.897517   -2.938304   -0.319623
      2          6           0        5.659839   -2.070894   -1.087762
      3          6           0        5.125852   -0.866858   -1.532118
      4          6           0        3.585352   -2.596003    0.007235
      5          6           0        3.009174   -1.380117   -0.427048
      6          6           0        3.809035   -0.504264   -1.214382
      7          6           0        2.816555   -3.566307    0.833494
      8          6           0        1.445044   -3.245288    1.194915
      9          6           0        0.857088   -2.021884    0.761163
     10          6           0        1.609188   -1.056086   -0.055837
     11          6           0        0.703496   -4.151118    1.975525
     12          6           0       -0.627379   -3.834186    2.323274
     13          6           0       -0.470443   -1.730846    1.121586
     14          6           0       -1.196069   -2.656586    1.906766
     15          8           0        3.350942   -4.627152    1.199767
     16          8           0        1.062551   -0.001471   -0.413862
     17          8           0        1.200861   -5.314567    2.412163
     18          1           0        5.292278   -3.879906    0.036743
     19          1           0        6.680687   -2.327261   -1.347500
     20          1           0        5.738347   -0.206612   -2.129398
     21          8           0        3.263211    0.653644   -1.629028
     22          1           0        2.131427   -5.370201    2.079081
     23          8           0       -1.102372   -0.607938    0.759405
     24          1           0       -2.216733   -2.404305    2.168426
     25          1           0       -1.181430   -4.544631    2.924760
     26          1           0       -0.451087   -0.085982    0.222049
     27          6           0        4.032962    1.555634   -2.418184
     28          1           0        3.372059    2.396964   -2.616008
     29          1           0        4.335375    1.099597   -3.366244
     30          1           0        4.916930    1.906759   -1.876376
 ---------------------------------------------------------------------

 SCF Done:  E(UB3LYP) =  -954.018370197     A.U. after    1 cycles

 Alpha  occ. eigenvalues --  -19.17776 -19.15798 -19.15307 -19.13336 -19.12730
 Alpha  occ. eigenvalues --  -10.28396 -10.28369 -10.27344 -10.26405 -10.26148
 Alpha  occ. eigenvalues --  -10.24393 -10.21591 -10.21536 -10.20841 -10.20608
 Alpha  occ. eigenvalues --  -10.20559 -10.20446 -10.20265 -10.20159 -10.19550
 Alpha  occ. eigenvalues --   -1.09959  -1.08741  -1.08303  -1.05556  -1.04998
 Alpha  occ. eigenvalues --   -0.89572  -0.87800  -0.82022  -0.79188  -0.78071
 Alpha  occ. eigenvalues --   -0.76278  -0.72887  -0.70015  -0.66882  -0.66728
 Alpha  occ. eigenvalues --   -0.62785  -0.60173  -0.57910  -0.56663  -0.54985
 Alpha  occ. eigenvalues --   -0.53751  -0.52613  -0.51416  -0.49922  -0.49594
 Alpha  occ. eigenvalues --   -0.48652  -0.46842  -0.46605  -0.45944  -0.45724
 Alpha  occ. eigenvalues --   -0.43829  -0.43665  -0.43025  -0.42709  -0.42603
 Alpha  occ. eigenvalues --   -0.40400  -0.39902  -0.39767  -0.38942  -0.38356
 Alpha  occ. eigenvalues --   -0.37596  -0.35841  -0.34999  -0.32833  -0.29425
 Alpha  occ. eigenvalues --   -0.29002  -0.28353  -0.27019  -0.25527  -0.22800
 Alpha virt. eigenvalues --   -0.12051  -0.06496  -0.04383  -0.01897  -0.01046
 Alpha virt. eigenvalues --   -0.00042   0.00142   0.00972   0.01981   0.02064
 Alpha virt. eigenvalues --    0.02406   0.03076   0.03161   0.03738   0.04263

  Beta  occ. eigenvalues --  -19.17776 -19.15798 -19.15307 -19.13336 -19.12730
  Beta  occ. eigenvalues --  -10.28396 -10.28369 -10.27344 -10.26405 -10.26148
  Beta  occ. eigenvalues --  -10.24393 -10.21591 -10.21536 -10.20841 -10.20608
  Beta  occ. eigenvalues --  -10.20559 -10.20446 -10.20265 -10.20159 -10.19550
  Beta  occ. eigenvalues --   -1.09959  -1.08741  -1.08303  -1.05556  -1.04998
  Beta  occ. eigenvalues --   -0.89572  -0.87800  -0.82022  -0.79188  -0.78071
  Beta  occ. eigenvalues --   -0.76278  -0.72887  -0.70015  -0.66882  -0.66728
  Beta  occ. eigenvalues --   -0.62785  -0.60173  -0.57910  -0.56663  -0.54985
  Beta  occ. eigenvalues --   -0.53751  -0.52613  -0.51416  -0.49922  -0.49594
  Beta  occ. eigenvalues --   -0.48652  -0.46842  -0.46605  -0.45944  -0.45724
  Beta  occ. eigenvalues --   -0.43829  -0.43665  -0.43025  -0.42709  -0.42603
  Beta  occ. eigenvalues --   -0.40400  -0.39902  -0.39767  -0.38942  -0.38356
  Beta  occ. eigenvalues --   -0.37596  -0.35841  -0.34999  -0.32833  -0.29425
  Beta  occ. eigenvalues --   -0.29002  -0.28353  -0.27019  -0.25527  -0.22800
  Beta virt. eigenvalues --   -0.12051  -0.06496  -0.04383  -0.01897  -0.01046
  Beta virt. eigenvalues --   -0.00042   0.00142   0.00972   0.01981   0.02064
  Beta virt. eigenvalues --    0.02406   0.03076   0.03161   0.03738   0.04263

 Mulliken charges and spin densities:
               1          2
     1  C   -0.183166  -0.000000
     2  C   -0.355987  -0.000000
     3  C    0.006803   0.000000
     4  C    0.255939  -0.000000
     5  C    0.208054   0.000000
     6  C    0.088976   0.000000
     7  C   -0.443551  -0.000000
     8  C    0.305158  -0.000000
     9  C    0.686622   0.000000
    10  C   -0.479895  -0.000000
    11  C   -0.343450   0.000000
    12  C    0.073215  -0.000000
    13  C   -0.398648   0.000000
    14  C   -0.025092  -0.000000
    15  O   -0.295612   0.000000
    16  O   -0.294720   0.000000
    17  O   -0.290066  -0.000000
    18  H    0.182928  -0.000000
    19  H    0.189904  -0.000000
    20  H    0.169103   0.000000
    21  O   -0.106636   0.000000
    22  H    0.334562   0.000000
    23  O   -0.303996  -0.000000
    24  H    0.207492  -0.000000
    25  H    0.207457   0.000000
    26  H    0.363822   0.000000
    27  C   -0.268048  -0.000000
    28  H    0.203654   0.000000
    29  H    0.152576  -0.000000
    30  H    0.152603  -0.000000
 Sum of Mulliken charges =  -0.00000   0.00000

 Dipole moment (field-independent basis, Debye):
    X=              3.1062    Y=              1.9445    Z=             -2.2672  Tot=              4.3093
 Quadrupole moment (field-independent basis, Debye-Ang):
   XX=            -89.3123   YY=           -125.4039   ZZ=           -110.5620
   XY=             10.4752   XZ=            -16.3140   YZ=              0.7079

  Exact polarizability: 265.902   5.611 212.240 -69.830 -65.832 157.810
 Approx polarizability: 443.572 -26.332 371.574 -99.182-108.220 250.391

                      1                      2                      3
                      A                      A                      A
 Frequencies --     33.5531                49.2662                95.6788
 Red. masses --      5.8056                 5.6342                 4.1583
 Frc consts  --      0.0039                 0.0081                 0.0224
 IR Inten    --      2.5656                 1.3113                 1.9991

                      4                      5                      6
                      A                      A                      A
 Frequencies --    111.9702               152.3615               158.8542
 Red. masses --      8.8027                 6.2724                 4.7540
 Frc consts  --      0.0650                 0.0858                 0.0707
 IR Inten    --      0.6094                 1.5450                 0.6061

                      7                      8                      9
                      A                      A                      A
 Frequencies --    170.1436               193.2390               249.1838
 Red. masses --      6.0322                 2.9936                 1.6288
 Frc consts  --      0.1029                 0.0659                 0.0596
 IR Inten    --      0.0400                 0.5370                 0.2857

                     10                     11                     12
                      A                      A                      A
 Frequencies --    258.4156               284.8423               304.6491
 Red. masses --      5.7754                 3.0908                 4.6027
 Frc consts  --      0.2272                 0.1478                 0.2517
 IR Inten    --      2.8229                 0.0189                 2.1877

                     13                     14                     15
                      A                      A                      A
 Frequencies --    334.1641               366.1722               395.4090
 Red. masses --      5.4323                 5.8426                 9.6675
 Frc consts  --      0.3574                 0.4616                 0.8905
 IR Inten    --      0.0901                 0.0032                 6.2694

                     16                     17                     18
                      A                      A                      A
 Frequencies --    424.2953               425.1928               442.5271
 Red. masses --      7.4612                 6.2672                10.9128
 Frc consts  --      0.7914                 0.6676                 1.2591
 IR Inten    --      2.7208                 0.0270                 3.9436

                     19                     20                     21
                      A                      A                      A
 Frequencies --    451.2047               468.3925               485.4446
 Red. masses --      8.0562                 9.9982                 4.6064
 Frc consts  --      0.9663                 1.2924                 0.6396
 IR Inten    --      3.3078                22.8955                 0.2922

                     22                     23                     24
                      A                      A                      A
 Frequencies --    512.5060               518.2642               543.2994
 Red. masses --      9.4425                 5.2010                 4.6603
 Frc consts  --      1.4613                 0.8231                 0.8105
 IR Inten    --      0.7747                11.3519                 4.6671

                     25                     26                     27
                      A                      A                      A
 Frequencies --    589.8534               605.8638               629.8212
 Red. masses --      3.6210                 6.8490                 4.6365
 Frc consts  --      0.7423                 1.4813                 1.0836
 IR Inten    --      8.0620                 1.5482                 8.4867

                     28                     29                     30
                      A                      A                      A
 Frequencies --    672.8139               702.1589               716.2949
 Red. masses --      5.3290                 5.2078                 7.0823
 Frc consts  --      1.4213                 1.5128                 2.1410
 IR Inten    --      0.7744                 1.3755                 8.6294

                     31                     32                     33
                      A                      A                      A
 Frequencies --    751.0729               761.0136               785.7134
 Red. masses --      2.9412                 7.0800                 3.1739
 Frc consts  --      0.9775                 2.4158                 1.1545
 IR Inten    --      9.4741                12.2746                22.8812

                     34                     35                     36
                      A                      A                      A
 Frequencies --    818.5364               820.9748               830.8588
 Red. masses --      1.8384                 1.4131                 7.9684
 Frc consts  --      0.7257                 0.5612                 3.2410
 IR Inten    --    112.1680                25.9283                29.0478

                     37                     38                     39
                      A                      A                      A
 Frequencies --    833.3762               858.4268               898.5772
 Red. masses --      1.1532                 1.4610                 7.5241
 Frc consts  --      0.4719                 0.6343                 3.5795
 IR Inten    --    104.2748                 0.5342                16.3212

                     40                     41                     42
                      A                      A                      A
 Frequencies --    913.6839               952.0662               977.8698
 Red. masses --      1.3990                 6.3042                 1.2911
 Frc consts  --      0.6881                 3.3668                 0.7274
 IR Inten    --      0.0147                14.8964                 0.0001

                     43                     44                     45
                      A                      A                      A
 Frequencies --    985.9470               998.6750              1064.7117
 Red. masses --      6.1355                 1.3148                 4.9089
 Frc consts  --      3.5141                 0.7726                 3.2787
 IR Inten    --     23.7814                 0.3585               137.2095

                     46                     47                     48
                      A                      A                      A
 Frequencies --   1095.7483              1131.0980              1163.6772
 Red. masses --      3.0455                 1.7967                 1.2727
 Frc consts  --      2.1544                 1.3544                 1.0154
 IR Inten    --     35.2108                15.2367                 0.8231

                     49                     50                     51
                      A                      A                      A
 Frequencies --   1170.6560              1189.4636              1203.9720
 Red. masses --      1.7899                 1.3872                 1.6284
 Frc consts  --      1.4452                 1.1564                 1.3907
 IR Inten    --     20.5407                18.6455                18.4031

                     52                     53                     54
                      A                      A                      A
 Frequencies --   1213.6325              1237.8125              1276.1780
 Red. masses --      1.4637                 2.9372                 2.1539
 Frc consts  --      1.2703                 2.6515                 2.0668
 IR Inten    --     65.0024               556.3493                95.1954

                     55                     56                     57
                      A                      A                      A
 Frequencies --   1305.2173              1310.7949              1331.8831
 Red. masses --      5.5419                 4.7630                 4.2329
 Frc consts  --      5.5625                 4.8217                 4.4240
 IR Inten    --    163.2808               280.8842               115.0711

                     58                     59                     60
                      A                      A                      A
 Frequencies --   1351.9981              1369.7301              1399.6449
 Red. masses --      2.8183                 4.7754                 3.1030
 Frc consts  --      3.0353                 5.2787                 3.5815
 IR Inten    --    106.2037               158.1554               187.8951

                     61                     62                     63
                      A                      A                      A
 Frequencies --   1428.4728              1464.6694              1471.5904
 Red. masses --      6.6642                 2.4298                 1.6686
 Frc consts  --      8.0120                 3.0712                 2.1291
 IR Inten    --     21.3323                55.3348                24.8334

                     64                     65                     66
                      A                      A                      A
 Frequencies --   1488.6123              1496.3551              1496.8786
 Red. masses --      2.4700                 1.0563                 1.8861
 Frc consts  --      3.2248                 1.3935                 2.4900
 IR Inten    --    322.6735                10.5405                35.6944

                     67                     68                     69
                      A                      A                      A
 Frequencies --   1502.1393              1507.7987              1601.2094
 Red. masses --      1.1292                 3.2640                 4.8055
 Frc consts  --      1.5012                 4.3720                 7.2591
 IR Inten    --     12.9201                24.8153                 0.2596

                     70                     71                     72
                      A                      A                      A
 Frequencies --   1609.3766              1623.2038              1628.4829
 Red. masses --      4.6246                 4.3523                 3.6840
 Frc consts  --      7.0574                 6.7564                 5.7562
 IR Inten    --    230.0488               157.2624                41.4399

                     73                     74                     75
                      A                      A                      A
 Frequencies --   1658.3652              1683.3674              3010.9050
 Red. masses --      9.0998                 8.4810                 1.0345
 Frc consts  --     14.7449                14.1597                 5.5253
 IR Inten    --    385.6547                 7.7042                68.0851

                     76                     77                     78
                      A                      A                      A
 Frequencies --   3074.6163              3143.5538              3176.7620
 Red. masses --      1.1066                 1.0994                 1.0894
 Frc consts  --      6.1637                 6.4012                 6.4773
 IR Inten    --     30.5916                13.3715                 9.3967

                     79                     80                     81
                      A                      A                      A
 Frequencies --   3187.3900              3201.5466              3214.4917
 Red. masses --      1.0881                 1.0959                 1.0909
 Frc consts  --      6.5129                 6.6183                 6.6412
 IR Inten    --      1.8274                 3.0563                 0.1561

                     82                     83                     84
                      A                      A                      A
 Frequencies --   3217.3710              3241.7235              3294.6160
 Red. masses --      1.0931                 1.0684                 1.0683
 Frc consts  --      6.6667                 6.6152                 6.8323
 IR Inten    --      8.9541               186.9879               135.4970

 - Thermochemistry -
 -------------------
 Temperature   298.150 Kelvin.  Pressure   1.00000 Atm.
 Atom     1 has atomic number  6 and mass  12.00000

 Molecular mass:   270.05282 amu.
 Principal axes and moments of inertia in atomic units:
                           1         2         3
     Eigenvalues --  3086.747516343.434559418.63125
           X            0.65508  -0.68224   0.32467
           Y            0.52695   0.72050   0.45078
           Z           -0.54147  -0.12422   0.83149
 This molecule is an asymmetric top.
 Rotational symmetry number  1.
 Warning -- assumption of classical behavior for rotation
           may cause significant error
 Rotational temperatures (Kelvin)      0.02806     0.01365     0.00920
 Rotational constants (GHZ):           0.58467     0.28451     0.19161
 Zero-point vibrational energy     578827.2 (Joules/Mol)
                                  138.34301 (Kcal/Mol)
 Warning -- explicit consideration of  26 degrees of freedom as
           vibrations may cause significant error
 Vibrational temperatures:     48.28    70.88   137.66   161.10   219.21
          (Kelvin)            228.56   244.80   278.03   358.52   371.80
                              409.82   438.32   480.79   526.84   568.91
                              610.47   611.76   636.70   649.18   673.91
                              698.45   737.38   745.67   781.69   848.67
                              871.70   906.17   968.03  1010.25  1030.59
                             1080.63  1094.93  1130.47  1177.69  1181.20
                             1195.42  1199.04  1235.08  1292.85  1314.59
                             1369.81  1406.94  1418.56  1436.87  1531.88
                             1576.54  1627.40  1674.27  1684.31  1711.37
                             1732.25  1746.15  1780.94  1836.14  1877.92
                             1885.94  1916.28  1945.22  1970.74  2013.78
                             2055.25  2107.33  2117.29  2141.78  2152.92
                             2153.67  2161.24  2169.39  2303.78  2315.53
                             2335.43  2343.02  2386.02  2421.99  4332.02
                             4423.69  4522.87  4570.65  4585.94  4606.31
                             4624.94  4629.08  4664.12  4740.22

 Zero-point correction=                           0.220464 (Hartree/Particle)
 Thermal correction to Energy=                    0.235963
 Thermal correction to Enthalpy=                  0.236907
 Thermal correction to Gibbs Free Energy=         0.177591
 Sum of electronic and zero-point Energies=           -953.797907
 Sum of electronic and thermal Energies=              -953.782407
 Sum of electronic and thermal Enthalpies=            -953.781463
 Sum of electronic and thermal Free Energies=         -953.840779

                     E (Thermal)             CV                S
                      KCal/Mol        Cal/Mol-Kelvin    Cal/Mol-Kelvin
 Total                  148.069             61.807            124.841
 Electronic               0.000              0.000              0.000
 Translational            0.889              2.981             42.679
 Rotational               0.889              2.981             33.577
 Vibrational            146.292             55.846             48.584
 Vibration     1          0.594              1.983              5.607
 Vibration     2          0.595              1.978              4.847
 Vibration     3          0.603              1.952              3.540
 Vibration     4          0.607              1.940              3.234
 Vibration     5          0.619              1.900              2.643
 Vibration     6          0.621              1.893              2.563
 Vibration     7          0.625              1.879              2.434
 Vibration     8          0.635              1.849              2.197
 Vibration     9          0.662              1.764              1.736
 Vibration    10          0.667              1.749              1.672
 Vibration    11          0.683              1.702              1.504
 Vibration    12          0.696              1.665              1.391
 Vibration    13          0.716              1.607              1.240
 Vibration    14          0.739              1.542              1.096
 Vibration    15          0.762              1.480              0.980
 Vibration    16          0.786              1.417              0.877
 Vibration    17          0.787              1.415              0.875
 Vibration    18          0.802              1.377              0.819
 Vibration    19          0.810              1.358              0.792
 Vibration    20          0.826              1.320              0.742
 Vibration    21          0.842              1.282              0.696
 Vibration    22          0.868              1.222              0.628
 Vibration    23          0.873              1.210              0.614
 Vibration    24          0.898              1.154              0.558
 Vibration    25          0.947              1.053              0.467
 Vibration    26          0.964              1.019              0.440

 Optimization completed.
    -- Stationary point found.
 Normal termination of Gaussian 16 at Sun Jan  7 05:44:23 2024.
