 Q-Chem 5.4, Q-Chem, Inc., Pleasanton, CA (2021)
 Q-Chem 5.4.0 for Intel X86 EM64T Linux

User input:
--------------------------------------------------------------
$molecule
-1 2
C                  3.9072710000      0.6020160000     -0.1059150000
O                  2.6767440000      1.2873610000     -0.1597060000
C                  1.5208500000      0.5486790000     -0.1002330000
C                  1.5029790000     -0.8279300000      0.0092350000
C                  0.2918380000     -1.5994640000      0.0713020000
O                  0.2989360000     -2.8553120000      0.1715370000
C                 -0.9613260000     -0.8284810000      0.0109990000
C                 -2.1991830000     -1.4964100000      0.0649680000
C                 -3.3924220000     -0.7980640000      0.0102780000
C                 -3.3748420000      0.6075430000     -0.1014390000
C                 -2.1697860000      1.2827420000     -0.1559630000
C                 -0.9411680000      0.5896830000     -0.1017530000
C                  0.3115340000      1.3528590000     -0.1632650000
O                  0.3340450000      2.6066690000     -0.2628530000
H                  4.0247830000      0.0438520000      0.8321500000
H                  4.6816860000      1.3687330000     -0.1673030000
H                  4.0239100000     -0.0973490000     -0.9441540000
H                  2.4193840000     -1.4036980000      0.0545530000
H                 -2.1773670000     -2.5772170000      0.1507890000
H                 -4.3392120000     -1.3287280000      0.0531020000
H                 -4.3094930000      1.1598010000     -0.1446700000
H                 -2.1291620000      2.3627150000     -0.2417560000
$end
$rem
MAX_SCF_CYCLES=200
BASIS  =  6-311++G(d,p)
GUI  =  2
JOB_TYPE  =  SP
METHOD  =  B3LYP
SOLVENT_METHOD = PCM
$end
$pcm
theory = CPCM
$end
$solvent
dielectric 37.219
opticaldielectric 1.43
$end

--------------------------------------------------------------

             Standard Nuclear Orientation (Angstroms)
    I     Atom           X                Y                Z
 ----------------------------------------------------------------
    1      C       3.9072710000     0.6020160000    -0.1059150000
    2      O       2.6767440000     1.2873610000    -0.1597060000
    3      C       1.5208500000     0.5486790000    -0.1002330000
    4      C       1.5029790000    -0.8279300000     0.0092350000
    5      C       0.2918380000    -1.5994640000     0.0713020000
    6      O       0.2989360000    -2.8553120000     0.1715370000
    7      C      -0.9613260000    -0.8284810000     0.0109990000
    8      C      -2.1991830000    -1.4964100000     0.0649680000
    9      C      -3.3924220000    -0.7980640000     0.0102780000
   10      C      -3.3748420000     0.6075430000    -0.1014390000
   11      C      -2.1697860000     1.2827420000    -0.1559630000
   12      C      -0.9411680000     0.5896830000    -0.1017530000
   13      C       0.3115340000     1.3528590000    -0.1632650000
   14      O       0.3340450000     2.6066690000    -0.2628530000
   15      H       4.0247830000     0.0438520000     0.8321500000
   16      H       4.6816860000     1.3687330000    -0.1673030000
   17      H       4.0239100000    -0.0973490000    -0.9441540000
   18      H       2.4193840000    -1.4036980000     0.0545530000
   19      H      -2.1773670000    -2.5772170000     0.1507890000
   20      H      -4.3392120000    -1.3287280000     0.0531020000
   21      H      -4.3094930000     1.1598010000    -0.1446700000
   22      H      -2.1291620000     2.3627150000    -0.2417560000
 ----------------------------------------------------------------

    9    -649.9738937529      4.81e-06  Convergence criterion met
 Total energy in the final basis set =     -649.9738937529

                    Orbital Energies (a.u.)
 --------------------------------------------------------------

 Alpha MOs
 -- Occupied --
-19.1546 -19.0795 -19.0760 -10.2287 -10.2256 -10.2237 -10.2131 -10.1740
-10.1720 -10.1717 -10.1709 -10.1693 -10.1690 -10.1576  -1.0699  -1.0022
 -1.0001  -0.8575  -0.8035  -0.7501  -0.7438  -0.7131  -0.6622  -0.6190
 -0.5994  -0.5624  -0.5212  -0.5175  -0.4905  -0.4683  -0.4627  -0.4460
 -0.4282  -0.4207  -0.4162  -0.4136  -0.4015  -0.3970  -0.3817  -0.3564
 -0.3553  -0.3427  -0.3328  -0.3287  -0.2670  -0.2570  -0.2488  -0.2416
 -0.2376  -0.1505

 Beta MOs
 -- Occupied --
-19.1537 -19.0730 -19.0708 -10.2271 -10.2240 -10.2214 -10.2132 -10.1737
-10.1715 -10.1712 -10.1703 -10.1693 -10.1687 -10.1570  -1.0677  -0.9919
 -0.9898  -0.8553  -0.7987  -0.7480  -0.7420  -0.7106  -0.6548  -0.6172
 -0.5966  -0.5599  -0.5192  -0.5157  -0.4878  -0.4644  -0.4606  -0.4453
 -0.4264  -0.4191  -0.4085  -0.4027  -0.3996  -0.3941  -0.3591  -0.3540
 -0.3491  -0.3420  -0.3313  -0.3152  -0.2502  -0.2474  -0.2433  -0.2364
 -0.2291

          Ground-State Mulliken Net Atomic Charges

     Atom                 Charge (a.u.)    Spin (a.u.)
  --------------------------------------------------------
      1 C                    -0.354083      -0.000604
      2 O                    -0.221043       0.019321
      3 C                    -0.447367       0.125923
      4 C                     0.318018       0.027053
      5 C                    -0.255683       0.083441
      6 O                    -0.519480       0.187396
      7 C                     0.341708       0.043690
      8 C                     0.204818       0.011347
      9 C                    -0.403584       0.051207
     10 C                    -0.419462       0.009654
     11 C                     0.165966       0.066947
     12 C                     0.158593       0.000096
     13 C                    -0.525377       0.142474
     14 O                    -0.516766       0.244239
     15 H                     0.167413       0.001525
     16 H                     0.196129      -0.000134
     17 H                     0.167384       0.001523
     18 H                     0.214538      -0.005488
     19 H                     0.166144      -0.001020
     20 H                     0.195925      -0.003657
     21 H                     0.198399      -0.001360
     22 H                     0.167812      -0.003573
  --------------------------------------------------------
  Sum of atomic charges =    -1.000000

                    Cartesian Multipole Moments
 -----------------------------------------------------------------
    Charge (ESU x 10^10)
                -4.8032
    Dipole Moment (Debye)
         X      -0.0430      Y      -0.4452      Z       0.3024
       Tot       0.5399
    Quadrupole Moments (Debye-Ang)
        XX     -70.5115     XY      -3.0611     YY    -125.8968
        XZ       0.2377     YZ       3.1250     ZZ     -87.0639

 Total job time:  65.18s(wall), 240.86s(cpu)
        *  Thank you very much for using Q-Chem.  Have a nice day.  *
