 Gaussian 16, Revision A.03,
 Gaussian 16:  ES64L-G16RevA.03 25-Dec-2016

 ----------------------------------------------------------------------
 #P UB3LYP/6-311++G(d,p) nosym opt freq SCRF=(PCM,Solvent=n,n-DiMethylF
 ormamide)
 ----------------------------------------------------------------------

 -------
 Radical
 -------
 Symbolic Z-matrix:
 Charge = -1 Multiplicity = 2

 SCF Done:  E(UB3LYP) =  -728.368640727     A.U. after   20 cycles
 SCF Done:  E(UB3LYP) =  -728.369022132     A.U. after   15 cycles
 SCF Done:  E(UB3LYP) =  -728.369093726     A.U. after   15 cycles
 SCF Done:  E(UB3LYP) =  -728.369095238     A.U. after   12 cycles
 SCF Done:  E(UB3LYP) =  -728.369095847     A.U. after   13 cycles
 SCF Done:  E(UB3LYP) =  -728.369095970     A.U. after   11 cycles
 Optimization completed.
    -- Stationary point found.
 Normal termination of Gaussian 16 at Sun Feb 11 15:51:00 2024.

 ----------------------------------------------------------------------
 #P Geom=AllCheck Guess=TCheck SCRF=Check GenChk UB3LYP/6-311++G(d,p) F
 req
 ----------------------------------------------------------------------

 Structure from the checkpoint file:  "345-rad.chk"
 -------
 Radical
 -------
 Charge = -1 Multiplicity = 2

                          Input orientation:
 ---------------------------------------------------------------------
 Center     Atomic      Atomic             Coordinates (Angstroms)
 Number     Number       Type             X           Y           Z
 ---------------------------------------------------------------------
      1          8           0        1.968803   -3.086602    0.858464
      2          6           0        1.462430   -1.948385    0.584095
      3          6           0        0.080517   -1.685188    0.495921
      4          6           0       -0.463867   -0.434555    0.192694
      5          8           0        0.398800    0.639580   -0.040094
      6          6           0        1.753493    0.467252    0.026874
      7          6           0        2.539248    1.593269   -0.219990
      8          6           0        3.930923    1.487027   -0.167981
      9          6           0        4.530175    0.262101    0.129104
     10          6           0        3.733542   -0.856583    0.374091
     11          6           0        2.334093   -0.777691    0.328336
     12          6           0       -1.846747   -0.084766    0.080623
     13          6           0       -2.884976   -1.043004    0.281807
     14          6           0       -4.220732   -0.692537    0.170042
     15          6           0       -4.603890    0.620462   -0.145788
     16          6           0       -3.600071    1.576881   -0.347586
     17          6           0       -2.257129    1.243285   -0.239563
     18          1           0       -0.596516   -2.510942    0.675042
     19          1           0        2.054757    2.535286   -0.449102
     20          1           0        4.540637    2.362790   -0.360132
     21          1           0        5.610622    0.180168    0.169329
     22          1           0        4.177200   -1.817307    0.606378
     23          1           0       -2.634940   -2.068030    0.527006
     24          1           0       -4.979984   -1.451617    0.330801
     25          1           0       -5.650853    0.886846   -0.231554
     26          1           0       -3.871339    2.599082   -0.593308
     27          1           0       -1.504193    2.003179   -0.401559
 ---------------------------------------------------------------------

 SCF Done:  E(UB3LYP) =  -728.369095971     A.U. after    1 cycles

 Alpha  occ. eigenvalues --  -19.16809 -19.05570 -10.23891 -10.22305 -10.21290
 Alpha  occ. eigenvalues --  -10.17557 -10.17546 -10.17466 -10.17112 -10.16954
 Alpha  occ. eigenvalues --  -10.16890 -10.16637 -10.16582 -10.16472 -10.16185
 Alpha  occ. eigenvalues --  -10.15954 -10.14863  -1.08664  -0.97474  -0.85957
 Alpha  occ. eigenvalues --   -0.84736  -0.79338  -0.76676  -0.74486  -0.73746
 Alpha  occ. eigenvalues --   -0.72573  -0.65450  -0.63228  -0.60111  -0.59101
 Alpha  occ. eigenvalues --   -0.57773  -0.53243  -0.52270  -0.51459  -0.47939
 Alpha  occ. eigenvalues --   -0.46069  -0.45650  -0.45282  -0.43672  -0.42949
 Alpha  occ. eigenvalues --   -0.42195  -0.41525  -0.40267  -0.39525  -0.37817
 Alpha  occ. eigenvalues --   -0.37546  -0.36684  -0.35804  -0.34979  -0.34968
 Alpha  occ. eigenvalues --   -0.33882  -0.32177  -0.29026  -0.25594  -0.25538
 Alpha  occ. eigenvalues --   -0.23734  -0.22929  -0.22252  -0.11101
 Alpha virt. eigenvalues --   -0.03233  -0.01071  -0.00431  -0.00318   0.00320
 Alpha virt. eigenvalues --    0.01108   0.01773   0.02161   0.02360   0.03639
 Alpha virt. eigenvalues --    0.03857   0.04122   0.04466   0.05710   0.05920

  Beta  occ. eigenvalues --  -19.16644 -19.05220 -10.23894 -10.21801 -10.21066
  Beta  occ. eigenvalues --  -10.17585 -10.17515 -10.17494 -10.17063 -10.16914
  Beta  occ. eigenvalues --  -10.16841 -10.16724 -10.16674 -10.16282 -10.15987
  Beta  occ. eigenvalues --  -10.15678 -10.14898  -1.08310  -0.96825  -0.85762
  Beta  occ. eigenvalues --   -0.84499  -0.78824  -0.76441  -0.74294  -0.73532
  Beta  occ. eigenvalues --   -0.72310  -0.64934  -0.63021  -0.59899  -0.58971
  Beta  occ. eigenvalues --   -0.57492  -0.52994  -0.52112  -0.51274  -0.47763
  Beta  occ. eigenvalues --   -0.45994  -0.45448  -0.44341  -0.43583  -0.42861
  Beta  occ. eigenvalues --   -0.42078  -0.41456  -0.40142  -0.39178  -0.37444
  Beta  occ. eigenvalues --   -0.36957  -0.35732  -0.35556  -0.34788  -0.34107
  Beta  occ. eigenvalues --   -0.33798  -0.32074  -0.27718  -0.24990  -0.24851
  Beta  occ. eigenvalues --   -0.23066  -0.22620  -0.20866
  Beta virt. eigenvalues --   -0.05505  -0.02501  -0.00657  -0.00424   0.00040
  Beta virt. eigenvalues --    0.00316   0.01105   0.01779   0.02153   0.03642
  Beta virt. eigenvalues --    0.03854   0.04072   0.04133   0.04554   0.05722

 Mulliken charges and spin densities:
               1          2
     1  O   -0.575435   0.126286
     2  C   -0.744720   0.170431
     3  C   -0.549255  -0.033269
     4  C    0.539420   0.282309
     5  O   -0.050879   0.036714
     6  C   -1.583471  -0.018577
     7  C   -0.335250   0.027881
     8  C   -0.476400   0.039007
     9  C   -0.174527   0.002364
    10  C    0.293163   0.080199
    11  C    1.965352  -0.021625
    12  C    1.028883  -0.065235
    13  C   -0.607931   0.156078
    14  C   -0.569822  -0.066654
    15  C   -0.411561   0.218778
    16  C   -0.400732  -0.071608
    17  C   -0.029834   0.175205
    18  H    0.181670   0.002171
    19  H    0.177616  -0.003049
    20  H    0.188444  -0.002850
    21  H    0.175692  -0.000270
    22  H    0.174224  -0.006692
    23  H    0.094584  -0.009771
    24  H    0.191133   0.003750
    25  H    0.153962  -0.015100
    26  H    0.186002   0.004077
    27  H    0.159674  -0.010550
 Sum of Mulliken charges =  -1.00000   1.00000

 Dipole moment (field-independent basis, Debye):
    X=             -2.8569    Y=              8.3962    Z=             -2.4924  Tot=              9.2125
 Quadrupole moment (field-independent basis, Debye-Ang):
   XX=           -120.5678   YY=           -126.4942   ZZ=           -111.0954
   XY=             20.4271   XZ=             -5.2703   YZ=              5.1922

  Exact polarizability: 736.369 -51.726 314.187  24.433 -40.790 154.276
 Approx polarizability: 658.215 -54.206 365.081  22.988 -48.643 173.469

                      1                      2                      3
                      A                      A                      A
 Frequencies --     44.6577                54.3527               111.8322
 Red. masses --      4.4974                 5.0882                 5.1348
 Frc consts  --      0.0053                 0.0089                 0.0378
 IR Inten    --      2.5151                 0.0749                 2.0126

                      4                      5                      6
                      A                      A                      A
 Frequencies --    126.4888               144.8553               195.3051
 Red. masses --      5.1392                 4.8405                 4.9938
 Frc consts  --      0.0484                 0.0598                 0.1122
 IR Inten    --      2.4513                 0.1765                 2.7865

                      7                      8                      9
                      A                      A                      A
 Frequencies --    258.6503               266.2116               294.2169
 Red. masses --      5.9222                 7.1084                 6.1786
 Frc consts  --      0.2334                 0.2968                 0.3151
 IR Inten    --      0.0839                 7.2683                 4.7555

                     10                     11                     12
                      A                      A                      A
 Frequencies --    348.6911               404.0320               419.1208
 Red. masses --      6.2993                 4.2584                 3.0582
 Frc consts  --      0.4513                 0.4096                 0.3165
 IR Inten    --      1.1011                 2.4939                 0.2210

                     13                     14                     15
                      A                      A                      A
 Frequencies --    431.6520               492.7541               509.2808
 Red. masses --      3.4810                10.6351                 6.7414
 Frc consts  --      0.3821                 1.5214                 1.0302
 IR Inten    --      4.9801                23.7835                 1.1976

                     16                     17                     18
                      A                      A                      A
 Frequencies --    531.8013               559.9133               583.5617
 Red. masses --      3.5003                 4.1726                 8.5841
 Frc consts  --      0.5832                 0.7707                 1.7223
 IR Inten    --      6.7295                20.1237                12.7214

                     19                     20                     21
                      A                      A                      A
 Frequencies --    606.2655               629.7946               639.7664
 Red. masses --      6.1586                 6.4141                 3.3283
 Frc consts  --      1.3337                 1.4989                 0.8026
 IR Inten    --     10.2069                 0.6950                 6.0134

                     22                     23                     24
                      A                      A                      A
 Frequencies --    672.9746               686.1444               737.7849
 Red. masses --      6.6399                 1.6374                 2.1983
 Frc consts  --      1.7718                 0.4542                 0.7050
 IR Inten    --     25.6987                74.2738                77.9622

                     25                     26                     27
                      A                      A                      A
 Frequencies --    748.4336               749.5102               759.4985
 Red. masses --      3.7944                 5.5735                 1.3067
 Frc consts  --      1.2523                 1.8447                 0.4441
 IR Inten    --      5.6214                 8.4513               135.2277

                     28                     29                     30
                      A                      A                      A
 Frequencies --    808.7506               819.4182               846.9479
 Red. masses --      1.4272                 1.3426                 5.9546
 Frc consts  --      0.5500                 0.5311                 2.5166
 IR Inten    --     24.5745                22.3973                63.1850

                     31                     32                     33
                      A                      A                      A
 Frequencies --    854.6594               858.7839               881.8406
 Red. masses --      1.4785                 1.4510                 6.2091
 Frc consts  --      0.6363                 0.6305                 2.8448
 IR Inten    --     12.8362                 0.0674               196.7205

                     34                     35                     36
                      A                      A                      A
 Frequencies --    940.4404               969.8123               974.2910
 Red. masses --      1.3597                 1.3217                 1.2591
 Frc consts  --      0.7085                 0.7324                 0.7042
 IR Inten    --      7.3189                 0.0063                 0.0689

                     37                     38                     39
                      A                      A                      A
 Frequencies --    975.5887               978.4813              1005.8394
 Red. masses --      1.2642                 5.4573                 5.9715
 Frc consts  --      0.7089                 3.0785                 3.5595
 IR Inten    --      0.5354               383.8944                 4.4301

                     40                     41                     42
                      A                      A                      A
 Frequencies --   1031.1343              1047.6084              1093.5007
 Red. masses --      2.1574                 1.9885                 1.6888
 Frc consts  --      1.3515                 1.2858                 1.1898
 IR Inten    --     95.4327                79.7656                39.1389

                     43                     44                     45
                      A                      A                      A
 Frequencies --   1103.7661              1143.1644              1161.8721
 Red. masses --      2.3330                 1.8798                 1.1383
 Frc consts  --      1.6747                 1.4474                 0.9054
 IR Inten    --     20.2018                34.9777                56.7546

                     46                     47                     48
                      A                      A                      A
 Frequencies --   1165.4536              1192.7309              1231.8156
 Red. masses --      1.1514                 1.2012                 3.3667
 Frc consts  --      0.9215                 1.0068                 3.0099
 IR Inten    --     22.4702               224.2648               342.0487

                     49                     50                     51
                      A                      A                      A
 Frequencies --   1250.1236              1269.3787              1294.5105
 Red. masses --      1.8481                 1.8451                 3.8911
 Frc consts  --      1.7017                 1.7516                 3.8418
 IR Inten    --    499.4486                75.1652                54.8791

                     52                     53                     54
                      A                      A                      A
 Frequencies --   1308.9112              1332.2871              1351.4757
 Red. masses --      4.7550                 4.3130                 2.3885
 Frc consts  --      4.7997                 4.5105                 2.5703
 IR Inten    --    295.9433               235.0886                85.7118

                     55                     56                     57
                      A                      A                      A
 Frequencies --   1359.2811              1412.1106              1464.9758
 Red. masses --      4.3375                 2.8017                 2.4335
 Frc consts  --      4.7218                 3.2916                 3.0771
 IR Inten    --    103.0874              1193.1506                46.0294

                     58                     59                     60
                      A                      A                      A
 Frequencies --   1479.8767              1493.4133              1510.6540
 Red. masses --      2.5906                 2.7575                 2.5402
 Frc consts  --      3.3428                 3.6234                 3.4155
 IR Inten    --    151.8010                51.5320               872.1256

                     61                     62                     63
                      A                      A                      A
 Frequencies --   1551.5434              1557.4892              1595.8234
 Red. masses --      4.0137                 5.4535                 5.8394
 Frc consts  --      5.6928                 7.7943                 8.7617
 IR Inten    --    101.9449               846.3154               168.1789

                     64                     65                     66
                      A                      A                      A
 Frequencies --   1609.2257              1621.5679              3149.6804
 Red. masses --      5.3736                 6.7208                 1.0857
 Frc consts  --      8.1987                10.4122                 6.3457
 IR Inten    --    552.9056               123.6700                44.3717

                     67                     68                     69
                      A                      A                      A
 Frequencies --   3154.1375              3162.9352              3175.2848
 Red. masses --      1.0885                 1.0855                 1.0895
 Frc consts  --      6.3802                 6.3983                 6.4723
 IR Inten    --     34.8154                10.6013                36.0793

                     70                     71                     72
                      A                      A                      A
 Frequencies --   3177.0485              3183.3056              3185.6237
 Red. masses --      1.0907                 1.0945                 1.0923
 Frc consts  --      6.4864                 6.5344                 6.5311
 IR Inten    --      9.9987                36.4961                19.6905

                     73                     74                     75
                      A                      A                      A
 Frequencies --   3190.8912              3193.2569              3199.3825
 Red. masses --      1.0962                 1.0882                 1.0916
 Frc consts  --      6.5758                 6.5380                 6.5834
 IR Inten    --     25.5613                40.1489                 8.1825

 - Thermochemistry -
 -------------------
 Temperature   298.150 Kelvin.  Pressure   1.00000 Atm.
 Atom     1 has atomic number  8 and mass  15.99491

 Molecular mass:   222.06808 amu.
 Principal axes and moments of inertia in atomic units:
                           1         2         3
     Eigenvalues --  1564.615966622.495558187.10616
           X            0.99700   0.07466  -0.02037
           Y           -0.06810   0.97141   0.22741
           Z            0.03676  -0.22534   0.97359
 This molecule is an asymmetric top.
 Rotational symmetry number  1.
 Warning -- assumption of classical behavior for rotation
           may cause significant error
 Rotational temperatures (Kelvin)      0.05536     0.01308     0.01058
 Rotational constants (GHZ):           1.15347     0.27252     0.22044
 Zero-point vibrational energy     534298.0 (Joules/Mol)
                                  127.70028 (Kcal/Mol)
 Warning -- explicit consideration of  19 degrees of freedom as
           vibrations may cause significant error
 Vibrational temperatures:     64.25    78.20   160.90   181.99   208.41
          (Kelvin)            281.00   372.14   383.02   423.31   501.69
                              581.31   603.02   621.05   708.96   732.74
                              765.14   805.59   839.62   872.28   906.13
                              920.48   968.26   987.21  1061.51  1076.83
                             1078.38  1092.75  1163.61  1178.96  1218.57
                             1229.66  1235.60  1268.77  1353.08  1395.34
                             1401.79  1403.65  1407.82  1447.18  1483.57
                             1507.27  1573.30  1588.07  1644.76  1671.67
                             1676.83  1716.07  1772.31  1798.65  1826.35
                             1862.51  1883.23  1916.86  1944.47  1955.70
                             2031.71  2107.77  2129.21  2148.69  2173.49
                             2232.32  2240.88  2296.03  2315.32  2333.07
                             4531.69  4538.10  4550.76  4568.53  4571.06
                             4580.07  4583.40  4590.98  4594.38  4603.20

 Zero-point correction=                           0.203503 (Hartree/Particle)
 Thermal correction to Energy=                    0.216264
 Thermal correction to Enthalpy=                  0.217208
 Thermal correction to Gibbs Free Energy=         0.163038
 Sum of electronic and zero-point Energies=           -728.165593
 Sum of electronic and thermal Energies=              -728.152832
 Sum of electronic and thermal Enthalpies=            -728.151888
 Sum of electronic and thermal Free Energies=         -728.206058

                     E (Thermal)             CV                S
                      KCal/Mol        Cal/Mol-Kelvin    Cal/Mol-Kelvin
 Total                  135.708             52.026            114.011
 Electronic               0.000              0.000              1.377
 Translational            0.889              2.981             42.096
 Rotational               0.889              2.981             32.806
 Vibrational            133.930             46.065             37.731
 Vibration     1          0.595              1.980              5.041
 Vibration     2          0.596              1.976              4.652
 Vibration     3          0.607              1.940              3.237
 Vibration     4          0.611              1.927              2.999
 Vibration     5          0.616              1.908              2.739
 Vibration     6          0.636              1.846              2.177
 Vibration     7          0.667              1.748              1.671
 Vibration     8          0.672              1.735              1.621
 Vibration     9          0.689              1.685              1.450
 Vibration    10          0.726              1.578              1.172
 Vibration    11          0.769              1.461              0.948
 Vibration    12          0.782              1.429              0.895
 Vibration    13          0.793              1.401              0.853
 Vibration    14          0.848              1.266              0.676
 Vibration    15          0.864              1.229              0.635
 Vibration    16          0.887              1.180              0.583
 Vibration    17          0.916              1.118              0.524
 Vibration    18          0.940              1.067              0.479
 Vibration    19          0.965              1.019              0.439

 Optimization completed.
    -- Stationary point found.
 Normal termination of Gaussian 16 at Sun Feb 11 16:21:32 2024.
