 Q-Chem 5.4, Q-Chem, Inc., Pleasanton, CA (2021)
 Q-Chem 5.4.0 for Intel X86 EM64T Linux

User input:
--------------------------------------------------------------
$molecule
0 1
C                 -2.8954240000     -1.9247480000     -0.1389350000
C                 -2.4074730000     -0.4995730000     -0.0504700000
C                 -3.3675080000      0.5144310000      0.0506580000
C                 -3.0209390000      1.8590730000      0.1370600000
C                 -1.6836820000      2.2279590000      0.1241260000
C                 -0.6959060000      1.2481710000      0.0247730000
C                  0.7255780000      1.7156620000      0.0165470000
O                  0.9983500000      2.9032400000      0.0932700000
C                  1.7926970000      0.6870310000     -0.0892060000
C                  3.1336720000      1.0852340000     -0.1006850000
C                  4.1408590000      0.1338410000     -0.1988200000
C                  3.8151470000     -1.2231820000     -0.2861920000
C                  2.4849790000     -1.6247800000     -0.2752700000
C                  1.4637970000     -0.6736090000     -0.1768270000
C                  0.0425700000     -1.1432120000     -0.1681560000
O                 -0.1957500000     -2.3393800000     -0.2459220000
C                 -1.0411590000     -0.1214080000     -0.0633470000
H                 -3.9868270000     -1.9428070000     -0.1094240000
H                 -2.5091610000     -2.5347990000      0.6796310000
H                 -2.5581110000     -2.4103390000     -1.0564090000
H                 -4.4153130000      0.2342420000      0.0612760000
H                 -3.7953110000      2.6140140000      0.2140950000
H                 -1.3780780000      3.2642440000      0.1895100000
H                  3.3592000000      2.1421560000     -0.0316520000
H                  5.1796400000      0.4438900000     -0.2075790000
H                  4.6021020000     -1.9649730000     -0.3627170000
H                  2.2120490000     -2.6703780000     -0.3419590000
$end
$rem
MAX_SCF_CYCLES=200
BASIS  =  6-311++G(d,p)
GUI  =  2
JOB_TYPE  =  SP
METHOD  =  B3LYP
SOLVENT_METHOD = COSMO
$end
$solvent
dielectric 37.219
opticaldielectric 1.43
$end

--------------------------------------------------------------

             Standard Nuclear Orientation (Angstroms)
    I     Atom           X                Y                Z
 ----------------------------------------------------------------
    1      C       2.8952295757    -2.2711450465     0.0010427616
    2      C       2.5119554099    -0.8116429410     0.0003127057
    3      C       3.5437745152     0.1346379432     0.0002238005
    4      C       3.2957194780     1.5036178971    -0.0000400683
    5      C       1.9880353698     1.9667190843    -0.0001713305
    6      C       0.9310255022     1.0566162843    -0.0002241303
    7      C      -0.4535371428     1.6242591994    -0.0004838351
    8      O      -0.6393902658     2.8309451538    -0.0001477789
    9      C      -1.5932989330     0.6708698759     0.0000169946
   10      C      -2.9025797197     1.1635107249     0.0004205529
   11      C      -3.9769040794     0.2831517609     0.0006107644
   12      C      -3.7505453748    -1.0967015867     0.0003426799
   13      C      -2.4522961717    -1.5919752395    -0.0000664537
   14      C      -1.3640247158    -0.7128306548    -0.0001674056
   15      C       0.0201486804    -1.2825255216    -0.0005098614
   16      O       0.1710160011    -2.4953322061    -0.0014346076
   17      C       1.1759573170    -0.3371985483    -0.0000681454
   18      H       3.9830337323    -2.3662113387     0.0024752389
   19      H       2.4955205904    -2.7934955409    -0.8700452433
   20      H       2.4931940147    -2.7932949626     0.8711370627
   21      H       4.5690462536    -0.2193842794     0.0004769851
   22      H       4.1234130878     2.2039360998    -0.0000889730
   23      H       1.7584304461     3.0244700160    -0.0003085241
   24      H      -3.0507785251     2.2362407275     0.0004785049
   25      H      -4.9910174991     0.6663579126     0.0009037082
   26      H      -4.5898419130    -1.7829882938     0.0004521878
   27      H      -2.2559643359    -2.6567133104    -0.0002560306
 ----------------------------------------------------------------

    9    -728.2774099290      2.14e-06  Convergence criterion met
 Total energy in the final basis set =     -728.2774099290
    5    -728.2903114741      2.93e-06  Convergence criterion met
 Total energy in the final basis set =     -728.2903114741

                    Orbital Energies (a.u.)
 --------------------------------------------------------------

 Alpha MOs
 -- Occupied --
-19.1305 -19.1277 -10.2824 -10.2820 -10.2102 -10.2085 -10.2067 -10.2062
-10.2052 -10.1955 -10.1951 -10.1946 -10.1940 -10.1938 -10.1914 -10.1908
-10.1658  -1.0664  -1.0637  -0.8920  -0.8806  -0.8106  -0.7930  -0.7759
 -0.7670  -0.7089  -0.6810  -0.6586  -0.6411  -0.6047  -0.5748  -0.5587
 -0.5500  -0.5034  -0.4888  -0.4847  -0.4810  -0.4598  -0.4569  -0.4484
 -0.4451  -0.4383  -0.4265  -0.4262  -0.4110  -0.3954  -0.3838  -0.3815
 -0.3720  -0.3698  -0.3651  -0.3616  -0.2881  -0.2859  -0.2767  -0.2740
 -0.2712  -0.2671

          Ground-State Mulliken Net Atomic Charges

     Atom                 Charge (a.u.)
  ----------------------------------------
      1 C                    -0.535265
      2 C                     0.802099
      3 C                    -0.424632
      4 C                    -0.324305
      5 C                     0.043077
      6 C                     0.408620
      7 C                    -0.588597
      8 O                    -0.295155
      9 C                     0.042391
     10 C                     0.111780
     11 C                    -0.457066
     12 C                    -0.456641
     13 C                     0.214539
     14 C                    -0.020217
     15 C                    -0.802964
     16 O                    -0.261801
     17 C                     0.561299
     18 H                     0.173178
     19 H                     0.181033
     20 H                     0.180652
     21 H                     0.166680
     22 H                     0.241280
     23 H                     0.189083
     24 H                     0.198228
     25 H                     0.224189
     26 H                     0.226511
     27 H                     0.202000
  ----------------------------------------
  Sum of atomic charges =     0.000000

                    Cartesian Multipole Moments
 -----------------------------------------------------------------
    Charge (ESU x 10^10)
                 0.0000
    Dipole Moment (Debye)
         X       0.5060      Y      -0.7451      Z       0.0022
       Tot       0.9007
    Quadrupole Moments (Debye-Ang)
        XX     -66.0885     XY       5.6253     YY    -109.7487
        XZ      -0.0016     YZ      -0.0063     ZZ    -100.9191

 Total job time:  57.58s(wall), 437.42s(cpu)
        *  Thank you very much for using Q-Chem.  Have a nice day.  *
