 Q-Chem 5.4, Q-Chem, Inc., Pleasanton, CA (2021)
 Q-Chem 5.4.0 for Intel X86 EM64T Linux

User input:
--------------------------------------------------------------
$molecule
-2 1
C                 -0.3203160000     -2.0017840000      0.9649850000
C                 -0.2328230000     -0.9517070000     -0.1773270000
C                 -0.5587480000     -1.6511280000     -1.5291040000
C                 -1.2792560000      0.1420000000      0.0992990000
C                 -2.6356920000     -0.1880850000      0.0898600000
C                 -3.6392300000      0.7473890000      0.3787210000
C                 -3.2687630000      2.0695780000      0.6538410000
C                 -1.9317800000      2.4280610000      0.6629410000
C                 -0.9031620000      1.4751450000      0.4214790000
C                  0.4841210000      1.9168950000      0.4766250000
O                  0.7858030000      3.1172360000      0.7637360000
C                  1.5057260000      0.9427810000      0.1159090000
C                  2.8619510000      1.3686930000      0.0548850000
C                  3.8850630000      0.4885250000     -0.2527370000
C                  3.5961540000     -0.8518610000     -0.5373510000
C                  2.2578970000     -1.2698170000     -0.5293790000
C                  1.2059790000     -0.4073380000     -0.2154860000
H                  0.3939670000     -2.8147680000      0.8063800000
H                 -1.3233110000     -2.4338500000      1.0248850000
H                 -0.0933960000     -1.5295550000      1.9252420000
H                 -1.5638150000     -2.0847060000     -1.5235390000
H                 -0.5038850000     -0.9338360000     -2.3520670000
H                  0.1443630000     -2.4632280000     -1.7395660000
H                 -2.9378340000     -1.2063200000     -0.1366030000
H                 -4.6838270000      0.4475280000      0.3738830000
H                 -4.0350830000      2.8149270000      0.8607100000
H                 -1.6171040000      3.4456260000      0.8639650000
H                  3.0557990000      2.4130510000      0.2707670000
H                  4.9165690000      0.8365640000     -0.2739320000
H                  4.3878220000     -1.5577010000     -0.7743730000
H                  2.0468100000     -2.3083150000     -0.7666530000
$end
$rem
MAX_SCF_CYCLES=200
BASIS  =  6-311++G(d,p)
GUI  =  2
JOB_TYPE  =  SP
METHOD  =  B3LYP
SOLVENT_METHOD = PCM
$end
$pcm
theory = CPCM
$end
$solvent
dielectric 37.219
opticaldielectric 1.43
$end

--------------------------------------------------------------

             Standard Nuclear Orientation (Angstroms)
    I     Atom           X                Y                Z
 ----------------------------------------------------------------
    1      C      -0.3203160000    -2.0017840000     0.9649850000
    2      C      -0.2328230000    -0.9517070000    -0.1773270000
    3      C      -0.5587480000    -1.6511280000    -1.5291040000
    4      C      -1.2792560000     0.1420000000     0.0992990000
    5      C      -2.6356920000    -0.1880850000     0.0898600000
    6      C      -3.6392300000     0.7473890000     0.3787210000
    7      C      -3.2687630000     2.0695780000     0.6538410000
    8      C      -1.9317800000     2.4280610000     0.6629410000
    9      C      -0.9031620000     1.4751450000     0.4214790000
   10      C       0.4841210000     1.9168950000     0.4766250000
   11      O       0.7858030000     3.1172360000     0.7637360000
   12      C       1.5057260000     0.9427810000     0.1159090000
   13      C       2.8619510000     1.3686930000     0.0548850000
   14      C       3.8850630000     0.4885250000    -0.2527370000
   15      C       3.5961540000    -0.8518610000    -0.5373510000
   16      C       2.2578970000    -1.2698170000    -0.5293790000
   17      C       1.2059790000    -0.4073380000    -0.2154860000
   18      H       0.3939670000    -2.8147680000     0.8063800000
   19      H      -1.3233110000    -2.4338500000     1.0248850000
   20      H      -0.0933960000    -1.5295550000     1.9252420000
   21      H      -1.5638150000    -2.0847060000    -1.5235390000
   22      H      -0.5038850000    -0.9338360000    -2.3520670000
   23      H       0.1443630000    -2.4632280000    -1.7395660000
   24      H      -2.9378340000    -1.2063200000    -0.1366030000
   25      H      -4.6838270000     0.4475280000     0.3738830000
   26      H      -4.0350830000     2.8149270000     0.8607100000
   27      H      -1.6171040000     3.4456260000     0.8639650000
   28      H       3.0557990000     2.4130510000     0.2707670000
   29      H       4.9165690000     0.8365640000    -0.2739320000
   30      H       4.3878220000    -1.5577010000    -0.7743730000
   31      H       2.0468100000    -2.3083150000    -0.7666530000
 ----------------------------------------------------------------

   10    -693.7211386113      4.58e-06  Convergence criterion met
 Total energy in the final basis set =     -693.7211386113

                    Orbital Energies (a.u.)
 --------------------------------------------------------------

 Alpha MOs
 -- Occupied --
-19.0021 -10.1680 -10.1397 -10.1395 -10.1385 -10.1384 -10.1378 -10.1378
-10.1364 -10.1324 -10.1324 -10.1223 -10.1223 -10.1216 -10.1216 -10.1182
-10.1182  -0.9265  -0.8311  -0.8084  -0.7760  -0.7198  -0.7077  -0.6955
 -0.6899  -0.6673  -0.6015  -0.5950  -0.5699  -0.5496  -0.5212  -0.4959
 -0.4859  -0.4449  -0.4234  -0.4233  -0.4136  -0.4081  -0.4022  -0.3990
 -0.3829  -0.3766  -0.3638  -0.3543  -0.3509  -0.3485  -0.3389  -0.3251
 -0.3248  -0.3224  -0.3096  -0.2948  -0.2827  -0.2764  -0.2195  -0.2155
 -0.2101  -0.2082  -0.1838  -0.0657

          Ground-State Mulliken Net Atomic Charges

     Atom                 Charge (a.u.)
  ----------------------------------------
      1 C                    -0.803432
      2 C                     0.345796
      3 C                    -0.790853
      4 C                     0.005605
      5 C                    -0.275717
      6 C                    -0.552170
      7 C                    -0.575250
      8 C                    -0.299338
      9 C                     0.775456
     10 C                    -0.102719
     11 O                    -0.764230
     12 C                     0.773992
     13 C                    -0.304595
     14 C                    -0.577941
     15 C                    -0.550350
     16 C                    -0.278072
     17 C                     0.007020
     18 H                     0.139506
     19 H                     0.139878
     20 H                     0.150044
     21 H                     0.134104
     22 H                     0.158346
     23 H                     0.135399
     24 H                     0.116705
     25 H                     0.148743
     26 H                     0.148497
     27 H                     0.140925
     28 H                     0.140384
     29 H                     0.148758
     30 H                     0.148841
     31 H                     0.116669
  ----------------------------------------
  Sum of atomic charges =    -2.000000

                    Cartesian Multipole Moments
 -----------------------------------------------------------------
    Charge (ESU x 10^10)
                -9.6064
    Dipole Moment (Debye)
         X      -4.0988      Y     -16.4263      Z      -3.5790
       Tot      17.3041
    Quadrupole Moments (Debye-Ang)
        XX    -154.7235     XY      -2.1771     YY    -158.5142
        XZ       1.8864     YZ      -9.9528     ZZ    -122.2665

 Total job time:  89.98s(wall), 455.99s(cpu)
        *  Thank you very much for using Q-Chem.  Have a nice day.  *
