 Gaussian 16, Revision A.03,
 Gaussian 16:  ES64L-G16RevA.03 25-Dec-2016

 --------------------------------------
 #P UB3LYP/6-311++G(d,p) nosym opt freq
 --------------------------------------

 -------
 Radical
 -------
 Symbolic Z-matrix:
 Charge = -1 Multiplicity = 2

 SCF Done:  E(UB3LYP) =  -1663.59406319     A.U. after   24 cycles
 SCF Done:  E(UB3LYP) =  -1663.61866345     A.U. after   20 cycles
 SCF Done:  E(UB3LYP) =  -1663.63041330     A.U. after   19 cycles
 SCF Done:  E(UB3LYP) =  -1663.64165335     A.U. after   20 cycles
 SCF Done:  E(UB3LYP) =  -1663.64634604     A.U. after   17 cycles
 SCF Done:  E(UB3LYP) =  -1663.64952628     A.U. after   18 cycles
 SCF Done:  E(UB3LYP) =  -1663.65035372     A.U. after   18 cycles
 SCF Done:  E(UB3LYP) =  -1663.65095434     A.U. after   17 cycles
 SCF Done:  E(UB3LYP) =  -1663.65111114     A.U. after   18 cycles
 SCF Done:  E(UB3LYP) =  -1663.65118810     A.U. after   16 cycles
 SCF Done:  E(UB3LYP) =  -1663.65121437     A.U. after   15 cycles
 SCF Done:  E(UB3LYP) =  -1663.65122785     A.U. after   15 cycles
 SCF Done:  E(UB3LYP) =  -1663.65123010     A.U. after   13 cycles
 SCF Done:  E(UB3LYP) =  -1663.65123024     A.U. after   11 cycles
 Optimization completed.
    -- Stationary point found.
 Normal termination of Gaussian 16 at Thu Dec 21 07:43:19 2023.

 ----------------------------------------------------------------------
 #P Geom=AllCheck Guess=TCheck SCRF=Check GenChk UB3LYP/6-311++G(d,p) F
 req
 ----------------------------------------------------------------------

 Structure from the checkpoint file:  "158-rad.chk"
 -------
 Radical
 -------
 Charge = -1 Multiplicity = 2

                          Input orientation:
 ---------------------------------------------------------------------
 Center     Atomic      Atomic             Coordinates (Angstroms)
 Number     Number       Type             X           Y           Z
 ---------------------------------------------------------------------
      1          7           0       -2.576095    0.505895    2.318617
      2          6           0       -2.427076    0.278592    0.963504
      3          6           0       -3.555765    0.177894    0.145325
      4          6           0       -3.434279   -0.118227   -1.217454
      5          6           0       -2.190876   -0.321911   -1.784216
      6          6           0       -1.025609   -0.214436   -1.000259
      7          6           0        0.264872   -0.426180   -1.667446
      8          8           0        0.346716   -0.716012   -2.885234
      9          6           0        1.454308   -0.276196   -0.835459
     10          6           0        2.726669   -0.464616   -1.411697
     11          6           0        3.872527   -0.323914   -0.663831
     12         17           0        5.440187   -0.571630   -1.436079
     13          6           0        3.782175    0.017089    0.707796
     14         17           0        5.233936    0.204363    1.694345
     15          6           0        2.549073    0.205951    1.288455
     16          6           0        1.362783    0.064036    0.540715
     17          6           0        0.079443    0.273019    1.206928
     18          8           0        0.052280    0.598028    2.432767
     19          6           0       -1.119112    0.101271    0.393819
     20          1           0       -1.706114    0.743313    2.796383
     21          1           0       -3.428160    0.957619    2.610030
     22          1           0       -4.537777    0.315562    0.590148
     23          1           0       -4.330083   -0.193510   -1.827186
     24          1           0       -2.070880   -0.560547   -2.833088
     25          1           0        2.774626   -0.722229   -2.462099
     26          1           0        2.462230    0.466777    2.335218
 ---------------------------------------------------------------------

 SCF Done:  E(UB3LYP) =  -1663.65123024     A.U. after    2 cycles

 Alpha  occ. eigenvalues -- -101.45671-101.45659 -18.96488 -18.95734 -14.20121
 Alpha  occ. eigenvalues --  -10.13743 -10.13694 -10.11607 -10.10924 -10.10809
 Alpha  occ. eigenvalues --  -10.07658 -10.07616 -10.06899 -10.06762 -10.06562
 Alpha  occ. eigenvalues --  -10.06361 -10.06112 -10.05789 -10.04740  -9.37132
 Alpha  occ. eigenvalues --   -9.37119  -7.13578  -7.13566  -7.12630  -7.12618
 Alpha  occ. eigenvalues --   -7.12584  -7.12571  -0.89162  -0.88405  -0.80803
 Alpha  occ. eigenvalues --   -0.80581  -0.75503  -0.73942  -0.72398  -0.66793
 Alpha  occ. eigenvalues --   -0.64647  -0.62405  -0.61992  -0.55568  -0.53298
 Alpha  occ. eigenvalues --   -0.51272  -0.48952  -0.45214  -0.43714  -0.41923
 Alpha  occ. eigenvalues --   -0.39398  -0.37835  -0.36971  -0.36304  -0.34258
 Alpha  occ. eigenvalues --   -0.33607  -0.33011  -0.32045  -0.30905  -0.29945
 Alpha  occ. eigenvalues --   -0.29744  -0.29247  -0.28623  -0.26771  -0.26007
 Alpha  occ. eigenvalues --   -0.25672  -0.24707  -0.24644  -0.23680  -0.22890
 Alpha  occ. eigenvalues --   -0.21367  -0.21060  -0.19938  -0.15359  -0.15132
 Alpha  occ. eigenvalues --   -0.13799  -0.13362  -0.12148  -0.10194  -0.02726
 Alpha virt. eigenvalues --    0.05581   0.07411   0.08167   0.08399   0.08967
 Alpha virt. eigenvalues --    0.10071   0.10748   0.10807   0.11249   0.12251
 Alpha virt. eigenvalues --    0.13323   0.13858   0.14612   0.14652   0.15069

  Beta  occ. eigenvalues -- -101.45669-101.45656 -18.95953 -18.95136 -14.20104
  Beta  occ. eigenvalues --  -10.13675 -10.13624 -10.11442 -10.10928 -10.10686
  Beta  occ. eigenvalues --  -10.07676 -10.07633 -10.06789 -10.06647 -10.06516
  Beta  occ. eigenvalues --  -10.06352 -10.06022 -10.05704 -10.04722  -9.37129
  Beta  occ. eigenvalues --   -9.37117  -7.13580  -7.13568  -7.12619  -7.12607
  Beta  occ. eigenvalues --   -7.12583  -7.12570  -0.88254  -0.87375  -0.80731
  Beta  occ. eigenvalues --   -0.80471  -0.75449  -0.73661  -0.72289  -0.66455
  Beta  occ. eigenvalues --   -0.64459  -0.62199  -0.61801  -0.54876  -0.53175
  Beta  occ. eigenvalues --   -0.51022  -0.48858  -0.45007  -0.43524  -0.41798
  Beta  occ. eigenvalues --   -0.39311  -0.37726  -0.36773  -0.36129  -0.34147
  Beta  occ. eigenvalues --   -0.33495  -0.32981  -0.31378  -0.30747  -0.29675
  Beta  occ. eigenvalues --   -0.29132  -0.28972  -0.28232  -0.25902  -0.25400
  Beta  occ. eigenvalues --   -0.24879  -0.24507  -0.23921  -0.23478  -0.22843
  Beta  occ. eigenvalues --   -0.21042  -0.20671  -0.19235  -0.14523  -0.13333
  Beta  occ. eigenvalues --   -0.13217  -0.12870  -0.11597  -0.09490
  Beta virt. eigenvalues --    0.03009   0.06378   0.07418   0.08443   0.08934
  Beta virt. eigenvalues --    0.09295   0.10086   0.10767   0.11065   0.11311
  Beta virt. eigenvalues --    0.12269   0.13348   0.13873   0.14655   0.14822

 Mulliken charges and spin densities:
               1          2
     1  N   -0.363112   0.006454
     2  C    0.126827   0.027776
     3  C   -0.206091   0.076419
     4  C   -0.455794   0.038006
     5  C   -0.037165   0.039018
     6  C    0.522769   0.041856
     7  C   -0.912956   0.051786
     8  O   -0.349226   0.224825
     9  C   -0.472225   0.068957
    10  C   -0.506738   0.011172
    11  C    0.543620   0.039997
    12  Cl   0.525363   0.002476
    13  C    0.406237   0.045507
    14  Cl   0.526757   0.002504
    15  C   -0.252361   0.023841
    16  C   -0.205117   0.076046
    17  C   -1.094639   0.064756
    18  O   -0.363176   0.197935
    19  C    0.246922  -0.022681
    20  H    0.304385  -0.003328
    21  H    0.214910  -0.000750
    22  H    0.099129  -0.005555
    23  H    0.131980  -0.002998
    24  H    0.150969  -0.002813
    25  H    0.205922  -0.001066
    26  H    0.212810  -0.000138
 Sum of Mulliken charges =  -1.00000   1.00000

 Dipole moment (field-independent basis, Debye):
    X=             -5.5581    Y=              1.3116    Z=              1.7094  Tot=              5.9612
 Quadrupole moment (field-independent basis, Debye-Ang):
   XX=           -163.9404   YY=           -130.6188   ZZ=           -153.4411
   XY=             -1.3957   XZ=             -1.8321   YZ=             -3.5504

  Exact polarizability: 403.685 -11.561 115.085   2.730  31.554 244.477
 Approx polarizability: 571.961 -15.432 188.189   5.801  65.886 459.842

                      1                      2                      3
                      A                      A                      A
 Frequencies --     42.2859                50.7762                97.9733
 Red. masses --      8.6171                12.3649                 7.2905
 Frc consts  --      0.0091                 0.0188                 0.0412
 IR Inten    --      2.9876                 0.0282                 0.0418

                      4                      5                      6
                      A                      A                      A
 Frequencies --    129.2266               138.9308               185.3243
 Red. masses --     12.0544                 9.7060                 5.4809
 Frc consts  --      0.1186                 0.1104                 0.1109
 IR Inten    --      4.4825                 1.0933                 0.7743

                      7                      8                      9
                      A                      A                      A
 Frequencies --    192.4704               210.3951               239.4551
 Red. masses --     28.7743                 6.0548                 4.1306
 Frc consts  --      0.6280                 0.1579                 0.1395
 IR Inten    --      0.4290                 0.0364                 8.9009

                     10                     11                     12
                      A                      A                      A
 Frequencies --    259.1794               281.6323               327.9964
 Red. masses --      9.7136                11.4968                 6.9294
 Frc consts  --      0.3844                 0.5373                 0.4392
 IR Inten    --      2.5840                 2.8035                19.7516

                     13                     14                     15
                      A                      A                      A
 Frequencies --    333.0221               370.0871               402.5066
 Red. masses --      6.9555                 2.3173                 2.9869
 Frc consts  --      0.4545                 0.1870                 0.2851
 IR Inten    --     14.0885                74.3563                44.1141

                     16                     17                     18
                      A                      A                      A
 Frequencies --    416.4586               437.7466               442.4883
 Red. masses --      4.1269                 5.7676                 3.4784
 Frc consts  --      0.4217                 0.6512                 0.4013
 IR Inten    --     48.8916                 0.2482                 9.1325

                     19                     20                     21
                      A                      A                      A
 Frequencies --    457.5619               477.9662               494.6809
 Red. masses --      5.8023                10.9384                 5.8766
 Frc consts  --      0.7157                 1.4723                 0.8473
 IR Inten    --      5.0679                 5.8267                 3.2773

                     22                     23                     24
                      A                      A                      A
 Frequencies --    539.2085               541.9962               574.6394
 Red. masses --      6.0995                 6.5982                 5.1006
 Frc consts  --      1.0449                 1.1420                 0.9923
 IR Inten    --      9.7027                21.3156                 5.3489

                     25                     26                     27
                      A                      A                      A
 Frequencies --    601.8218               632.8098               658.7515
 Red. masses --      6.5689                 5.1467                 6.5820
 Frc consts  --      1.4018                 1.2143                 1.6829
 IR Inten    --     58.3037                 1.2697                33.8270

                     28                     29                     30
                      A                      A                      A
 Frequencies --    685.7514               700.6653               719.0937
 Red. masses --      7.3668                 1.6424                 1.9944
 Frc consts  --      2.0411                 0.4751                 0.6076
 IR Inten    --     15.5560                95.1051                17.5673

                     31                     32                     33
                      A                      A                      A
 Frequencies --    723.2878               750.5025               771.2265
 Red. masses --      7.0887                 3.7936                 1.7926
 Frc consts  --      2.1849                 1.2589                 0.6282
 IR Inten    --     10.2544                43.3026                 8.0746

                     34                     35                     36
                      A                      A                      A
 Frequencies --    817.3709               829.6225               859.9781
 Red. masses --      5.2140                 6.6109                 1.4687
 Frc consts  --      2.0524                 2.6808                 0.6400
 IR Inten    --     11.4987                20.7942                 0.3467

                     37                     38                     39
                      A                      A                      A
 Frequencies --    900.7273               911.8438               935.5558
 Red. masses --      6.0771                 1.3887                 1.4115
 Frc consts  --      2.9049                 0.6803                 0.7279
 IR Inten    --      3.6362                 0.0199                21.1537

                     40                     41                     42
                      A                      A                      A
 Frequencies --    960.9596               963.3098              1032.1281
 Red. masses --      8.6720                 1.2891                 3.1394
 Frc consts  --      4.7182                 0.7048                 1.9704
 IR Inten    --     44.0046                 1.4910                16.7707

                     43                     44                     45
                      A                      A                      A
 Frequencies --   1073.7879              1108.3160              1146.9824
 Red. masses --      2.1761                 1.7663                 1.8588
 Frc consts  --      1.4783                 1.2783                 1.4407
 IR Inten    --     33.0388                36.1672                57.2943

                     46                     47                     48
                      A                      A                      A
 Frequencies --   1163.6421              1173.4525              1195.4668
 Red. masses --      2.4732                 1.7940                 3.2475
 Frc consts  --      1.9731                 1.4555                 2.7345
 IR Inten    --     42.3294                 2.5717                23.8785

                     49                     50                     51
                      A                      A                      A
 Frequencies --   1216.5911              1226.6811              1298.6577
 Red. masses --      3.3785                 1.3436                 2.8079
 Frc consts  --      2.9462                 1.1912                 2.7901
 IR Inten    --     15.0149                16.3010                25.9101

                     52                     53                     54
                      A                      A                      A
 Frequencies --   1322.2194              1353.3134              1360.1109
 Red. masses --      4.7718                 7.2305                 9.8074
 Frc consts  --      4.9152                 7.8022                10.6893
 IR Inten    --     24.7642                18.6438                19.7668

                     55                     56                     57
                      A                      A                      A
 Frequencies --   1400.5673              1440.8205              1457.8167
 Red. masses --      3.5033                 2.8395                 4.3359
 Frc consts  --      4.0489                 3.4730                 5.4292
 IR Inten    --    170.7965               131.6827                60.8221

                     58                     59                     60
                      A                      A                      A
 Frequencies --   1464.6043              1507.7050              1519.0254
 Red. masses --      3.5487                 5.5692                 7.3277
 Frc consts  --      4.4850                 7.4589                 9.9620
 IR Inten    --     47.3142               174.3067               553.3073

                     61                     62                     63
                      A                      A                      A
 Frequencies --   1548.1003              1593.6675              1607.3858
 Red. masses --      4.0891                 6.4854                 3.5937
 Frc consts  --      5.7740                 9.7047                 5.4705
 IR Inten    --    122.6252                77.1994                 0.4555

                     64                     65                     66
                      A                      A                      A
 Frequencies --   1610.7801              1623.2605              3129.0715
 Red. masses --      1.8271                 7.4492                 1.0853
 Frc consts  --      2.7930                11.5648                 6.2607
 IR Inten    --    219.8960                38.2904                29.4242

                     67                     68                     69
                      A                      A                      A
 Frequencies --   3150.4051              3198.0424              3200.4610
 Red. masses --      1.0924                 1.0916                 1.0902
 Frc consts  --      6.3878                 6.5780                 6.5793
 IR Inten    --     61.4686                14.5904                 2.5591

                     70                     71                     72
                      A                      A                      A
 Frequencies --   3204.2289              3383.9481              3648.2366
 Red. masses --      1.0903                 1.0615                 1.0876
 Frc consts  --      6.5952                 7.1619                 8.5290
 IR Inten    --      8.8409               119.1976                24.0678

 - Thermochemistry -
 -------------------
 Temperature   298.150 Kelvin.  Pressure   1.00000 Atm.
 Atom     1 has atomic number  7 and mass  14.00307

 Molecular mass:   290.98538 amu.
 Principal axes and moments of inertia in atomic units:
                           1         2         3
     Eigenvalues --  2686.830789764.05359**********
           X            0.99923   0.01410   0.03655
           Y           -0.03880   0.22821   0.97284
           Z           -0.00537   0.97351  -0.22858
 This molecule is an asymmetric top.
 Rotational symmetry number  1.
 Warning -- assumption of classical behavior for rotation
           may cause significant error
 Rotational temperatures (Kelvin)      0.03224     0.00887     0.00696
 Rotational constants (GHZ):           0.67170     0.18484     0.14498
 Zero-point vibrational energy     457133.6 (Joules/Mol)
                                  109.25754 (Kcal/Mol)
 Warning -- explicit consideration of  25 degrees of freedom as
           vibrations may cause significant error
 Vibrational temperatures:     60.84    73.06   140.96   185.93   199.89
          (Kelvin)            266.64   276.92   302.71   344.52   372.90
                              405.21   471.91   479.14   532.47   579.12
                              599.19   629.82   636.64   658.33   687.69
                              711.74   775.80   779.81   826.78   865.89
                              910.47   947.80   986.64  1008.10  1034.62
                             1040.65  1079.81  1109.62  1176.01  1193.64
                             1237.32  1295.95  1311.94  1346.06  1382.61
                             1385.99  1485.00  1544.94  1594.62  1650.25
                             1674.22  1688.34  1720.01  1750.40  1764.92
                             1868.48  1902.38  1947.12  1956.90  2015.10
                             2073.02  2097.47  2107.24  2169.25  2185.54
                             2227.37  2292.93  2312.67  2317.55  2335.51
                             4502.04  4532.73  4601.27  4604.75  4610.17
                             4868.75  5249.00

 Zero-point correction=                           0.174113 (Hartree/Particle)
 Thermal correction to Energy=                    0.189154
 Thermal correction to Enthalpy=                  0.190098
 Thermal correction to Gibbs Free Energy=         0.130821
 Sum of electronic and zero-point Energies=          -1663.477117
 Sum of electronic and thermal Energies=             -1663.462076
 Sum of electronic and thermal Enthalpies=           -1663.461132
 Sum of electronic and thermal Free Energies=        -1663.520409

                     E (Thermal)             CV                S
                      KCal/Mol        Cal/Mol-Kelvin    Cal/Mol-Kelvin
 Total                  118.696             59.392            124.760
 Electronic               0.000              0.000              1.377
 Translational            0.889              2.981             42.902
 Rotational               0.889              2.981             34.145
 Vibrational            116.919             53.431             46.335
 Vibration     1          0.595              1.980              5.149
 Vibration     2          0.595              1.977              4.787
 Vibration     3          0.603              1.951              3.494
 Vibration     4          0.612              1.924              2.958
 Vibration     5          0.615              1.914              2.819
 Vibration     6          0.631              1.860              2.274
 Vibration     7          0.634              1.850              2.204
 Vibration     8          0.643              1.825              2.040
 Vibration     9          0.657              1.780              1.807
 Vibration    10          0.668              1.747              1.667
 Vibration    11          0.681              1.708              1.524
 Vibration    12          0.711              1.620              1.270
 Vibration    13          0.715              1.610              1.245
 Vibration    14          0.742              1.534              1.079
 Vibration    15          0.768              1.465              0.953
 Vibration    16          0.780              1.434              0.904
 Vibration    17          0.798              1.388              0.834
 Vibration    18          0.802              1.377              0.819
 Vibration    19          0.816              1.344              0.773
 Vibration    20          0.834              1.299              0.716
 Vibration    21          0.850              1.262              0.672
 Vibration    22          0.894              1.163              0.567
 Vibration    23          0.897              1.157              0.561
 Vibration    24          0.931              1.086              0.495
 Vibration    25          0.960              1.028              0.447

 Optimization completed.
    -- Stationary point found.
 Normal termination of Gaussian 16 at Thu Dec 21 09:16:56 2023.
