 Gaussian 16, Revision A.03,
 Gaussian 16:  ES64L-G16RevA.03 25-Dec-2016

 --------------------------------------
 #P UB3LYP/6-311++G(d,p) nosym opt freq
 --------------------------------------

 -------
 Radical
 -------
 Symbolic Z-matrix:
 Charge = -1 Multiplicity = 2

 SCF Done:  E(UB3LYP) =  -5682.42323194     A.U. after   19 cycles
 Optimization completed.
    -- Stationary point found.
 Normal termination of Gaussian 16 at Sun Jan  7 20:17:27 2024.

 ----------------------------------------------------------------------
 #P Geom=AllCheck Guess=TCheck SCRF=Check GenChk UB3LYP/6-311++G(d,p) F
 req
 ----------------------------------------------------------------------

 Structure from the checkpoint file:  "233-rad.chk"
 -------
 Radical
 -------
 Charge = -1 Multiplicity = 2

                          Input orientation:
 ---------------------------------------------------------------------
 Center     Atomic      Atomic             Coordinates (Angstroms)
 Number     Number       Type             X           Y           Z
 ---------------------------------------------------------------------
      1          6           0        5.927695   -5.220257    1.106587
      2          6           0        6.825407   -5.081270    0.063521
      3          6           0        6.613499   -4.095673   -0.918465
      4          6           0        4.797050   -4.386162    1.203215
      5          6           0        4.584263   -3.396359    0.217066
      6          6           0        5.508010   -3.268236   -0.838237
      7          6           0        3.867880   -4.573296    2.334812
      8          6           0        2.735109   -3.668998    2.348359
      9          6           0        2.526443   -2.698364    1.381335
     10          6           0        3.420010   -2.489912    0.259185
     11          8           0        4.064094   -5.451199    3.201698
     12          8           0        3.240088   -1.617972   -0.617207
     13          1           0        6.063587   -5.969507    1.877667
     14          1           0        5.317610   -2.500238   -1.578726
     15         35           0        1.528560   -3.915194    3.820931
     16         35           0        1.013265   -1.518291    1.433018
     17          1           0        7.692660   -5.731743    0.002279
     18          1           0        7.317108   -3.985018   -1.738028
 ---------------------------------------------------------------------

 SCF Done:  E(UB3LYP) =  -5682.42323194     A.U. after    2 cycles

 Alpha  occ. eigenvalues -- -482.70524-482.70524 -62.35800 -62.35800 -56.17830
 Alpha  occ. eigenvalues --  -56.17830 -56.17470 -56.17470 -56.17423 -56.17423
 Alpha  occ. eigenvalues --  -18.96038 -18.96037 -10.11528 -10.11527 -10.10776
 Alpha  occ. eigenvalues --  -10.10721 -10.07084 -10.07035 -10.06644 -10.06597
 Alpha  occ. eigenvalues --  -10.06370 -10.06369  -8.56767  -8.56766  -6.39893
 Alpha  occ. eigenvalues --   -6.39893  -6.38679  -6.38679  -6.38542  -6.38542
 Alpha  occ. eigenvalues --   -2.50993  -2.50992  -2.50669  -2.50668  -2.50565
 Alpha  occ. eigenvalues --   -2.50565  -2.49595  -2.49595  -2.49594  -2.49593
 Alpha  occ. eigenvalues --   -0.89125  -0.88840  -0.75344  -0.72961  -0.66915
 Alpha  occ. eigenvalues --   -0.66472  -0.64334  -0.60532  -0.55814  -0.50427
 Alpha  occ. eigenvalues --   -0.49290  -0.45011  -0.40778  -0.38557  -0.35655
 Alpha  occ. eigenvalues --   -0.34139  -0.31775  -0.31149  -0.30516  -0.29852
 Alpha  occ. eigenvalues --   -0.27974  -0.27592  -0.26616  -0.25245  -0.24423
 Alpha  occ. eigenvalues --   -0.23300  -0.21013  -0.18054  -0.18027  -0.15471
 Alpha  occ. eigenvalues --   -0.15286  -0.14739  -0.12970  -0.12821  -0.12055
 Alpha  occ. eigenvalues --   -0.03953
 Alpha virt. eigenvalues --    0.07563   0.07726   0.07904   0.08753   0.09786
 Alpha virt. eigenvalues --    0.11153   0.11408   0.12719   0.13173   0.14312
 Alpha virt. eigenvalues --    0.14571   0.15366   0.15570   0.15991   0.16123

  Beta  occ. eigenvalues -- -482.70523-482.70523 -62.35798 -62.35798 -56.17832
  Beta  occ. eigenvalues --  -56.17832 -56.17462 -56.17462 -56.17422 -56.17422
  Beta  occ. eigenvalues --  -18.95384 -18.95384 -10.11426 -10.11425 -10.10578
  Beta  occ. eigenvalues --  -10.10521 -10.07055 -10.07006 -10.06594 -10.06547
  Beta  occ. eigenvalues --  -10.06372 -10.06372  -8.56764  -8.56763  -6.39897
  Beta  occ. eigenvalues --   -6.39897  -6.38665  -6.38665  -6.38541  -6.38541
  Beta  occ. eigenvalues --   -2.50994  -2.50993  -2.50662  -2.50662  -2.50567
  Beta  occ. eigenvalues --   -2.50567  -2.49588  -2.49588  -2.49587  -2.49586
  Beta  occ. eigenvalues --   -0.88030  -0.87709  -0.75106  -0.72605  -0.66732
  Beta  occ. eigenvalues --   -0.66249  -0.64192  -0.60328  -0.55012  -0.50306
  Beta  occ. eigenvalues --   -0.48933  -0.44757  -0.40557  -0.38325  -0.35448
  Beta  occ. eigenvalues --   -0.33982  -0.31749  -0.30233  -0.29778  -0.29322
  Beta  occ. eigenvalues --   -0.27634  -0.27350  -0.24727  -0.24277  -0.24178
  Beta  occ. eigenvalues --   -0.23150  -0.19742  -0.17987  -0.17701  -0.15209
  Beta  occ. eigenvalues --   -0.14127  -0.13573  -0.12352  -0.11766  -0.11494
  Beta virt. eigenvalues --    0.02695   0.07734   0.08023   0.08195   0.09782
  Beta virt. eigenvalues --    0.09917   0.11230   0.11421   0.12742   0.13187
  Beta virt. eigenvalues --    0.14375   0.14603   0.15388   0.15578   0.16089

 Mulliken charges and spin densities:
               1          2
     1  C    0.165403   0.017822
     2  C   -0.309041   0.022171
     3  C   -0.309167   0.022172
     4  C    0.547758   0.027951
     5  C    0.548017   0.027953
     6  C    0.165430   0.017818
     7  C   -1.184297   0.051032
     8  C    0.450200   0.133828
     9  C    0.450596   0.133826
    10  C   -1.184223   0.051037
    11  O   -0.296130   0.243640
    12  O   -0.296178   0.243636
    13  H    0.159974  -0.002435
    14  H    0.159973  -0.002435
    15  Br  -0.167788   0.007878
    16  Br  -0.167874   0.007877
    17  H    0.133672  -0.001885
    18  H    0.133676  -0.001886
 Sum of Mulliken charges =  -1.00000   1.00000

 Dipole moment (field-independent basis, Debye):
    X=            -15.0349    Y=             16.1164    Z=             -7.6119  Tot=             23.3180
 Quadrupole moment (field-independent basis, Debye-Ang):
   XX=           -164.7576   YY=           -180.6096   ZZ=           -139.7011
   XY=             55.8021   XZ=            -23.5634   YZ=             39.2920

  Exact polarizability: 216.489 -54.204 165.980 -55.191 -35.366 189.272
 Approx polarizability: 313.336 -81.571 288.508 -63.848 -91.184 319.141

                      1                      2                      3
                      A                      A                      A
 Frequencies --     55.2333                57.4758               133.3187
 Red. masses --     12.3877                 9.4162                57.8010
 Frc consts  --      0.0223                 0.0183                 0.6053
 IR Inten    --      0.0004                 6.1044                 0.8971

                      4                      5                      6
                      A                      A                      A
 Frequencies --    135.7820               166.3997               168.2795
 Red. masses --      4.9872                 9.4738                12.9482
 Frc consts  --      0.0542                 0.1546                 0.2160
 IR Inten    --      0.0000                 2.2966                 2.3976

                      7                      8                      9
                      A                      A                      A
 Frequencies --    246.3400               260.8926               263.0215
 Red. masses --     10.6134                16.0117                 7.0423
 Frc consts  --      0.3795                 0.6421                 0.2870
 IR Inten    --      1.0416                 0.1124                 0.0126

                     10                     11                     12
                      A                      A                      A
 Frequencies --    303.1665               372.1302               380.2852
 Red. masses --     10.4781                 9.7603                10.7592
 Frc consts  --      0.5674                 0.7964                 0.9167
 IR Inten    --      0.0002                 0.0000                 7.2100

                     13                     14                     15
                      A                      A                      A
 Frequencies --    446.5168               482.8571               505.2744
 Red. masses --      3.4486                13.8687                 5.2260
 Frc consts  --      0.4051                 1.9051                 0.7861
 IR Inten    --      1.0966                 8.3987                 0.0000

                     16                     17                     18
                      A                      A                      A
 Frequencies --    522.5250               628.5236               671.5926
 Red. masses --      7.8538                 7.8017                 6.0592
 Frc consts  --      1.2634                 1.8159                 1.6102
 IR Inten    --      0.7137                20.9873                 0.0000

                     19                     20                     21
                      A                      A                      A
 Frequencies --    691.2036               697.9660               770.7981
 Red. masses --      8.4599                 2.9766                 7.7278
 Frc consts  --      2.3814                 0.8544                 2.7051
 IR Inten    --      0.1527                48.2016                34.3300

                     22                     23                     24
                      A                      A                      A
 Frequencies --    781.3200               781.6126               818.2435
 Red. masses --      1.6626                 5.3097                10.6733
 Frc consts  --      0.5980                 1.9112                 4.2103
 IR Inten    --     31.6549                 0.0023               110.3050

                     25                     26                     27
                      A                      A                      A
 Frequencies --    862.5139               879.0642               983.9749
 Red. masses --      7.5430                 1.4288                 1.3641
 Frc consts  --      3.3062                 0.6505                 0.7781
 IR Inten    --      0.4911                 0.0000                 2.9108

                     28                     29                     30
                      A                      A                      A
 Frequencies --    987.0803              1038.1987              1096.1897
 Red. masses --      1.2620                 2.5363                 3.9676
 Frc consts  --      0.7245                 1.6107                 2.8090
 IR Inten    --      0.0000                10.2637                17.1790

                     31                     32                     33
                      A                      A                      A
 Frequencies --   1105.8606              1146.6477              1160.7349
 Red. masses --      2.5612                 1.5605                 2.9836
 Frc consts  --      1.8454                 1.2088                 2.3684
 IR Inten    --      1.5290                11.7206                90.0408

                     34                     35                     36
                      A                      A                      A
 Frequencies --   1207.8212              1243.8036              1330.5564
 Red. masses --      2.2924                 1.8456                 3.0342
 Frc consts  --      1.9704                 1.6822                 3.1649
 IR Inten    --     15.6740                52.5031                33.1200

                     37                     38                     39
                      A                      A                      A
 Frequencies --   1358.1571              1430.6253              1466.2922
 Red. masses --      9.9249                 6.2139                 2.8583
 Frc consts  --     10.7864                 7.4932                 3.6208
 IR Inten    --      0.9691                21.5506                35.2279

                     40                     41                     42
                      A                      A                      A
 Frequencies --   1492.6873              1540.3191              1556.5952
 Red. masses --      2.9201                 8.3976                 8.3509
 Frc consts  --      3.8334                11.7389                11.9216
 IR Inten    --     11.8161               464.5947                 0.1001

                     43                     44                     45
                      A                      A                      A
 Frequencies --   1611.5000              1632.2214              3138.8541
 Red. masses --      8.7197                 6.0590                 1.0850
 Frc consts  --     13.3418                 9.5106                 6.2985
 IR Inten    --     46.2632                 8.5144                14.0829

                     46                     47                     48
                      A                      A                      A
 Frequencies --   3157.6163              3186.1911              3188.5467
 Red. masses --      1.0916                 1.0914                 1.0930
 Frc consts  --      6.4126                 6.5281                 6.5471
 IR Inten    --     47.0620                 6.8313                26.0031

 - Thermochemistry -
 -------------------
 Temperature   298.150 Kelvin.  Pressure   1.00000 Atm.
 Atom     1 has atomic number  6 and mass  12.00000

 Molecular mass:   313.85780 amu.
 Principal axes and moments of inertia in atomic units:
                           1         2         3
     Eigenvalues --  3043.822005769.357498813.17945
           X            0.83559  -0.15056   0.52832
           Y           -0.28703   0.70035   0.65355
           Z           -0.46841  -0.69774   0.54199
 This molecule is an asymmetric top.
 Rotational symmetry number  1.
 Warning -- assumption of classical behavior for rotation
           may cause significant error
 Rotational temperatures (Kelvin)      0.02846     0.01501     0.00983
 Rotational constants (GHZ):           0.59292     0.31281     0.20478
 Zero-point vibrational energy     287958.0 (Joules/Mol)
                                   68.82360 (Kcal/Mol)
 Warning -- explicit consideration of  16 degrees of freedom as
           vibrations may cause significant error
 Vibrational temperatures:     79.47    82.69   191.82   195.36   239.41
          (Kelvin)            242.12   354.43   375.37   378.43   436.19
                              535.41   547.15   642.44   694.72   726.98
                              751.80   904.31   966.27   994.49  1004.22
                             1109.01  1124.15  1124.57  1177.27  1240.97
                             1264.78  1415.72  1420.19  1493.74  1577.17
                             1591.09  1649.77  1670.04  1737.79  1789.56
                             1914.37  1954.09  2058.35  2109.67  2147.64
                             2216.18  2239.59  2318.59  2348.40  4516.11
                             4543.11  4584.22  4587.61

 Zero-point correction=                           0.109677 (Hartree/Particle)
 Thermal correction to Energy=                    0.121396
 Thermal correction to Enthalpy=                  0.122340
 Thermal correction to Gibbs Free Energy=         0.068967
 Sum of electronic and zero-point Energies=          -5682.313555
 Sum of electronic and thermal Energies=             -5682.301836
 Sum of electronic and thermal Enthalpies=           -5682.300892
 Sum of electronic and thermal Free Energies=        -5682.354265

                     E (Thermal)             CV                S
                      KCal/Mol        Cal/Mol-Kelvin    Cal/Mol-Kelvin
 Total                   76.177             43.146            112.334
 Electronic               0.000              0.000              1.377
 Translational            0.889              2.981             43.127
 Rotational               0.889              2.981             33.403
 Vibrational             74.400             37.185             34.426
 Vibration     1          0.596              1.975              4.621
 Vibration     2          0.596              1.975              4.542
 Vibration     3          0.613              1.920              2.898
 Vibration     4          0.614              1.918              2.862
 Vibration     5          0.624              1.884              2.476
 Vibration     6          0.625              1.882              2.455
 Vibration     7          0.661              1.769              1.757
 Vibration     8          0.669              1.744              1.656
 Vibration     9          0.670              1.741              1.642
 Vibration    10          0.695              1.668              1.399
 Vibration    11          0.744              1.529              1.071
 Vibration    12          0.750              1.512              1.038
 Vibration    13          0.806              1.369              0.806
 Vibration    14          0.839              1.288              0.702
 Vibration    15          0.861              1.238              0.645
 Vibration    16          0.877              1.200              0.604

 Optimization completed.
    -- Stationary point found.
 Normal termination of Gaussian 16 at Sun Jan  7 20:45:58 2024.
