 Q-Chem 5.4, Q-Chem, Inc., Pleasanton, CA (2021)
 Q-Chem 5.4.0 for Intel X86 EM64T Linux

User input:
--------------------------------------------------------------
$molecule
-1 2
C                  5.9276950000     -5.2202570000      1.1065870000
C                  6.8254070000     -5.0812700000      0.0635210000
C                  6.6134990000     -4.0956730000     -0.9184650000
C                  4.7970500000     -4.3861620000      1.2032150000
C                  4.5842630000     -3.3963590000      0.2170660000
C                  5.5080100000     -3.2682360000     -0.8382370000
C                  3.8678800000     -4.5732960000      2.3348120000
C                  2.7351090000     -3.6689980000      2.3483590000
C                  2.5264430000     -2.6983640000      1.3813350000
C                  3.4200100000     -2.4899120000      0.2591850000
O                  4.0640940000     -5.4511990000      3.2016980000
O                  3.2400880000     -1.6179720000     -0.6172070000
H                  6.0635870000     -5.9695070000      1.8776670000
H                  5.3176100000     -2.5002380000     -1.5787260000
Br                 1.5285600000     -3.9151940000      3.8209310000
Br                 1.0132650000     -1.5182910000      1.4330180000
H                  7.6926600000     -5.7317430000      0.0022790000
H                  7.3171080000     -3.9850180000     -1.7380280000
$end
$rem
MAX_SCF_CYCLES=200
BASIS  =  6-311++G(d,p)
GUI  =  2
JOB_TYPE  =  SP
METHOD  =  B3LYP
SOLVENT_METHOD = PCM
$end
$pcm
theory = CPCM
$end
$solvent
dielectric 37.219
opticaldielectric 1.43
$end

--------------------------------------------------------------

             Standard Nuclear Orientation (Angstroms)
    I     Atom           X                Y                Z
 ----------------------------------------------------------------
    1      C       5.9276950000    -5.2202570000     1.1065870000
    2      C       6.8254070000    -5.0812700000     0.0635210000
    3      C       6.6134990000    -4.0956730000    -0.9184650000
    4      C       4.7970500000    -4.3861620000     1.2032150000
    5      C       4.5842630000    -3.3963590000     0.2170660000
    6      C       5.5080100000    -3.2682360000    -0.8382370000
    7      C       3.8678800000    -4.5732960000     2.3348120000
    8      C       2.7351090000    -3.6689980000     2.3483590000
    9      C       2.5264430000    -2.6983640000     1.3813350000
   10      C       3.4200100000    -2.4899120000     0.2591850000
   11      O       4.0640940000    -5.4511990000     3.2016980000
   12      O       3.2400880000    -1.6179720000    -0.6172070000
   13      H       6.0635870000    -5.9695070000     1.8776670000
   14      H       5.3176100000    -2.5002380000    -1.5787260000
   15      Br      1.5285600000    -3.9151940000     3.8209310000
   16      Br      1.0132650000    -1.5182910000     1.4330180000
   17      H       7.6926600000    -5.7317430000     0.0022790000
   18      H       7.3171080000    -3.9850180000    -1.7380280000
 ----------------------------------------------------------------

    8   -5682.4959564001      9.18e-06  Convergence criterion met
 Total energy in the final basis set =    -5682.4959564001

                    Orbital Energies (a.u.)
 --------------------------------------------------------------

 Alpha MOs
 -- Occupied --
********-482.8309 -62.4837 -62.4837 -56.3041 -56.3041 -56.3005 -56.3005
-56.3001 -56.3001 -19.0917 -19.0917 -10.2450 -10.2450 -10.2333 -10.2327
-10.1854 -10.1850 -10.1787 -10.1782 -10.1767 -10.1767  -8.6923  -8.6923
 -6.5236  -6.5236  -6.5113  -6.5113  -6.5102  -6.5102  -2.6345  -2.6345
 -2.6312  -2.6312  -2.6305  -2.6305  -2.6206  -2.6206  -2.6205  -2.6205
 -1.0230  -1.0205  -0.8723  -0.8519  -0.7952  -0.7833  -0.7585  -0.7258
 -0.6816  -0.6203  -0.6110  -0.5697  -0.5281  -0.5014  -0.4764  -0.4570
 -0.4386  -0.4320  -0.4297  -0.4284  -0.3995  -0.3995  -0.3977  -0.3697
 -0.3610  -0.3477  -0.3373  -0.3075  -0.3065  -0.2805  -0.2765  -0.2633
 -0.2627  -0.2516  -0.2500  -0.1677

 Beta MOs
 -- Occupied --
********-482.8309 -62.4837 -62.4837 -56.3042 -56.3041 -56.3004 -56.3004
-56.3001 -56.3000 -19.0861 -19.0861 -10.2434 -10.2434 -10.2312 -10.2307
-10.1852 -10.1847 -10.1784 -10.1779 -10.1766 -10.1766  -8.6923  -8.6922
 -6.5236  -6.5236  -6.5111  -6.5111  -6.5102  -6.5102  -2.6345  -2.6345
 -2.6311  -2.6311  -2.6305  -2.6305  -2.6205  -2.6205  -2.6204  -2.6204
 -1.0132  -1.0104  -0.8691  -0.8492  -0.7933  -0.7810  -0.7568  -0.7238
 -0.6730  -0.6187  -0.6076  -0.5669  -0.5259  -0.4989  -0.4736  -0.4558
 -0.4309  -0.4261  -0.4244  -0.4232  -0.3975  -0.3973  -0.3735  -0.3652
 -0.3598  -0.3469  -0.3233  -0.3071  -0.3028  -0.2796  -0.2590  -0.2574
 -0.2572  -0.2469  -0.2426

          Ground-State Mulliken Net Atomic Charges

     Atom                 Charge (a.u.)    Spin (a.u.)
  --------------------------------------------------------
      1 C                     0.129641       0.029215
      2 C                    -0.404369       0.018384
      3 C                    -0.403097       0.018367
      4 C                     0.527082       0.008460
      5 C                     0.527130       0.008456
      6 C                     0.129362       0.029235
      7 C                    -1.143161       0.089147
      8 C                     0.579111       0.132717
      9 C                     0.570577       0.132795
     10 C                    -1.137898       0.089115
     11 O                    -0.399111       0.215573
     12 O                    -0.399259       0.215623
     13 H                     0.174773      -0.002556
     14 H                     0.175159      -0.002555
     15 Br                   -0.173501       0.010611
     16 Br                   -0.172934       0.010634
     17 H                     0.210217      -0.001610
     18 H                     0.210278      -0.001610
  --------------------------------------------------------
  Sum of atomic charges =    -1.000000

                    Cartesian Multipole Moments
 -----------------------------------------------------------------
    Charge (ESU x 10^10)
                -4.8032
    Dipole Moment (Debye)
         X     -13.6768      Y      15.6517      Z      -8.3748
       Tot      22.4091
    Quadrupole Moments (Debye-Ang)
        XX    -145.4043     XY      46.5185     YY    -177.5278
        XZ     -30.0707     YZ      44.7859     ZZ    -140.0631

 Total job time:  35.26s(wall), 237.56s(cpu)
        *  Thank you very much for using Q-Chem.  Have a nice day.  *
