 Gaussian 16, Revision A.03,
 Gaussian 16:  ES64L-G16RevA.03 25-Dec-2016

 ----------------------------------------------
 #P UB3LYP/6-311++G(d,p) nosym opt freq SCF=YQC
 ----------------------------------------------

 -------
 Reduced
 -------
 Symbolic Z-matrix:
 Charge = -2 Multiplicity = 1

 SCF Done:  E(UB3LYP) =  -783.544151168     a.u. after    9 cycles
 SCF Done:  E(UB3LYP) =  -783.551761196     A.U. after   33 cycles
 SCF Done:  E(UB3LYP) =  -783.552350058     a.u. after    7 cycles
 SCF Done:  E(UB3LYP) =  -783.584411826     a.u. after   41 cycles
 SCF Done:  E(UB3LYP) =  -783.585327688     A.U. after   33 cycles
 SCF Done:  E(UB3LYP) =  -783.585360536     a.u. after    5 cycles
 SCF Done:  E(UB3LYP) =  -783.600381193     a.u. after   39 cycles
 SCF Done:  E(UB3LYP) =  -783.600980104     A.U. after   29 cycles
 SCF Done:  E(UB3LYP) =  -783.613634218     a.u. after   36 cycles
 SCF Done:  E(UB3LYP) =  -783.613825761     A.U. after   28 cycles
 SCF Done:  E(UB3LYP) =  -783.634646570     a.u. after    5 cycles
 SCF Done:  E(UB3LYP) =  -783.634701037     A.U. after   25 cycles
 SCF Done:  E(UB3LYP) =  -783.634687392     a.u. after    1 cycles
 SCF Done:  E(UB3LYP) =  -783.634704777     A.U. after   25 cycles
 SCF Done:  E(UB3LYP) =  -783.634643928     a.u. after    1 cycles
 SCF Done:  E(UB3LYP) =  -783.634706052     A.U. after   27 cycles
 SCF Done:  E(UB3LYP) =  -783.634698840     a.u. after    1 cycles
 SCF Done:  E(UB3LYP) =  -783.634706354     A.U. after   25 cycles
 Optimization completed.
    -- Stationary point found.
 Normal termination of Gaussian 16 at Thu Dec 21 15:29:47 2023.

 ----------------------------------------------------------------------
 #P Geom=AllCheck Guess=TCheck SCRF=Check GenChk UB3LYP/6-311++G(d,p) F
 req
 ----------------------------------------------------------------------

 Structure from the checkpoint file:  "154-an.chk"
 -------
 Reduced
 -------
 Charge = -2 Multiplicity = 1

                          Input orientation:
 ---------------------------------------------------------------------
 Center     Atomic      Atomic             Coordinates (Angstroms)
 Number     Number       Type             X           Y           Z
 ---------------------------------------------------------------------
      1          6           0       -4.390704   -0.334542    0.225564
      2          6           0       -2.911963   -0.618372    0.270914
      3          6           0       -2.433925   -1.946135    0.417993
      4          6           0       -1.085949   -2.218341    0.458729
      5          6           0       -0.118201   -1.188122    0.346871
      6          6           0        1.283664   -1.562588    0.403731
      7          8           0        1.667953   -2.772738    0.579282
      8          6           0        2.217304   -0.469728    0.241627
      9          6           0        3.610490   -0.727513    0.279512
     10          6           0        4.548829    0.272272    0.123928
     11          6           0        4.115660    1.613213   -0.082575
     12          6           0        2.766429    1.896356   -0.127435
     13          6           0        1.776266    0.890632    0.029423
     14          6           0        0.382358    1.257519   -0.025598
     15          8           0        0.034253    2.493933   -0.245452
     16          6           0       -0.563761    0.179503    0.165865
     17          6           0       -1.989309    0.424139    0.148423
     18          7           0       -2.448013    1.741915    0.047157
     19          1           0       -4.714549    0.136977   -0.723696
     20          1           0       -4.710472    0.347762    1.023497
     21          1           0       -4.971888   -1.258192    0.318013
     22          1           0       -3.158633   -2.753014    0.520070
     23          1           0       -0.710857   -3.227653    0.586125
     24          1           0        3.904653   -1.760762    0.437056
     25          1           0        5.611961    0.040108    0.157743
     26          1           0        4.847273    2.410316   -0.204560
     27          1           0        2.406949    2.908216   -0.284461
     28          1           0       -3.305726    1.856178   -0.477668
     29          1           0       -1.660091    2.368661   -0.198650
 ---------------------------------------------------------------------

 SCF Done:  E(UB3LYP) =  -783.634706354     a.u. after    1 cycles
 SCF Done:  E(UB3LYP) =  -783.634706354     A.U. after    4 cycles

 Alpha  occ. eigenvalues --  -18.79779 -18.78889 -14.06235  -9.96529  -9.95697
 Alpha  occ. eigenvalues --   -9.95289  -9.94763  -9.93624  -9.93555  -9.92780
 Alpha  occ. eigenvalues --   -9.92770  -9.92768  -9.92666  -9.91640  -9.91260
 Alpha  occ. eigenvalues --   -9.91167  -9.91085  -9.90860  -0.71571  -0.70607
 Alpha  occ. eigenvalues --   -0.66488  -0.60433  -0.58692  -0.54244  -0.51181
 Alpha  occ. eigenvalues --   -0.50261  -0.47875  -0.45410  -0.40780  -0.38240
 Alpha  occ. eigenvalues --   -0.36660  -0.33263  -0.30592  -0.29821  -0.27090
 Alpha  occ. eigenvalues --   -0.25539  -0.22796  -0.21513  -0.21208  -0.20439
 Alpha  occ. eigenvalues --   -0.19380  -0.19070  -0.17856  -0.17795  -0.15284
 Alpha  occ. eigenvalues --   -0.14700  -0.14083  -0.13366  -0.12746  -0.12100
 Alpha  occ. eigenvalues --   -0.10435  -0.09710  -0.09459  -0.08152  -0.07611
 Alpha  occ. eigenvalues --   -0.05593  -0.00702   0.00406   0.01091   0.02319
 Alpha  occ. eigenvalues --    0.03489   0.03972   0.12697
 Alpha virt. eigenvalues --    0.14244   0.15717   0.16822   0.17489   0.18605
 Alpha virt. eigenvalues --    0.19074   0.20095   0.20112   0.20602   0.21918
 Alpha virt. eigenvalues --    0.22416   0.22445   0.23734   0.24729   0.24931

  Beta  occ. eigenvalues --  -18.79779 -18.78889 -14.06235  -9.96529  -9.95697
  Beta  occ. eigenvalues --   -9.95289  -9.94763  -9.93624  -9.93555  -9.92780
  Beta  occ. eigenvalues --   -9.92770  -9.92768  -9.92666  -9.91640  -9.91260
  Beta  occ. eigenvalues --   -9.91167  -9.91085  -9.90860  -0.71571  -0.70607
  Beta  occ. eigenvalues --   -0.66488  -0.60433  -0.58692  -0.54244  -0.51181
  Beta  occ. eigenvalues --   -0.50261  -0.47875  -0.45410  -0.40780  -0.38240
  Beta  occ. eigenvalues --   -0.36660  -0.33263  -0.30592  -0.29821  -0.27090
  Beta  occ. eigenvalues --   -0.25539  -0.22796  -0.21513  -0.21208  -0.20439
  Beta  occ. eigenvalues --   -0.19380  -0.19070  -0.17856  -0.17795  -0.15284
  Beta  occ. eigenvalues --   -0.14700  -0.14083  -0.13366  -0.12746  -0.12100
  Beta  occ. eigenvalues --   -0.10435  -0.09710  -0.09459  -0.08152  -0.07611
  Beta  occ. eigenvalues --   -0.05593  -0.00702   0.00406   0.01091   0.02319
  Beta  occ. eigenvalues --    0.03489   0.03972   0.12697
  Beta virt. eigenvalues --    0.14244   0.15717   0.16822   0.17489   0.18605
  Beta virt. eigenvalues --    0.19074   0.20095   0.20112   0.20602   0.21918
  Beta virt. eigenvalues --    0.22416   0.22445   0.23734   0.24729   0.24931

 Mulliken charges and spin densities:
               1          2
     1  C    1.530963  -0.000000
     2  C   -1.103052   0.000000
     3  C   -0.258447  -0.000000
     4  C    0.126320  -0.000000
     5  C    0.599639  -0.000000
     6  C   -0.886938  -0.000000
     7  O   -0.482001  -0.000000
     8  C    0.231551  -0.000000
     9  C    0.005269  -0.000000
    10  C   -0.422340  -0.000000
    11  C   -0.529877  -0.000000
    12  C    0.074700  -0.000000
    13  C    0.305847  -0.000000
    14  C   -0.633709  -0.000000
    15  O   -0.488341  -0.000000
    16  C    0.074569   0.000000
    17  C   -0.058583   0.000000
    18  N   -0.417593   0.000000
    19  H   -0.294624   0.000000
    20  H    0.085913   0.000000
    21  H   -0.536609   0.000000
    22  H    0.053311  -0.000000
    23  H    0.130012   0.000000
    24  H    0.127991  -0.000000
    25  H    0.076437   0.000000
    26  H    0.076187  -0.000000
    27  H    0.130461   0.000000
    28  H    0.181379   0.000000
    29  H    0.301564   0.000000
 Sum of Mulliken charges =  -2.00000   0.00000

 Dipole moment (field-independent basis, Debye):
    X=             -0.3198    Y=              2.2990    Z=             -1.4681  Tot=              2.7464
 Quadrupole moment (field-independent basis, Debye-Ang):
   XX=           -208.4628   YY=           -164.3330   ZZ=           -124.7367
   XY=             -0.6002   XZ=             -4.2217   YZ=              4.2478

  Exact polarizability:2288.593 249.440 570.764 106.219 -88.527 271.863
 Approx polarizability:5502.276 426.297 694.356 495.668 -42.004 341.748

                      1                      2                      3
                      A                      A                      A
 Frequencies --     50.7813                85.3440               126.3329
 Red. masses --      5.5765                 4.3039                 4.1991
 Frc consts  --      0.0085                 0.0185                 0.0395
 IR Inten    --      1.2017                 0.2241                 9.3210

                      4                      5                      6
                      A                      A                      A
 Frequencies --    135.2618               184.3270               202.2180
 Red. masses --      4.4725                 6.3907                 3.1644
 Frc consts  --      0.0482                 0.1279                 0.0762
 IR Inten    --      0.1147                 1.4905                22.7859

                      7                      8                      9
                      A                      A                      A
 Frequencies --    212.2771               260.2387               280.4170
 Red. masses --      1.2573                 3.6799                 4.3300
 Frc consts  --      0.0334                 0.1468                 0.2006
 IR Inten    --     80.0724                29.4335                40.3052

                     10                     11                     12
                      A                      A                      A
 Frequencies --    293.1372               332.0562               343.3936
 Red. masses --      4.1246                 6.3433                 4.2068
 Frc consts  --      0.2088                 0.4121                 0.2923
 IR Inten    --      2.1705               135.3606                12.2388

                     13                     14                     15
                      A                      A                      A
 Frequencies --    379.3550               403.5550               409.1859
 Red. masses --      4.7427                 7.3697                 5.6555
 Frc consts  --      0.4021                 0.7071                 0.5579
 IR Inten    --     89.7302                 1.4119                 8.7340

                     16                     17                     18
                      A                      A                      A
 Frequencies --    433.7944               449.9487               477.0341
 Red. masses --      1.8200                 2.7094                 3.9436
 Frc consts  --      0.2018                 0.3232                 0.5287
 IR Inten    --    142.7852                31.7244                90.7255

                     19                     20                     21
                      A                      A                      A
 Frequencies --    481.9393               507.8957               562.0652
 Red. masses --      6.4907                 4.1585                 5.6719
 Frc consts  --      0.8882                 0.6320                 1.0557
 IR Inten    --    723.1785                33.8110                68.5729

                     22                     23                     24
                      A                      A                      A
 Frequencies --    577.0917               595.5968               647.4435
 Red. masses --      4.3802                 4.7117                 4.8874
 Frc consts  --      0.8595                 0.9848                 1.2071
 IR Inten    --     51.3100                 9.6576                 8.9415

                     25                     26                     27
                      A                      A                      A
 Frequencies --    657.8465               684.2672               689.3325
 Red. masses --      6.3060                 5.3757                 1.8240
 Frc consts  --      1.6079                 1.4830                 0.5107
 IR Inten    --     24.5310                28.5149                72.8451

                     28                     29                     30
                      A                      A                      A
 Frequencies --    732.3384               746.2367               750.8440
 Red. masses --      2.8527                 1.8193                 5.1750
 Frc consts  --      0.9014                 0.5969                 1.7189
 IR Inten    --     10.0703                14.5643                 8.7396

                     31                     32                     33
                      A                      A                      A
 Frequencies --    774.7195               790.5592               812.5937
 Red. masses --      2.4301                 1.6264                 4.8979
 Frc consts  --      0.8593                 0.5989                 1.9055
 IR Inten    --     26.8452                21.6444                28.4341

                     34                     35                     36
                      A                      A                      A
 Frequencies --    832.1174               884.0859               899.5835
 Red. masses --      4.3923                 1.5235                 4.7663
 Frc consts  --      1.7919                 0.7016                 2.2725
 IR Inten    --      3.7137                50.8067                 0.9217

                     37                     38                     39
                      A                      A                      A
 Frequencies --    936.2818               955.8986               958.4551
 Red. masses --      1.2842                 1.2408                 1.9862
 Frc consts  --      0.6633                 0.6680                 1.0750
 IR Inten    --      3.4949                 0.4899               202.8505

                     40                     41                     42
                      A                      A                      A
 Frequencies --    960.8264              1001.9499              1017.4960
 Red. masses --      1.3740                 3.0438                 2.0216
 Frc consts  --      0.7474                 1.8004                 1.2331
 IR Inten    --      3.7880                59.4211               638.1297

                     43                     44                     45
                      A                      A                      A
 Frequencies --   1043.2755              1046.9479              1097.3795
 Red. masses --      2.1803                 1.6293                 1.9878
 Frc consts  --      1.3982                 1.0522                 1.4104
 IR Inten    --    444.1276                95.3092                30.4120

                     46                     47                     48
                      A                      A                      A
 Frequencies --   1125.1273              1153.8222              1171.3406
 Red. masses --      1.3852                 1.4383                 2.5080
 Frc consts  --      1.0331                 1.1282                 2.0274
 IR Inten    --    227.0830                39.4202               648.7392

                     49                     50                     51
                      A                      A                      A
 Frequencies --   1195.0547              1218.3979              1226.7714
 Red. masses --      1.8883                 2.8761                 2.8640
 Frc consts  --      1.5889                 2.5155                 2.5395
 IR Inten    --     98.6370                 8.8107               533.7995

                     52                     53                     54
                      A                      A                      A
 Frequencies --   1250.2000              1266.5157              1321.5042
 Red. masses --      2.3755                 3.1275                 4.5487
 Frc consts  --      2.1876                 2.9558                 4.6804
 IR Inten    --    288.1538               883.1046              1554.3585

                     55                     56                     57
                      A                      A                      A
 Frequencies --   1350.2410              1354.7462              1374.1978
 Red. masses --      3.5128                 3.2171                 2.7403
 Frc consts  --      3.7733                 3.4788                 3.0489
 IR Inten    --    141.8094                21.9940               377.5424

                     58                     59                     60
                      A                      A                      A
 Frequencies --   1395.7326              1433.1591              1443.9318
 Red. masses --      1.4623                 3.7849                 4.7153
 Frc consts  --      1.6784                 4.5803                 5.7923
 IR Inten    --    497.8753               386.3023              1734.6890

                     61                     62                     63
                      A                      A                      A
 Frequencies --   1463.4223              1476.6086              1484.3367
 Red. masses --      2.6233                 1.0558                 3.7881
 Frc consts  --      3.3101                 1.3563                 4.9174
 IR Inten    --    261.5907               145.8052               925.4980

                     64                     65                     66
                      A                      A                      A
 Frequencies --   1487.2669              1491.0244              1528.7307
 Red. masses --      2.6025                 1.4768                 4.1991
 Frc consts  --      3.3917                 1.9344                 5.7818
 IR Inten    --    402.8725               316.2451               103.6658

                     67                     68                     69
                      A                      A                      A
 Frequencies --   1559.6324              1585.2111              1589.2468
 Red. masses --      5.4967                 5.3200                 2.5961
 Frc consts  --      7.8777                 7.8765                 3.8632
 IR Inten    --   3359.4098                90.1257               281.3233

                     70                     71                     72
                      A                      A                      A
 Frequencies --   1617.0664              2873.0699              2991.6190
 Red. masses --      1.7697                 1.0678                 1.0676
 Frc consts  --      2.7265                 5.1932                 5.6293
 IR Inten    --     29.3523               118.3616               648.4259

                     73                     74                     75
                      A                      A                      A
 Frequencies --   3049.6591              3091.7454              3097.9507
 Red. masses --      1.0959                 1.0826                 1.0867
 Frc consts  --      6.0052                 6.0971                 6.1446
 IR Inten    --      1.2880                38.7326               246.1192

                     76                     77                     78
                      A                      A                      A
 Frequencies --   3115.3749              3118.8355              3157.7903
 Red. masses --      1.0906                 1.0730                 1.0907
 Frc consts  --      6.2363                 6.1493                 6.4078
 IR Inten    --    376.3241               497.6185               105.4539

                     79                     80                     81
                      A                      A                      A
 Frequencies --   3164.0019              3171.7523              3556.1175
 Red. masses --      1.0909                 1.0905                 1.0800
 Frc consts  --      6.4343                 6.4634                 8.0467
 IR Inten    --    153.7967                37.2978               237.8346

 - Thermochemistry -
 -------------------
 Temperature   298.150 Kelvin.  Pressure   1.00000 Atm.
 Atom     1 has atomic number  6 and mass  12.00000

 Molecular mass:   237.07898 amu.
 Principal axes and moments of inertia in atomic units:
                           1         2         3
     Eigenvalues --  2081.226185646.399487713.07898
           X            0.99275  -0.12016   0.00349
           Y            0.11845   0.98272   0.14224
           Z           -0.02052  -0.14079   0.98983
 This molecule is an asymmetric top.
 Rotational symmetry number  1.
 Warning -- assumption of classical behavior for rotation
           may cause significant error
 Rotational temperatures (Kelvin)      0.04162     0.01534     0.01123
 Rotational constants (GHZ):           0.86715     0.31963     0.23398
 Zero-point vibrational energy     572143.5 (Joules/Mol)
                                  136.74559 (Kcal/Mol)
 Warning -- explicit consideration of  23 degrees of freedom as
           vibrations may cause significant error
 Vibrational temperatures:     73.06   122.79   181.76   194.61   265.21
          (Kelvin)            290.95   305.42   374.43   403.46   421.76
                              477.75   494.07   545.81   580.63   588.73
                              624.13   647.38   686.35   693.40   730.75
                              808.69   830.31   856.93   931.53   946.49
                              984.51   991.80  1053.67  1073.67  1080.30
                             1114.65  1137.44  1169.14  1197.23  1272.00
                             1294.30  1347.10  1375.32  1379.00  1382.41
                             1441.58  1463.95  1501.04  1506.32  1578.88
                             1618.81  1660.09  1685.30  1719.42  1753.00
                             1765.05  1798.76  1822.23  1901.35  1942.70
                             1949.18  1977.16  2008.15  2062.00  2077.50
                             2105.54  2124.51  2135.63  2139.85  2145.25
                             2199.50  2243.96  2280.77  2286.57  2326.60
                             4133.71  4304.27  4387.78  4448.33  4457.26
                             4482.33  4487.31  4543.36  4552.29  4563.44
                             5116.46

 Zero-point correction=                           0.217918 (Hartree/Particle)
 Thermal correction to Energy=                    0.231964
 Thermal correction to Enthalpy=                  0.232908
 Thermal correction to Gibbs Free Energy=         0.177844
 Sum of electronic and zero-point Energies=           -783.416788
 Sum of electronic and thermal Energies=              -783.402743
 Sum of electronic and thermal Enthalpies=            -783.401799
 Sum of electronic and thermal Free Energies=         -783.456863

                     E (Thermal)             CV                S
                      KCal/Mol        Cal/Mol-Kelvin    Cal/Mol-Kelvin
 Total                  145.559             57.801            115.892
 Electronic               0.000              0.000              0.000
 Translational            0.889              2.981             42.291
 Rotational               0.889              2.981             32.872
 Vibrational            143.782             51.840             40.729
 Vibration     1          0.595              1.977              4.787
 Vibration     2          0.601              1.959              3.764
 Vibration     3          0.611              1.927              3.001
 Vibration     4          0.613              1.918              2.870
 Vibration     5          0.631              1.861              2.284
 Vibration     6          0.639              1.837              2.113
 Vibration     7          0.643              1.822              2.024
 Vibration     8          0.668              1.745              1.660
 Vibration     9          0.680              1.710              1.531
 Vibration    10          0.688              1.687              1.456
 Vibration    11          0.714              1.611              1.250
 Vibration    12          0.722              1.589              1.196
 Vibration    13          0.749              1.514              1.042
 Vibration    14          0.769              1.462              0.950
 Vibration    15          0.774              1.450              0.929
 Vibration    16          0.795              1.397              0.846
 Vibration    17          0.809              1.361              0.796
 Vibration    18          0.834              1.301              0.718
 Vibration    19          0.838              1.290              0.705
 Vibration    20          0.863              1.233              0.639
 Vibration    21          0.918              1.113              0.520
 Vibration    22          0.934              1.081              0.491
 Vibration    23          0.953              1.041              0.457

 Optimization completed.
    -- Stationary point found.
 Normal termination of Gaussian 16 at Thu Dec 21 16:03:57 2023.
