 Gaussian 16, Revision A.03,
 Gaussian 16:  ES64L-G16RevA.03 25-Dec-2016

 ----------------------------------------------------------------
 #P UB3LYP/6-311++G(d,p) SCRF=(PCM,Solvent=n,n-DiMethylFormamide)
 ----------------------------------------------------------------

 -------
 Reduced
 -------
 Symbolic Z-matrix:
 Charge = -2 Multiplicity = 1

                         Standard orientation:
 ---------------------------------------------------------------------
 Center     Atomic      Atomic             Coordinates (Angstroms)
 Number     Number       Type             X           Y           Z
 ---------------------------------------------------------------------
      1          7           0       -2.225747    2.841745   -0.106705
      2          6           0       -2.179705    1.422988   -0.020079
      3          6           0       -3.357797    0.708712    0.054620
      4          6           0       -3.357797   -0.708806    0.054896
      5          6           0       -2.179658   -1.423058   -0.019662
      6          7           0       -2.225531   -2.841742   -0.105717
      7          6           0       -0.906420   -0.734049   -0.049773
      8          6           0        0.327171   -1.489283   -0.018781
      9          8           0        0.380744   -2.795387    0.020518
     10          6           0        1.541440   -0.721968   -0.013880
     11          6           0        2.793831   -1.393033    0.007025
     12          6           0        3.992954   -0.713102    0.023319
     13          6           0        3.992958    0.713127    0.023674
     14          6           0        2.793863    1.393095    0.007631
     15          6           0        1.541435    0.722035   -0.013618
     16          6           0        0.327170    1.489302   -0.018410
     17          8           0        0.380676    2.795392    0.021193
     18          6           0       -0.906422    0.734046   -0.049763
     19          1           0       -1.256392    3.195459    0.006995
     20          1           0       -2.869277    3.231522    0.571554
     21          1           0       -4.302534    1.251218    0.050454
     22          1           0       -4.302511   -1.251354    0.051197
     23          1           0       -2.869451   -3.231526    0.572137
     24          1           0       -1.256177   -3.195480    0.007776
     25          1           0        2.757900   -2.477771    0.009013
     26          1           0        4.934943   -1.259692    0.035103
     27          1           0        4.934957    1.259701    0.035709
     28          1           0        2.757981    2.477833    0.010133
 ---------------------------------------------------------------------

 SCF Done:  E(UB3LYP) =  -799.942508024     A.U. after   17 cycles

 The electronic state is 1-A.
 Alpha  occ. eigenvalues --  -19.02404 -19.02403 -14.26897 -14.26896 -10.17765
 Alpha  occ. eigenvalues --  -10.17763 -10.17478 -10.17475 -10.14970 -10.14928
 Alpha  occ. eigenvalues --  -10.14581 -10.14580 -10.14299 -10.14266 -10.13573
 Alpha  occ. eigenvalues --  -10.13535 -10.13321 -10.13275  -0.94324  -0.93954
 Alpha  occ. eigenvalues --   -0.87472  -0.86520  -0.82487  -0.78707  -0.74756
 Alpha  occ. eigenvalues --   -0.72301  -0.70406  -0.68231  -0.63439  -0.60342
 Alpha  occ. eigenvalues --   -0.59463  -0.54803  -0.52516  -0.51480  -0.49563
 Alpha  occ. eigenvalues --   -0.47489  -0.44946  -0.44204  -0.43952  -0.42972
 Alpha  occ. eigenvalues --   -0.41347  -0.40565  -0.39675  -0.38318  -0.37647
 Alpha  occ. eigenvalues --   -0.36361  -0.35401  -0.35245  -0.34874  -0.33464
 Alpha  occ. eigenvalues --   -0.33359  -0.31697  -0.30661  -0.30189  -0.29888
 Alpha  occ. eigenvalues --   -0.24575  -0.22932  -0.22394  -0.21441  -0.20366
 Alpha  occ. eigenvalues --   -0.20031  -0.17027  -0.10486
 Alpha virt. eigenvalues --   -0.01983   0.00106   0.00184   0.00765   0.01195
 Alpha virt. eigenvalues --    0.02371   0.02417   0.02783   0.04207   0.04512
 Alpha virt. eigenvalues --    0.04844   0.05354   0.05823   0.06307   0.06913

  Beta  occ. eigenvalues --  -19.02404 -19.02403 -14.26897 -14.26896 -10.17765
  Beta  occ. eigenvalues --  -10.17763 -10.17478 -10.17475 -10.14970 -10.14928
  Beta  occ. eigenvalues --  -10.14581 -10.14580 -10.14299 -10.14266 -10.13573
  Beta  occ. eigenvalues --  -10.13535 -10.13321 -10.13275  -0.94324  -0.93954
  Beta  occ. eigenvalues --   -0.87472  -0.86520  -0.82487  -0.78707  -0.74756
  Beta  occ. eigenvalues --   -0.72301  -0.70406  -0.68231  -0.63439  -0.60342
  Beta  occ. eigenvalues --   -0.59463  -0.54803  -0.52516  -0.51480  -0.49563
  Beta  occ. eigenvalues --   -0.47489  -0.44946  -0.44204  -0.43952  -0.42972
  Beta  occ. eigenvalues --   -0.41347  -0.40565  -0.39675  -0.38318  -0.37647
  Beta  occ. eigenvalues --   -0.36361  -0.35401  -0.35245  -0.34874  -0.33464
  Beta  occ. eigenvalues --   -0.33359  -0.31697  -0.30661  -0.30189  -0.29888
  Beta  occ. eigenvalues --   -0.24575  -0.22932  -0.22394  -0.21441  -0.20366
  Beta  occ. eigenvalues --   -0.20031  -0.17027  -0.10486
  Beta virt. eigenvalues --   -0.01983   0.00106   0.00184   0.00765   0.01195
  Beta virt. eigenvalues --    0.02371   0.02417   0.02783   0.04207   0.04512
  Beta virt. eigenvalues --    0.04844   0.05354   0.05823   0.06307   0.06913

 Mulliken charges and spin densities:
               1          2
     1  N   -0.493601   0.000000
     2  C   -0.204577  -0.000000
     3  C   -0.367822  -0.000000
     4  C   -0.367398  -0.000000
     5  C   -0.204094   0.000000
     6  N   -0.493597   0.000000
     7  C    0.522033   0.000000
     8  C   -0.327851   0.000000
     9  O   -0.626549   0.000000
    10  C    0.005648  -0.000000
    11  C    0.029216   0.000000
    12  C   -0.533097  -0.000000
    13  C   -0.533003  -0.000000
    14  C    0.029069   0.000000
    15  C    0.005985  -0.000000
    16  C   -0.328041   0.000000
    17  O   -0.626597   0.000000
    18  C    0.522644   0.000000
    19  H    0.308145  -0.000000
    20  H    0.239323   0.000000
    21  H    0.145386  -0.000000
    22  H    0.145344   0.000000
    23  H    0.239335   0.000000
    24  H    0.308195  -0.000000
    25  H    0.146545  -0.000000
    26  H    0.156409  -0.000000
    27  H    0.156410   0.000000
    28  H    0.146537  -0.000000
 Sum of Mulliken charges =  -2.00000  -0.00000

 Dipole moment (field-independent basis, Debye):
    X=             -0.8245    Y=             -0.0026    Z=              2.7365  Tot=              2.8580
 Quadrupole moment (field-independent basis, Debye-Ang):
   XX=           -137.9234   YY=           -165.6712   ZZ=           -119.4895
   XY=              0.0077   XZ=             -7.9869   YZ=             -0.0023

 Normal termination of Gaussian 16 at Sun Jan 14 01:31:13 2024.
