 Q-Chem 5.4, Q-Chem, Inc., Pleasanton, CA (2021)
 Q-Chem 5.4.0 for Intel X86 EM64T Linux

User input:
--------------------------------------------------------------
$molecule
0 1
N                 -5.0250590000     -0.7520730000     -0.4412640000
C                 -3.7586360000     -0.2476110000     -0.2150650000
C                 -3.5837480000      0.9814920000      0.4526980000
C                 -2.3144780000      1.4609690000      0.7170640000
C                 -1.1747150000      0.7411040000      0.3327230000
C                  0.1667930000      1.2824980000      0.6303470000
O                  0.3227560000      2.3528930000      1.2033820000
C                  1.3458920000      0.4627890000      0.1995680000
C                  2.6207720000      0.9433620000      0.4723680000
C                  3.7582970000      0.2192490000      0.0869390000
N                  5.0243300000      0.6767810000      0.3996020000
C                  3.5834550000     -1.0092100000     -0.5819670000
C                  2.3142280000     -1.4852150000     -0.8527650000
C                  1.1744840000     -0.7646710000     -0.4696590000
C                 -0.1669980000     -1.3020730000     -0.7746230000
O                 -0.3228510000     -2.3651070000     -1.3612160000
C                 -1.3461620000     -0.4877450000     -0.3339650000
C                 -2.6210630000     -0.9713430000     -0.6011710000
H                 -5.8005240000     -0.1092970000     -0.4087270000
H                 -5.1206160000     -1.4861700000     -1.1252160000
H                 -4.4548070000      1.5500740000      0.7623170000
H                 -2.1767810000      2.4058980000      1.2285520000
H                  2.7130770000      1.8908660000      0.9913330000
H                  5.8023780000      0.2960110000     -0.1154810000
H                  5.1223660000      1.6500710000      0.6425080000
H                  4.4544700000     -1.5832520000     -0.8814630000
H                  2.1765360000     -2.4281070000     -1.3680040000
H                 -2.7133970000     -1.9221840000     -1.1140040000
$end
$rem
MAX_SCF_CYCLES=200
BASIS  =  6-311++G(d,p)
GUI  =  2
JOB_TYPE  =  SP
METHOD  =  B3LYP
SOLVENT_METHOD = COSMO
$end
$solvent
dielectric 37.219
opticaldielectric 1.43
$end

--------------------------------------------------------------

             Standard Nuclear Orientation (Angstroms)
    I     Atom           X                Y                Z
 ----------------------------------------------------------------
    1      N       5.0524853903    -0.6375629381    -0.0547064848
    2      C       3.7663496349    -0.1346462846    -0.0056680265
    3      C       3.5386095026     1.2565120879    -0.0051821660
    4      C       2.2495135268     1.7555637591    -0.0015900995
    5      C       1.1414605972     0.8969594489    -0.0007763515
    6      C      -0.2224805392     1.4635079613     0.0035343785
    7      O      -0.4242725156     2.6708423589     0.0114511433
    8      C      -1.3657167339     0.4935876549    -0.0022488378
    9      C      -2.6606464636     0.9974086492    -0.0055143617
   10      C      -3.7663080357     0.1346394495    -0.0057836638
   11      N      -5.0526111034     0.6375540507    -0.0551249406
   12      C      -3.5386072283    -1.2564997011    -0.0049575086
   13      C      -2.2495122002    -1.7555685185    -0.0012402002
   14      C      -1.1414705659    -0.8969570635    -0.0006445340
   15      C       0.2224916289    -1.4634980411     0.0034000840
   16      O       0.4242609653    -2.6708320920     0.0109110628
   17      C       1.3657297132    -0.4935938682    -0.0020663113
   18      C       2.6606440452    -0.9974052732    -0.0051603136
   19      H       5.8069720697    -0.0281144772     0.2189502947
   20      H       5.1861856561    -1.6046585454     0.1956337020
   21      H       4.3845044637     1.9364542511    -0.0109758492
   22      H       2.0712298612     2.8240589581     0.0004586722
   23      H      -2.7938224772     2.0734477997    -0.0090654425
   24      H      -5.8065730880     0.0281849789     0.2203122394
   25      H      -5.1859412948     1.6044718834     0.1962726948
   26      H      -4.3845244908    -1.9364119060    -0.0106654457
   27      H      -2.0712093988    -2.8240622349     0.0009794033
   28      H       2.7938098007    -2.0734521943    -0.0085904697
 ----------------------------------------------------------------

    9    -799.7157146972      2.33e-06  Convergence criterion met
 Total energy in the final basis set =     -799.7157146972
    5    -799.7437419035      5.57e-06  Convergence criterion met
 Total energy in the final basis set =     -799.7437419035

                    Orbital Energies (a.u.)
 --------------------------------------------------------------

 Alpha MOs
 -- Occupied --
-19.1209 -19.1209 -14.3322 -14.3322 -10.2738 -10.2738 -10.2394 -10.2393
-10.2027 -10.2027 -10.1921 -10.1921 -10.1906 -10.1906 -10.1865 -10.1865
-10.1860 -10.1860  -1.0567  -1.0549  -0.9382  -0.9380  -0.8763  -0.8602
 -0.7922  -0.7730  -0.7658  -0.7472  -0.6812  -0.6626  -0.6356  -0.6202
 -0.5838  -0.5655  -0.5578  -0.5323  -0.5183  -0.5169  -0.4924  -0.4806
 -0.4649  -0.4548  -0.4491  -0.4459  -0.4421  -0.4347  -0.4333  -0.4160
 -0.4122  -0.4051  -0.3938  -0.3856  -0.3709  -0.3589  -0.3318  -0.3251
 -0.2814  -0.2792  -0.2730  -0.2691  -0.2345  -0.2237

          Ground-State Mulliken Net Atomic Charges

     Atom                 Charge (a.u.)
  ----------------------------------------
      1 N                    -0.362743
      2 C                    -0.529606
      3 C                    -0.095611
      4 C                     0.222355
      5 C                     0.190294
      6 C                    -0.762373
      7 O                    -0.329820
      8 C                     0.468309
      9 C                    -0.022197
     10 C                    -0.530511
     11 N                    -0.362224
     12 C                    -0.095525
     13 C                     0.222371
     14 C                     0.190698
     15 C                    -0.762253
     16 O                    -0.329792
     17 C                     0.467655
     18 C                    -0.022491
     19 H                     0.305008
     20 H                     0.303200
     21 H                     0.228663
     22 H                     0.198905
     23 H                     0.186079
     24 H                     0.304828
     25 H                     0.303054
     26 H                     0.228712
     27 H                     0.198919
     28 H                     0.186096
  ----------------------------------------
  Sum of atomic charges =     0.000000

                    Cartesian Multipole Moments
 -----------------------------------------------------------------
    Charge (ESU x 10^10)
                 0.0000
    Dipole Moment (Debye)
         X       0.0054      Y      -0.0013      Z       1.9677
       Tot       1.9677
    Quadrupole Moments (Debye-Ang)
        XX     -32.7377     XY       0.4400     YY    -116.0003
        XZ      -0.0218     YZ      -0.0027     ZZ    -109.1651

 Total job time:  72.93s(wall), 438.63s(cpu)
        *  Thank you very much for using Q-Chem.  Have a nice day.  *
