 Gaussian 16, Revision A.03,
 Gaussian 16:  ES64L-G16RevA.03 25-Dec-2016

 ----------------------------------------------------------------------
 #P UB3LYP/6-311++G(d,p) nosym opt freq SCRF=(PCM,Solvent=n,n-DiMethylF
 ormamide)
 ----------------------------------------------------------------------

 -------
 Radical
 -------
 Symbolic Z-matrix:
 Charge = -1 Multiplicity = 2

 SCF Done:  E(UB3LYP) =  -535.604360185     A.U. after   19 cycles
 SCF Done:  E(UB3LYP) =  -535.604597724     A.U. after   16 cycles
 SCF Done:  E(UB3LYP) =  -535.604989427     A.U. after   15 cycles
 SCF Done:  E(UB3LYP) =  -535.605063396     A.U. after   15 cycles
 SCF Done:  E(UB3LYP) =  -535.605106824     A.U. after   13 cycles
 SCF Done:  E(UB3LYP) =  -535.605121688     A.U. after   13 cycles
 SCF Done:  E(UB3LYP) =  -535.605131203     A.U. after   13 cycles
 SCF Done:  E(UB3LYP) =  -535.605139952     A.U. after   13 cycles
 SCF Done:  E(UB3LYP) =  -535.605143940     A.U. after   11 cycles
 SCF Done:  E(UB3LYP) =  -535.605151155     A.U. after   12 cycles
 SCF Done:  E(UB3LYP) =  -535.605154188     A.U. after   13 cycles
 SCF Done:  E(UB3LYP) =  -535.605155054     A.U. after   11 cycles
 SCF Done:  E(UB3LYP) =  -535.605155252     A.U. after   10 cycles
 SCF Done:  E(UB3LYP) =  -535.605155287     A.U. after    8 cycles
 SCF Done:  E(UB3LYP) =  -535.605155329     A.U. after    9 cycles
 Optimization completed.
    -- Stationary point found.
 Normal termination of Gaussian 16 at Sat Feb 10 11:30:52 2024.

 ----------------------------------------------------------------------
 #P Geom=AllCheck Guess=TCheck SCRF=Check GenChk UB3LYP/6-311++G(d,p) F
 req
 ----------------------------------------------------------------------

 Structure from the checkpoint file:  "083-rad.chk"
 -------
 Radical
 -------
 Charge = -1 Multiplicity = 2

                          Input orientation:
 ---------------------------------------------------------------------
 Center     Atomic      Atomic             Coordinates (Angstroms)
 Number     Number       Type             X           Y           Z
 ---------------------------------------------------------------------
      1          6           0        1.634697    0.969077   -0.601685
      2          6           0        0.348994    1.608431   -0.486174
      3          6           0       -0.776988    0.921838   -0.119235
      4          6           0       -0.751307   -0.491744    0.168105
      5          6           0        0.530394   -1.174996    0.033397
      6          6           0        1.651330   -0.467900   -0.340332
      7          8           0        2.689555    1.612564   -0.896928
      8          8           0       -1.800496   -1.120042    0.516652
      9          6           0        0.572336   -2.651392    0.321698
     10          8           0        2.872022   -1.116162   -0.397794
     11          6           0        3.415251   -1.275343   -1.716010
     12          1           0        0.312671    2.674898   -0.687950
     13          1           0       -1.733582    1.427637   -0.027864
     14          1           0        0.318948   -2.851801    1.368311
     15          1           0        1.559346   -3.064976    0.121178
     16          1           0       -0.168208   -3.184905   -0.281469
     17          1           0        4.387096   -1.754391   -1.594788
     18          1           0        3.539688   -0.307810   -2.205158
     19          1           0        2.766960   -1.919678   -2.320343
 ---------------------------------------------------------------------

 SCF Done:  E(UB3LYP) =  -535.605155329     A.U. after    1 cycles

 Alpha  occ. eigenvalues --  -19.13257 -19.07574 -19.07432 -10.21807 -10.21696
 Alpha  occ. eigenvalues --  -10.21357 -10.20744 -10.16864 -10.16102 -10.16013
 Alpha  occ. eigenvalues --  -10.15441  -1.04682  -0.99257  -0.99007  -0.82177
 Alpha  occ. eigenvalues --   -0.76309  -0.71308  -0.66755  -0.66336  -0.57840
 Alpha  occ. eigenvalues --   -0.56128  -0.49662  -0.48585  -0.45780  -0.45475
 Alpha  occ. eigenvalues --   -0.43186  -0.41648  -0.41546  -0.39955  -0.39404
 Alpha  occ. eigenvalues --   -0.38556  -0.36617  -0.36346  -0.36236  -0.34251
 Alpha  occ. eigenvalues --   -0.28353  -0.27736  -0.24156  -0.23752  -0.23572
 Alpha  occ. eigenvalues --   -0.16048
 Alpha virt. eigenvalues --   -0.00439   0.00002   0.01128   0.01288   0.02455
 Alpha virt. eigenvalues --    0.03142   0.03323   0.03905   0.04538   0.05173
 Alpha virt. eigenvalues --    0.06097   0.06784   0.07352   0.08341   0.09143

  Beta  occ. eigenvalues --  -19.13245 -19.06871 -19.06750 -10.21644 -10.21549
  Beta  occ. eigenvalues --  -10.21270 -10.20739 -10.16787 -10.15987 -10.15873
  Beta  occ. eigenvalues --  -10.15448  -1.04581  -0.98062  -0.97784  -0.81602
  Beta  occ. eigenvalues --   -0.76050  -0.71044  -0.66520  -0.65485  -0.57483
  Beta  occ. eigenvalues --   -0.55777  -0.49510  -0.48279  -0.45496  -0.45132
  Beta  occ. eigenvalues --   -0.43045  -0.41276  -0.40976  -0.39638  -0.38987
  Beta  occ. eigenvalues --   -0.37112  -0.36163  -0.35993  -0.34229  -0.33539
  Beta  occ. eigenvalues --   -0.28138  -0.24629  -0.23411  -0.23109  -0.22877
  Beta virt. eigenvalues --   -0.08779  -0.00260   0.00907   0.01198   0.01585
  Beta virt. eigenvalues --    0.02693   0.03344   0.03940   0.04535   0.05087
  Beta virt. eigenvalues --    0.05228   0.06162   0.07036   0.07416   0.08427

 Mulliken charges and spin densities:
               1          2
     1  C    0.021790   0.091135
     2  C   -0.052938   0.093307
     3  C    0.249856   0.106802
     4  C   -1.123345   0.096954
     5  C    2.049279   0.058674
     6  C   -1.703500   0.059146
     7  O   -0.513924   0.251765
     8  O   -0.497193   0.243598
     9  C   -0.235757   0.006491
    10  O   -0.204160  -0.001075
    11  C   -0.307179   0.003652
    12  H    0.185801  -0.007335
    13  H    0.180080  -0.009350
    14  H    0.161849   0.003404
    15  H    0.170211  -0.000191
    16  H    0.159985   0.003536
    17  H    0.158516   0.000939
    18  H    0.164378  -0.000833
    19  H    0.136249  -0.000621
 Sum of Mulliken charges =  -1.00000   1.00000

 Dipole moment (field-independent basis, Debye):
    X=             -2.4345    Y=             -1.2003    Z=             -0.6648  Tot=              2.7945
 Quadrupole moment (field-independent basis, Debye-Ang):
   XX=            -97.3529   YY=            -76.5100   ZZ=            -68.6246
   XY=            -18.3825   XZ=              3.6905   YZ=              7.0629

  Exact polarizability: 225.232  35.092 184.263 -38.063 -22.609 109.973
 Approx polarizability: 251.698  48.064 194.547 -40.359 -26.534 121.441

                      1                      2                      3
                      A                      A                      A
 Frequencies --     73.4685                97.0842               110.8266
 Red. masses --      2.4447                 2.1280                 1.4964
 Frc consts  --      0.0078                 0.0118                 0.0108
 IR Inten    --      8.4818                 1.9909                 2.5599

                      4                      5                      6
                      A                      A                      A
 Frequencies --    126.5208               153.5594               199.2364
 Red. masses --      4.6667                 1.0970                 3.6932
 Frc consts  --      0.0440                 0.0152                 0.0864
 IR Inten    --     23.7711                 1.1769                 4.9449

                      7                      8                      9
                      A                      A                      A
 Frequencies --    296.9267               314.3739               342.2399
 Red. masses --      3.6433                 4.2301                 5.8659
 Frc consts  --      0.1893                 0.2463                 0.4048
 IR Inten    --      2.5479                11.1756                 3.2079

                     10                     11                     12
                      A                      A                      A
 Frequencies --    362.7649               385.7134               464.0431
 Red. masses --      6.2704                 6.9026                 5.9793
 Frc consts  --      0.4862                 0.6050                 0.7586
 IR Inten    --     12.6621                11.3807                 5.0036

                     13                     14                     15
                      A                      A                      A
 Frequencies --    477.2409               550.2628               615.6088
 Red. masses --     10.9259                 3.6061                 4.0556
 Frc consts  --      1.4662                 0.6433                 0.9056
 IR Inten    --      0.9254                 0.1947                 0.7206

                     16                     17                     18
                      A                      A                      A
 Frequencies --    633.6677               666.7410               761.2158
 Red. masses --      3.7025                 3.7559                 6.8518
 Frc consts  --      0.8759                 0.9837                 2.3392
 IR Inten    --      6.0972                17.5721                49.6509

                     19                     20                     21
                      A                      A                      A
 Frequencies --    772.5648               822.5311               872.4024
 Red. masses --      5.4077                 2.2096                 2.4586
 Frc consts  --      1.9017                 0.8808                 1.1025
 IR Inten    --     21.5220                76.2246                 9.8273

                     22                     23                     24
                      A                      A                      A
 Frequencies --    940.2663              1002.8209              1034.0947
 Red. masses --      1.2648                 4.7751                 3.0582
 Frc consts  --      0.6588                 2.8293                 1.9268
 IR Inten    --      0.1179                42.8162                81.7226

                     25                     26                     27
                      A                      A                      A
 Frequencies --   1046.9666              1089.9368              1154.3699
 Red. masses --      1.5024                 2.2424                 1.5172
 Frc consts  --      0.9703                 1.5695                 1.1912
 IR Inten    --      2.2698               164.8531               166.3680

                     28                     29                     30
                      A                      A                      A
 Frequencies --   1160.5300              1169.5221              1216.4448
 Red. masses --      1.5578                 2.2219                 1.6912
 Frc consts  --      1.2361                 1.7906                 1.4745
 IR Inten    --     28.5113               105.8438                65.3034

                     31                     32                     33
                      A                      A                      A
 Frequencies --   1239.0414              1346.0250              1393.4214
 Red. masses --      4.2311                 2.0671                 1.3212
 Frc consts  --      3.8272                 2.2066                 1.5114
 IR Inten    --     94.6018                17.2840                 5.1474

                     34                     35                     36
                      A                      A                      A
 Frequencies --   1425.2347              1453.5679              1463.5995
 Red. masses --      4.0386                 1.4724                 1.1302
 Frc consts  --      4.8334                 1.8330                 1.4264
 IR Inten    --    339.6188               159.7989                55.7626

                     37                     38                     39
                      A                      A                      A
 Frequencies --   1470.9573              1473.0012              1478.0127
 Red. masses --      3.3624                 1.1410                 1.1790
 Frc consts  --      4.2865                 1.4586                 1.5175
 IR Inten    --     19.5477                 5.6711                 9.4143

                     40                     41                     42
                      A                      A                      A
 Frequencies --   1498.0966              1507.2445              1534.6622
 Red. masses --      1.0538                 4.3131                 4.5869
 Frc consts  --      1.3934                 5.7731                 6.3649
 IR Inten    --      7.3952               931.2893                86.4739

                     43                     44                     45
                      A                      A                      A
 Frequencies --   1637.0219              3007.7057              3020.6731
 Red. masses --      7.2103                 1.0381                 1.0413
 Frc consts  --     11.3844                 5.5329                 5.5981
 IR Inten    --     20.5131               103.9986                64.4334

                     46                     47                     48
                      A                      A                      A
 Frequencies --   3060.7635              3086.0857              3122.3661
 Red. masses --      1.0975                 1.0951                 1.1056
 Frc consts  --      6.0578                 6.1448                 6.3505
 IR Inten    --     37.6792                52.6104                38.8563

                     49                     50                     51
                      A                      A                      A
 Frequencies --   3129.1921              3144.9830              3164.1714
 Red. masses --      1.0975                 1.0858                 1.0953
 Frc consts  --      6.3317                 6.3273                 6.4613
 IR Inten    --     18.1614                32.7301                32.8467

 - Thermochemistry -
 -------------------
 Temperature   298.150 Kelvin.  Pressure   1.00000 Atm.
 Atom     1 has atomic number  6 and mass  12.00000

 Molecular mass:   152.04734 amu.
 Principal axes and moments of inertia in atomic units:
                           1         2         3
     Eigenvalues --  1090.281931734.515432706.73957
           X            0.93841  -0.17062   0.30045
           Y            0.13800   0.98229   0.12677
           Z           -0.31676  -0.07750   0.94533
 This molecule is an asymmetric top.
 Rotational symmetry number  1.
 Warning -- assumption of classical behavior for rotation
           may cause significant error
 Rotational temperatures (Kelvin)      0.07944     0.04994     0.03200
 Rotational constants (GHZ):           1.65530     1.04049     0.66676
 Zero-point vibrational energy     374250.3 (Joules/Mol)
                                   89.44798 (Kcal/Mol)
 Warning -- explicit consideration of  15 degrees of freedom as
           vibrations may cause significant error
 Vibrational temperatures:    105.70   139.68   159.45   182.04   220.94
          (Kelvin)            286.66   427.21   452.31   492.41   521.94
                              554.96   667.65   686.64   791.71   885.72
                              911.71   959.29  1095.22  1111.55  1183.44
                             1255.19  1352.83  1442.84  1487.83  1506.35
                             1568.18  1660.88  1669.74  1682.68  1750.19
                             1782.70  1936.63  2004.82  2050.59  2091.36
                             2105.79  2116.38  2119.32  2126.53  2155.43
                             2168.59  2208.04  2355.31  4327.42  4346.07
                             4403.76  4440.19  4492.39  4502.21  4524.93
                             4552.54

 Zero-point correction=                           0.142544 (Hartree/Particle)
 Thermal correction to Energy=                    0.153111
 Thermal correction to Enthalpy=                  0.154055
 Thermal correction to Gibbs Free Energy=         0.105653
 Sum of electronic and zero-point Energies=           -535.462611
 Sum of electronic and thermal Energies=              -535.452044
 Sum of electronic and thermal Enthalpies=            -535.451100
 Sum of electronic and thermal Free Energies=         -535.499503

                     E (Thermal)             CV                S
                      KCal/Mol        Cal/Mol-Kelvin    Cal/Mol-Kelvin
 Total                   96.079             38.506            101.872
 Electronic               0.000              0.000              1.377
 Translational            0.889              2.981             40.967
 Rotational               0.889              2.981             30.016
 Vibrational             94.301             32.545             29.512
 Vibration     1          0.599              1.967              4.058
 Vibration     2          0.603              1.951              3.512
 Vibration     3          0.607              1.941              3.254
 Vibration     4          0.611              1.927              2.998
 Vibration     5          0.619              1.899              2.628
 Vibration     6          0.637              1.841              2.140
 Vibration     7          0.691              1.679              1.434
 Vibration     8          0.702              1.646              1.339
 Vibration     9          0.721              1.591              1.202
 Vibration    10          0.737              1.549              1.110
 Vibration    11          0.754              1.501              1.017
 Vibration    12          0.822              1.330              0.754
 Vibration    13          0.834              1.301              0.718
 Vibration    14          0.906              1.139              0.544
 Vibration    15          0.975              0.999              0.424

 Optimization completed.
    -- Stationary point found.
 Normal termination of Gaussian 16 at Sat Feb 10 11:42:32 2024.
