 Q-Chem 5.4, Q-Chem, Inc., Pleasanton, CA (2021)
 Q-Chem 5.4.0 for Intel X86 EM64T Linux

User input:
--------------------------------------------------------------
$molecule
-1 2
C                 -4.0310820000      0.2785250000      0.2728460000
C                 -2.5627120000      0.0062980000      0.0399960000
C                 -2.1598500000     -1.0535660000     -0.8055970000
C                 -0.8207080000     -1.3129470000     -1.0265300000
C                  0.1841890000     -0.5333220000     -0.4190870000
C                  1.6014680000     -0.8363410000     -0.6752660000
O                  1.9521200000     -1.7846580000     -1.4317200000
C                  2.5670160000      0.0130160000     -0.0118090000
C                  2.1677500000      1.0467740000      0.8128050000
C                  0.7986630000      1.3811500000      1.0931960000
O                  0.4714370000      2.3341390000      1.8529790000
C                 -0.2082440000      0.5326630000      0.4311220000
C                 -1.5803820000      0.7768290000      0.6402520000
C                  4.0237820000     -0.2781740000     -0.2585740000
H                 -4.5525930000      0.5058140000     -0.6649280000
H                 -4.1713470000      1.1275870000      0.9463940000
H                 -4.5361040000     -0.5878180000      0.7172400000
H                 -2.9160900000     -1.6701680000     -1.2864800000
H                 -0.5025210000     -2.1232050000     -1.6731640000
H                  2.9140500000      1.6705940000      1.2997580000
H                 -1.8398090000      1.6010180000      1.2971290000
H                  4.2615300000     -0.2149980000     -1.3262040000
H                  4.2767140000     -1.3003330000      0.0440800000
H                  4.6627220000      0.4211230000      0.2882850000
$end
$rem
MAX_SCF_CYCLES=200
BASIS  =  6-311++G(d,p)
GUI  =  2
JOB_TYPE  =  SP
METHOD  =  B3LYP
SOLVENT_METHOD = COSMO
$end
$solvent
dielectric 37.219
opticaldielectric 1.43
$end

--------------------------------------------------------------

             Standard Nuclear Orientation (Angstroms)
    I     Atom           X                Y                Z
 ----------------------------------------------------------------
    1      C       4.2150543340    -0.1120585914     0.0004236646
    2      C       2.7298330140     0.1682173598     0.0000487601
    3      C       2.2562189950     1.5010064521    -0.0000396599
    4      C       0.9009723794     1.7706317058    -0.0001922266
    5      C      -0.0506060960     0.7308632102    -0.0001794455
    6      C      -1.4868323092     1.0523942675    -0.0001354135
    7      O      -1.9007982075     2.2453388782    -0.0001879242
    8      C      -2.3944100294    -0.0746230725     0.0000684342
    9      C      -1.9261496884    -1.3741573875    -0.0000186812
   10      C      -0.5359686025    -1.7377810422    -0.0001664611
   11      O      -0.1450967429    -2.9376786562    -0.0002057136
   12      C       0.4129950956    -0.6101278257    -0.0001887359
   13      C       1.8001801766    -0.8587895011    -0.0001127249
   14      C      -3.8692720001     0.2297348731     0.0004789171
   15      H       4.7069013176     0.3192553514    -0.8799790361
   16      H       4.4121059388    -1.1869615044    -0.0009368120
   17      H       4.7059264526     0.3167692336     0.8825997814
   18      H       2.9703262375     2.3216137082    -0.0000730047
   19      H       0.5287032062     2.7891169394    -0.0003153405
   20      H      -2.6298330189    -2.2036560498     0.0001962613
   21      H       2.1146759361    -1.8976204240    -0.0001120736
   22      H      -4.1466063228     0.8301115336    -0.8730098775
   23      H      -4.1464508022     0.8285735682     0.8750915117
   24      H      -4.4606809568    -0.6903468220    -0.0002308724
 ----------------------------------------------------------------

   10    -613.9875142324      8.07e-06  Convergence criterion met
 Total energy in the final basis set =     -613.9875142324
    5    -614.0737942330      5.88e-06  Convergence criterion met
 Total energy in the final basis set =     -614.0737942330

                    Orbital Energies (a.u.)
 --------------------------------------------------------------

 Alpha MOs
 -- Occupied --
-19.0782 -19.0779 -10.2218 -10.2200 -10.1801 -10.1714 -10.1711 -10.1698
-10.1685 -10.1679 -10.1646 -10.1602 -10.1572 -10.1546  -1.0022  -0.9998
 -0.8589  -0.8125  -0.7687  -0.7494  -0.7042  -0.6905  -0.6443  -0.6151
 -0.5810  -0.5515  -0.5067  -0.4854  -0.4701  -0.4372  -0.4282  -0.4263
 -0.4231  -0.4148  -0.4144  -0.3929  -0.3892  -0.3811  -0.3747  -0.3734
 -0.3660  -0.3436  -0.3389  -0.3330  -0.2721  -0.2546  -0.2475  -0.2402
 -0.2390  -0.1532

 Beta MOs
 -- Occupied --
-19.0722 -19.0719 -10.2201 -10.2181 -10.1796 -10.1705 -10.1697 -10.1694
-10.1683 -10.1677 -10.1645 -10.1603 -10.1560 -10.1547  -0.9916  -0.9890
 -0.8570  -0.8074  -0.7673  -0.7473  -0.7022  -0.6858  -0.6387  -0.6130
 -0.5791  -0.5481  -0.5048  -0.4828  -0.4675  -0.4361  -0.4241  -0.4218
 -0.4194  -0.4116  -0.4096  -0.3871  -0.3833  -0.3807  -0.3732  -0.3646
 -0.3506  -0.3421  -0.3319  -0.3286  -0.2488  -0.2457  -0.2419  -0.2345
 -0.2335

          Ground-State Mulliken Net Atomic Charges

     Atom                 Charge (a.u.)    Spin (a.u.)
  --------------------------------------------------------
      1 C                    -0.434672      -0.001913
      2 C                     0.413560       0.030760
      3 C                    -0.420505       0.015889
      4 C                     0.056157       0.030444
      5 C                    -0.167234      -0.019600
      6 C                    -0.429326       0.135409
      7 O                    -0.514367       0.221545
      8 C                     0.674957       0.112255
      9 C                    -0.441768       0.078442
     10 C                    -0.722199       0.102319
     11 O                    -0.534269       0.211803
     12 C                     0.377847       0.058523
     13 C                    -0.271142       0.016655
     14 C                    -0.292250       0.007337
     15 H                     0.169670       0.001868
     16 H                     0.175346       0.000079
     17 H                     0.169841       0.001872
     18 H                     0.199916      -0.001699
     19 H                     0.175881      -0.002432
     20 H                     0.163517      -0.009124
     21 H                     0.141117      -0.002613
     22 H                     0.173161       0.006174
     23 H                     0.173306       0.006189
     24 H                     0.163457      -0.000183
  --------------------------------------------------------
  Sum of atomic charges =    -1.000000

                    Cartesian Multipole Moments
 -----------------------------------------------------------------
    Charge (ESU x 10^10)
                -4.8032
    Dipole Moment (Debye)
         X       4.9760      Y       2.1065      Z       0.0021
       Tot       5.4035
    Quadrupole Moments (Debye-Ang)
        XX     -84.8210     XY      11.4650     YY    -121.6041
        XZ       0.0007     YZ       0.0004     ZZ     -87.8551

 Total job time:  52.69s(wall), 398.27s(cpu)
        *  Thank you very much for using Q-Chem.  Have a nice day.  *
