 Gaussian 16, Revision A.03,
 Gaussian 16:  ES64L-G16RevA.03 25-Dec-2016

 --------------------------------------
 #P UB3LYP/6-311++G(d,p) nosym opt freq
 --------------------------------------

 --------
 Oxidized
 --------
 Symbolic Z-matrix:
 Charge =  0 Multiplicity = 1

 SCF Done:  E(UB3LYP) =  -496.141118482     A.U. after   15 cycles
 SCF Done:  E(UB3LYP) =  -496.150914586     A.U. after   14 cycles
 SCF Done:  E(UB3LYP) =  -496.151726369     A.U. after   13 cycles
 SCF Done:  E(UB3LYP) =  -496.151797592     A.U. after   12 cycles
 SCF Done:  E(UB3LYP) =  -496.151803341     A.U. after   11 cycles
 Optimization completed.
    -- Stationary point found.
 Normal termination of Gaussian 16 at Wed Dec 20 01:30:52 2023.

 ----------------------------------------------------------------------
 #P Geom=AllCheck Guess=TCheck SCRF=Check GenChk UB3LYP/6-311++G(d,p) F
 req
 ----------------------------------------------------------------------

 Structure from the checkpoint file:  "108.chk"
 --------
 Oxidized
 --------
 Charge =  0 Multiplicity = 1

                          Input orientation:
 ---------------------------------------------------------------------
 Center     Atomic      Atomic             Coordinates (Angstroms)
 Number     Number       Type             X           Y           Z
 ---------------------------------------------------------------------
      1          6           0       -1.759058   -3.734880    1.224745
      2          6           0       -0.314694   -3.972748    1.073229
      3          6           0        0.484457   -2.968407    0.697949
      4          6           0       -0.039775   -1.593625    0.422219
      5          6           0       -1.487638   -1.334401    0.568924
      6          6           0       -2.280009   -2.363655    0.949516
      7          8           0       -2.552586   -4.602909    1.564144
      8          8           0        0.746723   -0.721387    0.082420
      9          8           0       -3.606398   -2.227854    1.109921
     10          6           0       -2.026242    0.038755    0.296095
     11          1           0        0.039826   -4.976158    1.278529
     12          1           0        1.554559   -3.087274    0.570969
     13          1           0       -1.217639    0.707685    0.005466
     14          1           0       -2.524174    0.444296    1.181699
     15          1           0       -2.772378    0.012192   -0.503444
     16          1           0       -3.944632   -3.100749    1.383748
 ---------------------------------------------------------------------

 SCF Done:  E(UB3LYP) =  -496.151803341     A.U. after    1 cycles

 Alpha  occ. eigenvalues --  -19.18587 -19.16094 -19.13944 -10.30231 -10.28746
 Alpha  occ. eigenvalues --  -10.27260 -10.22688 -10.22433 -10.21209 -10.17848
 Alpha  occ. eigenvalues --   -1.11580  -1.07688  -1.06956  -0.87334  -0.81389
 Alpha  occ. eigenvalues --   -0.73222  -0.70376  -0.64413  -0.62427  -0.56393
 Alpha  occ. eigenvalues --   -0.53716  -0.51328  -0.48468  -0.48120  -0.45026
 Alpha  occ. eigenvalues --   -0.44906  -0.43645  -0.43350  -0.41927  -0.39963
 Alpha  occ. eigenvalues --   -0.39644  -0.39207  -0.32331  -0.31050  -0.28595
 Alpha  occ. eigenvalues --   -0.26717
 Alpha virt. eigenvalues --   -0.14164  -0.03065  -0.01316  -0.00551  -0.00323
 Alpha virt. eigenvalues --    0.01022   0.02686   0.03096   0.03616   0.04434
 Alpha virt. eigenvalues --    0.05792   0.07021   0.07423   0.07633   0.08666

  Beta  occ. eigenvalues --  -19.18587 -19.16094 -19.13944 -10.30231 -10.28746
  Beta  occ. eigenvalues --  -10.27260 -10.22688 -10.22433 -10.21209 -10.17848
  Beta  occ. eigenvalues --   -1.11580  -1.07688  -1.06956  -0.87334  -0.81389
  Beta  occ. eigenvalues --   -0.73222  -0.70376  -0.64413  -0.62427  -0.56393
  Beta  occ. eigenvalues --   -0.53716  -0.51328  -0.48468  -0.48120  -0.45026
  Beta  occ. eigenvalues --   -0.44906  -0.43645  -0.43350  -0.41927  -0.39963
  Beta  occ. eigenvalues --   -0.39644  -0.39207  -0.32331  -0.31050  -0.28595
  Beta  occ. eigenvalues --   -0.26717
  Beta virt. eigenvalues --   -0.14164  -0.03065  -0.01316  -0.00551  -0.00323
  Beta virt. eigenvalues --    0.01022   0.02686   0.03096   0.03616   0.04434
  Beta virt. eigenvalues --    0.05792   0.07021   0.07423   0.07633   0.08666

 Mulliken charges and spin densities:
               1          2
     1  C   -0.047203  -0.000000
     2  C    0.079240   0.000000
     3  C    0.346958  -0.000000
     4  C   -1.458053   0.000000
     5  C    1.956876  -0.000000
     6  C   -1.233883   0.000000
     7  O   -0.278794   0.000000
     8  O   -0.224653  -0.000000
     9  O   -0.195270  -0.000000
    10  C   -0.230985   0.000000
    11  H    0.223031  -0.000000
    12  H    0.225153  -0.000000
    13  H    0.192290   0.000000
    14  H    0.180847  -0.000000
    15  H    0.180859  -0.000000
    16  H    0.283588   0.000000
 Sum of Mulliken charges =  -0.00000  -0.00000

 Dipole moment (field-independent basis, Debye):
    X=             -0.0438    Y=             -1.1124    Z=              0.2928  Tot=              1.1511
 Quadrupole moment (field-independent basis, Debye-Ang):
   XX=            -59.8012   YY=            -56.7018   ZZ=            -58.0400
   XY=             -6.7801   XZ=              2.0716   YZ=              0.7731

  Exact polarizability: 108.469  18.667 114.172 -13.207 -18.883  58.068
 Approx polarizability: 191.971  75.022 199.152 -36.074 -42.213  93.801

 ******    1 imaginary frequencies (negative Signs) ******

                      1                      2                      3
                      A                      A                      A
 Frequencies --    -55.3464                96.5121               117.8098
 Red. masses --      1.0214                 7.7172                 5.8248
 Frc consts  --      0.0018                 0.0424                 0.0476
 IR Inten    --      0.0877                 9.5959                 0.0101

                      4                      5                      6
                      A                      A                      A
 Frequencies --    249.6668               270.4064               275.9073
 Red. masses --      4.1474                 4.5198                 3.0424
 Frc consts  --      0.1523                 0.1947                 0.1365
 IR Inten    --      0.3377                 0.0228                 4.4554

                      7                      8                      9
                      A                      A                      A
 Frequencies --    328.9549               404.8413               451.1015
 Red. masses --      5.7619                10.0718                 7.5370
 Frc consts  --      0.3674                 0.9726                 0.9036
 IR Inten    --      6.1756                23.1117                 8.5082

                     10                     11                     12
                      A                      A                      A
 Frequencies --    471.8868               527.1815               607.2486
 Red. masses --     10.8952                 4.2279                 4.1682
 Frc consts  --      1.4294                 0.6923                 0.9056
 IR Inten    --      0.7178                 3.6797                 3.2593

                     13                     14                     15
                      A                      A                      A
 Frequencies --    608.8431               640.6539               646.8761
 Red. masses --      1.9821                 6.2360                 1.2140
 Frc consts  --      0.4329                 1.5080                 0.2993
 IR Inten    --     44.8112                 6.8601                57.6129

                     16                     17                     18
                      A                      A                      A
 Frequencies --    751.6051               769.1647               849.9998
 Red. masses --      9.5146                 7.6449                 2.0522
 Frc consts  --      3.1668                 2.6648                 0.8736
 IR Inten    --      0.1162                 7.6085                51.6404

                     19                     20                     21
                      A                      A                      A
 Frequencies --    876.5882               998.8723              1025.5216
 Red. masses --      2.3999                 1.2320                 3.0236
 Frc consts  --      1.0865                 0.7243                 1.8736
 IR Inten    --      3.7941                 0.0298                 3.1530

                     22                     23                     24
                      A                      A                      A
 Frequencies --   1047.9419              1088.1508              1152.7394
 Red. masses --      1.4434                 1.7438                 1.6769
 Frc consts  --      0.9339                 1.2165                 1.3129
 IR Inten    --      0.0384                94.0172                 7.7382

                     25                     26                     27
                      A                      A                      A
 Frequencies --   1222.6435              1288.6523              1336.4710
 Red. masses --      3.2425                 2.1368                 4.1848
 Frc consts  --      2.8559                 2.0907                 4.4040
 IR Inten    --    112.3037                34.2532               109.4492

                     28                     29                     30
                      A                      A                      A
 Frequencies --   1373.8364              1390.5500              1412.9278
 Red. masses --      1.6644                 2.0987                 1.3993
 Frc consts  --      1.8509                 2.3910                 1.6458
 IR Inten    --    180.0527               118.8279                63.3740

                     31                     32                     33
                      A                      A                      A
 Frequencies --   1487.0811              1488.2404              1651.0733
 Red. masses --      1.0993                 1.0430                 8.2618
 Frc consts  --      1.4323                 1.3611                13.2696
 IR Inten    --     47.6271                 9.9017                39.2989

                     34                     35                     36
                      A                      A                      A
 Frequencies --   1702.2997              1707.8934              1717.3950
 Red. masses --     10.8209                 7.9642                 9.7738
 Frc consts  --     18.4750                13.6871                16.9845
 IR Inten    --    313.9766                84.3883               157.9788

                     37                     38                     39
                      A                      A                      A
 Frequencies --   3032.3695              3078.3775              3137.5994
 Red. masses --      1.0383                 1.0998                 1.0991
 Frc consts  --      5.6251                 6.1404                 6.3753
 IR Inten    --     12.3851                10.6219                 3.0058

                     40                     41                     42
                      A                      A                      A
 Frequencies --   3181.5216              3199.2977              3634.5815
 Red. masses --      1.0873                 1.0999                 1.0644
 Frc consts  --      6.4842                 6.6328                 8.2847
 IR Inten    --      0.8140                 1.6479               133.2739

 - Thermochemistry -
 -------------------
 Temperature   298.150 Kelvin.  Pressure   1.00000 Atm.
 Atom     1 has atomic number  6 and mass  12.00000

 Molecular mass:   138.03169 amu.
 Principal axes and moments of inertia in atomic units:
                           1         2         3
     Eigenvalues --   888.656701331.991302209.53416
           X            0.60269   0.78539   0.14117
           Y            0.74709  -0.61752   0.24602
           Z           -0.28040   0.04281   0.95893
 This molecule is an asymmetric top.
 Rotational symmetry number  1.
 Warning -- assumption of classical behavior for rotation
           may cause significant error
 Rotational temperatures (Kelvin)      0.09747     0.06503     0.03920
 Rotational constants (GHZ):           2.03086     1.35492     0.81680
    1 imaginary frequencies ignored.
 Zero-point vibrational energy     306849.8 (Joules/Mol)
                                   73.33887 (Kcal/Mol)
 Warning -- explicit consideration of  12 degrees of freedom as
           vibrations may cause significant error
 Vibrational temperatures:    138.86   169.50   359.21   389.05   396.97
          (Kelvin)            473.29   582.48   649.03   678.94   758.50
                              873.70   875.99   921.76   930.71  1081.39
                             1106.66  1222.96  1261.21  1437.15  1475.50
                             1507.75  1565.61  1658.53  1759.11  1854.08
                             1922.88  1976.64  2000.69  2032.89  2139.58
                             2141.25  2375.53  2449.23  2457.28  2470.95
                             4362.90  4429.10  4514.31  4577.50  4603.08
                             5229.35

 Zero-point correction=                           0.116873 (Hartree/Particle)
 Thermal correction to Energy=                    0.125065
 Thermal correction to Enthalpy=                  0.126010
 Thermal correction to Gibbs Free Energy=         0.083769
 Sum of electronic and zero-point Energies=           -496.034930
 Sum of electronic and thermal Energies=              -496.026738
 Sum of electronic and thermal Enthalpies=            -496.025794
 Sum of electronic and thermal Free Energies=         -496.068035

                     E (Thermal)             CV                S
                      KCal/Mol        Cal/Mol-Kelvin    Cal/Mol-Kelvin
 Total                   78.480             31.140             88.904
 Electronic               0.000              0.000              0.000
 Translational            0.889              2.981             40.679
 Rotational               0.889              2.981             29.349
 Vibrational             76.702             25.178             18.876
 Vibration     1          0.603              1.952              3.524
 Vibration     2          0.608              1.935              3.136
 Vibration     3          0.662              1.763              1.733
 Vibration     4          0.674              1.728              1.594
 Vibration     5          0.678              1.718              1.559
 Vibration     6          0.712              1.618              1.265
 Vibration     7          0.770              1.460              0.945
 Vibration     8          0.810              1.358              0.792
 Vibration     9          0.829              1.312              0.732
 Vibration    10          0.882              1.190              0.594
 Vibration    11          0.966              1.016              0.437
 Vibration    12          0.968              1.013              0.435

 Optimization completed.
    -- Stationary point found.
 Normal termination of Gaussian 16 at Wed Dec 20 01:39:53 2023.
