 Q-Chem 5.4, Q-Chem, Inc., Pleasanton, CA (2021)
 Q-Chem 5.4.0 for Intel X86 EM64T Linux

User input:
--------------------------------------------------------------
$molecule
-2 1
C                  5.5661100000     -4.6083660000     -1.0144630000
C                  6.4662060000     -4.1044300000     -1.9698420000
C                  6.1640090000     -2.8146690000     -2.5734480000
C                  4.3843180000     -3.9520660000     -0.5846090000
C                  4.1207280000     -2.6411600000     -1.2282930000
C                  5.0103570000     -2.1414350000     -2.1747300000
C                  3.4539560000     -4.4767960000      0.4111320000
C                  2.3018370000     -3.6295270000      0.6886670000
C                  2.0574020000     -2.3577640000      0.0542930000
C                  2.9565030000     -1.8140760000     -0.9288390000
C                  1.3567880000     -4.0835000000      1.6454890000
C                  0.2343200000     -3.3550500000      1.9778040000
C                 -0.0031760000     -2.0990430000      1.3497110000
C                  0.8936340000     -1.6285260000      0.4161320000
C                  7.6737850000     -4.7521990000     -2.3940530000
C                  8.5005980000     -4.2019730000     -3.3393800000
C                  8.1874820000     -2.9446000000     -3.9455410000
C                  7.0477650000     -2.2853270000     -3.5574530000
O                  3.5958200000     -5.5883720000      1.0180680000
O                  2.7576920000     -0.6871610000     -1.5035160000
Cl                 6.0175910000     -6.1988500000     -0.3218620000
H                  4.7576790000     -1.1788530000     -2.6086880000
H                  1.5666770000     -5.0433950000      2.1058570000
H                 -0.4678020000     -3.7366210000      2.7168190000
H                 -0.8866230000     -1.5174920000      1.6067640000
H                  0.7461230000     -0.6762210000     -0.0834050000
H                  7.9310640000     -5.7039870000     -1.9486160000
H                  9.4051690000     -4.7287000000     -3.6345550000
H                  8.8487000000     -2.5213030000     -4.6972650000
H                  6.7899870000     -1.3254850000     -3.9990770000
$end
$rem
MAX_SCF_CYCLES=200
BASIS  =  6-311++G(d,p)
GUI  =  2
JOB_TYPE  =  SP
METHOD  =  B3LYP
SOLVENT_METHOD = PCM
$end
$pcm
theory = CPCM
$end
$solvent
dielectric 37.219
opticaldielectric 1.43
$end

--------------------------------------------------------------

             Standard Nuclear Orientation (Angstroms)
    I     Atom           X                Y                Z
 ----------------------------------------------------------------
    1      C       5.5661100000    -4.6083660000    -1.0144630000
    2      C       6.4662060000    -4.1044300000    -1.9698420000
    3      C       6.1640090000    -2.8146690000    -2.5734480000
    4      C       4.3843180000    -3.9520660000    -0.5846090000
    5      C       4.1207280000    -2.6411600000    -1.2282930000
    6      C       5.0103570000    -2.1414350000    -2.1747300000
    7      C       3.4539560000    -4.4767960000     0.4111320000
    8      C       2.3018370000    -3.6295270000     0.6886670000
    9      C       2.0574020000    -2.3577640000     0.0542930000
   10      C       2.9565030000    -1.8140760000    -0.9288390000
   11      C       1.3567880000    -4.0835000000     1.6454890000
   12      C       0.2343200000    -3.3550500000     1.9778040000
   13      C      -0.0031760000    -2.0990430000     1.3497110000
   14      C       0.8936340000    -1.6285260000     0.4161320000
   15      C       7.6737850000    -4.7521990000    -2.3940530000
   16      C       8.5005980000    -4.2019730000    -3.3393800000
   17      C       8.1874820000    -2.9446000000    -3.9455410000
   18      C       7.0477650000    -2.2853270000    -3.5574530000
   19      O       3.5958200000    -5.5883720000     1.0180680000
   20      O       2.7576920000    -0.6871610000    -1.5035160000
   21      Cl      6.0175910000    -6.1988500000    -0.3218620000
   22      H       4.7576790000    -1.1788530000    -2.6086880000
   23      H       1.5666770000    -5.0433950000     2.1058570000
   24      H      -0.4678020000    -3.7366210000     2.7168190000
   25      H      -0.8866230000    -1.5174920000     1.6067640000
   26      H       0.7461230000    -0.6762210000    -0.0834050000
   27      H       7.9310640000    -5.7039870000    -1.9486160000
   28      H       9.4051690000    -4.7287000000    -3.6345550000
   29      H       8.8487000000    -2.5213030000    -4.6972650000
   30      H       6.7899870000    -1.3254850000    -3.9990770000
 ----------------------------------------------------------------

    9   -1302.4801851552      5.18e-06  Convergence criterion met
 Total energy in the final basis set =    -1302.4801851552

                    Orbital Energies (a.u.)
 --------------------------------------------------------------

 Alpha MOs
 -- Occupied --
******** -19.0298 -19.0220 -10.2177 -10.1855 -10.1822 -10.1744 -10.1682
-10.1669 -10.1656 -10.1644 -10.1628 -10.1618 -10.1525 -10.1517 -10.1512
-10.1511 -10.1492 -10.1477 -10.1404 -10.1396  -9.4455  -7.2097  -7.2009
 -7.1998  -0.9517  -0.9482  -0.8725  -0.8336  -0.8284  -0.8016  -0.7540
 -0.7474  -0.7260  -0.7159  -0.7041  -0.6397  -0.6321  -0.6013  -0.5847
 -0.5621  -0.5363  -0.5290  -0.5034  -0.4822  -0.4761  -0.4477  -0.4335
 -0.4298  -0.4274  -0.4098  -0.4077  -0.4002  -0.4001  -0.3858  -0.3811
 -0.3730  -0.3718  -0.3531  -0.3483  -0.3468  -0.3318  -0.3251  -0.3195
 -0.3192  -0.3095  -0.2945  -0.2916  -0.2679  -0.2336  -0.2315  -0.2231
 -0.2102  -0.2080  -0.1956  -0.1068

          Ground-State Mulliken Net Atomic Charges

     Atom                 Charge (a.u.)
  ----------------------------------------
      1 C                     0.384285
      2 C                     0.374447
      3 C                     1.047095
      4 C                     0.136563
      5 C                     0.682427
      6 C                     0.046032
      7 C                    -1.796013
      8 C                    -0.216853
      9 C                     0.476288
     10 C                    -0.534534
     11 C                     0.076570
     12 C                    -0.515949
     13 C                    -0.550459
     14 C                     0.062178
     15 C                    -1.169359
     16 C                    -0.707192
     17 C                    -0.339222
     18 C                    -0.256526
     19 O                    -0.545487
     20 O                    -0.643396
     21 Cl                    0.490031
     22 H                     0.120238
     23 H                     0.149901
     24 H                     0.176443
     25 H                     0.176037
     26 H                     0.145643
     27 H                     0.168131
     28 H                     0.201075
     29 H                     0.189695
     30 H                     0.171911
  ----------------------------------------
  Sum of atomic charges =    -2.000002

                    Cartesian Multipole Moments
 -----------------------------------------------------------------
    Charge (ESU x 10^10)
                -9.6064
    Dipole Moment (Debye)
         X     -33.6606      Y      32.7653      Z       2.9173
       Tot      47.0650
    Quadrupole Moments (Debye-Ang)
        XX    -275.3934     XY     128.2115     YY    -293.7246
        XZ      12.7752     YZ       5.8204     ZZ    -154.6454

 Total job time:  203.52s(wall), 482.31s(cpu)
        *  Thank you very much for using Q-Chem.  Have a nice day.  *
