 Gaussian 16, Revision A.03,
 Gaussian 16:  ES64L-G16RevA.03 25-Dec-2016

 --------------------------------------
 #P UB3LYP/6-311++G(d,p) nosym opt freq
 --------------------------------------

 -------
 Reduced
 -------
 Symbolic Z-matrix:
 Charge = -2 Multiplicity = 1

 SCF Done:  E(UB3LYP) =  -914.685247613     A.U. after   29 cycles
 Optimization completed.
    -- Stationary point found.
 Normal termination of Gaussian 16 at Sun Jan  7 06:50:08 2024.

 ----------------------------------------------------------------------
 #P Geom=AllCheck Guess=TCheck SCRF=Check GenChk UB3LYP/6-311++G(d,p) F
 req
 ----------------------------------------------------------------------

 Structure from the checkpoint file:  "202-an.chk"
 -------
 Reduced
 -------
 Charge = -2 Multiplicity = 1

                          Input orientation:
 ---------------------------------------------------------------------
 Center     Atomic      Atomic             Coordinates (Angstroms)
 Number     Number       Type             X           Y           Z
 ---------------------------------------------------------------------
      1          8           0        4.893003    0.888911   -0.721810
      2          6           0        3.629789    0.309065   -0.517108
      3          6           0        3.520446   -1.105614   -0.437438
      4          6           0        2.269834   -1.662487   -0.220147
      5          6           0        1.105754   -0.884835   -0.106211
      6          6           0       -0.178771   -1.555402    0.107316
      7          8           0       -0.235823   -2.815660    0.194554
      8          6           0       -1.344361   -0.672622    0.210409
      9          6           0       -2.665086   -1.182085    0.414913
     10          8           0       -2.890051   -2.560460    0.519621
     11          6           0       -3.745186   -0.330046    0.513153
     12          6           0       -3.604159    1.072775    0.412188
     13          6           0       -2.356019    1.668507    0.211080
     14          8           0       -2.210659    2.967417    0.117383
     15          6           0       -1.193887    0.769476    0.107473
     16          6           0        0.085742    1.351022   -0.101667
     17          8           0        0.228213    2.715079   -0.202877
     18          6           0        1.226306    0.549992   -0.208011
     19          6           0        2.532504    1.115416   -0.399741
     20          1           0        5.543270    0.262913   -0.380188
     21          1           0        4.400095   -1.730005   -0.583807
     22          1           0        2.141511   -2.737968   -0.148375
     23          1           0       -3.847089   -2.648780    0.582447
     24          1           0       -4.737826   -0.757628    0.676153
     25          1           0       -4.471214    1.723323    0.492527
     26          1           0       -0.732675    3.057108   -0.090220
     27          1           0        2.636340    2.192589   -0.441618
 ---------------------------------------------------------------------

 SCF Done:  E(UB3LYP) =  -914.685247613     A.U. after    1 cycles

 Alpha  occ. eigenvalues --  -18.93668 -18.90275 -18.84874 -18.80321 -18.79385
 Alpha  occ. eigenvalues --   -9.99607  -9.97169  -9.96215  -9.95772  -9.94919
 Alpha  occ. eigenvalues --   -9.93668  -9.93452  -9.92451  -9.92041  -9.91999
 Alpha  occ. eigenvalues --   -9.91792  -9.91537  -9.91114  -9.90129  -0.83644
 Alpha  occ. eigenvalues --   -0.80745  -0.76621  -0.71903  -0.70910  -0.60903
 Alpha  occ. eigenvalues --   -0.57866  -0.53282  -0.51025  -0.48419  -0.46447
 Alpha  occ. eigenvalues --   -0.42201  -0.38737  -0.38355  -0.34285  -0.33678
 Alpha  occ. eigenvalues --   -0.29979  -0.29290  -0.27233  -0.24745  -0.23449
 Alpha  occ. eigenvalues --   -0.21850  -0.20560  -0.19978  -0.19284  -0.18557
 Alpha  occ. eigenvalues --   -0.16919  -0.16392  -0.16128  -0.14449  -0.13939
 Alpha  occ. eigenvalues --   -0.13660  -0.13015  -0.12615  -0.11482  -0.10255
 Alpha  occ. eigenvalues --   -0.09561  -0.09294  -0.08175  -0.07531  -0.03439
 Alpha  occ. eigenvalues --   -0.01678   0.00046   0.01334   0.01904   0.03891
 Alpha  occ. eigenvalues --    0.06123   0.11838
 Alpha virt. eigenvalues --    0.14053   0.16089   0.17598   0.18361   0.19981
 Alpha virt. eigenvalues --    0.20339   0.20912   0.21086   0.22596   0.23467
 Alpha virt. eigenvalues --    0.24582   0.24926   0.25672   0.26346   0.26593

  Beta  occ. eigenvalues --  -18.93668 -18.90275 -18.84874 -18.80321 -18.79385
  Beta  occ. eigenvalues --   -9.99607  -9.97169  -9.96215  -9.95772  -9.94919
  Beta  occ. eigenvalues --   -9.93668  -9.93452  -9.92451  -9.92041  -9.91999
  Beta  occ. eigenvalues --   -9.91792  -9.91537  -9.91114  -9.90129  -0.83644
  Beta  occ. eigenvalues --   -0.80745  -0.76621  -0.71903  -0.70910  -0.60903
  Beta  occ. eigenvalues --   -0.57866  -0.53282  -0.51025  -0.48419  -0.46447
  Beta  occ. eigenvalues --   -0.42201  -0.38737  -0.38355  -0.34285  -0.33678
  Beta  occ. eigenvalues --   -0.29979  -0.29290  -0.27233  -0.24745  -0.23449
  Beta  occ. eigenvalues --   -0.21850  -0.20560  -0.19978  -0.19284  -0.18557
  Beta  occ. eigenvalues --   -0.16919  -0.16392  -0.16128  -0.14449  -0.13939
  Beta  occ. eigenvalues --   -0.13660  -0.13015  -0.12615  -0.11482  -0.10255
  Beta  occ. eigenvalues --   -0.09561  -0.09294  -0.08175  -0.07531  -0.03439
  Beta  occ. eigenvalues --   -0.01678   0.00046   0.01334   0.01904   0.03891
  Beta  occ. eigenvalues --    0.06123   0.11838
  Beta virt. eigenvalues --    0.14053   0.16089   0.17598   0.18361   0.19981
  Beta virt. eigenvalues --    0.20339   0.20912   0.21086   0.22596   0.23467
  Beta virt. eigenvalues --    0.24582   0.24926   0.25672   0.26346   0.26593

 Mulliken charges and spin densities:
               1          2
     1  O   -0.303066  -0.000000
     2  C   -0.535845   0.000000
     3  C   -0.210088  -0.000000
     4  C   -0.068319  -0.000000
     5  C   -0.119284   0.000000
     6  C   -0.514215   0.000000
     7  O   -0.445540   0.000000
     8  C    0.516604   0.000000
     9  C   -0.377836  -0.000000
    10  O   -0.214925  -0.000000
    11  C   -0.192318  -0.000000
    12  C   -0.007008  -0.000000
    13  C   -0.818202   0.000000
    14  O   -0.567437  -0.000000
    15  C    0.812526  -0.000000
    16  C   -0.107270  -0.000000
    17  O   -0.483603  -0.000000
    18  C    0.809287  -0.000000
    19  C   -0.224129   0.000000
    20  H    0.041875   0.000000
    21  H    0.015302   0.000000
    22  H    0.135370  -0.000000
    23  H    0.203809  -0.000000
    24  H    0.026556   0.000000
    25  H    0.077670  -0.000000
    26  H    0.406945   0.000000
    27  H    0.143144   0.000000
 Sum of Mulliken charges =  -2.00000   0.00000

 Dipole moment (field-independent basis, Debye):
    X=              1.3733    Y=             -2.7529    Z=              0.0825  Tot=              3.0776
 Quadrupole moment (field-independent basis, Debye-Ang):
   XX=           -178.8531   YY=           -177.5898   ZZ=           -123.6922
   XY=              7.1888   XZ=              8.2448   YZ=              3.3610

  Exact polarizability:1854.580-118.538 273.841  -7.523 -10.630 122.524
 Approx polarizability:2012.920-114.572 477.756 -56.031 -17.409 189.547

                      1                      2                      3
                      A                      A                      A
 Frequencies --     39.3523                69.1552                97.0034
 Red. masses --      6.4305                 6.9693                 4.5394
 Frc consts  --      0.0059                 0.0196                 0.0252
 IR Inten    --      8.6338                 0.2715                 8.2186

                      4                      5                      6
                      A                      A                      A
 Frequencies --    111.7921               147.0426               166.0878
 Red. masses --      6.5230                 1.3343                 5.5166
 Frc consts  --      0.0480                 0.0170                 0.0897
 IR Inten    --      0.2981                46.3621                 5.2118

                      7                      8                      9
                      A                      A                      A
 Frequencies --    176.3459               226.4735               273.7891
 Red. masses --      6.9626                 5.6409                 4.6119
 Frc consts  --      0.1276                 0.1705                 0.2037
 IR Inten    --     13.3830                 5.6537                14.5635

                     10                     11                     12
                      A                      A                      A
 Frequencies --    282.6110               317.6325               331.7788
 Red. masses --      1.2877                 6.3029                 8.4046
 Frc consts  --      0.0606                 0.3747                 0.5451
 IR Inten    --    181.2106                 0.3319                 7.4278

                     13                     14                     15
                      A                      A                      A
 Frequencies --    355.8108               359.2321               387.5051
 Red. masses --      7.4302                10.4264                 6.2778
 Frc consts  --      0.5542                 0.7927                 0.5554
 IR Inten    --      4.1688                 3.0624                12.4317

                     16                     17                     18
                      A                      A                      A
 Frequencies --    394.4547               405.8029               428.7412
 Red. masses --      6.8750                 6.3386                 6.7074
 Frc consts  --      0.6303                 0.6150                 0.7264
 IR Inten    --     84.3675                59.4605               157.3019

                     19                     20                     21
                      A                      A                      A
 Frequencies --    447.0177               473.0886               484.9734
 Red. masses --      3.4428                11.5526                 7.4183
 Frc consts  --      0.4053                 1.5234                 1.0280
 IR Inten    --    118.6039               135.4689                96.7350

                     22                     23                     24
                      A                      A                      A
 Frequencies --    518.4505               539.3057               566.2510
 Red. masses --      4.0633                 8.1287                 2.9483
 Frc consts  --      0.6435                 1.3930                 0.5570
 IR Inten    --      2.6174                74.3180                42.3370

                     25                     26                     27
                      A                      A                      A
 Frequencies --    584.1255               630.6170               657.2666
 Red. masses --      4.9123                 2.2899                 3.8936
 Frc consts  --      0.9875                 0.5365                 0.9910
 IR Inten    --     23.8376                49.4197                37.7794

                     28                     29                     30
                      A                      A                      A
 Frequencies --    660.5787               681.4656               698.4237
 Red. masses --      3.0480                 6.6428                 2.1282
 Frc consts  --      0.7836                 1.8176                 0.6117
 IR Inten    --      9.6012                31.4294                28.3646

                     31                     32                     33
                      A                      A                      A
 Frequencies --    711.9128               735.3702               743.4105
 Red. masses --      4.3228                 6.7477                 1.6839
 Frc consts  --      1.2908                 2.1499                 0.5483
 IR Inten    --     40.7377                35.8774                 3.4507

                     34                     35                     36
                      A                      A                      A
 Frequencies --    778.6507               794.0281               797.9195
 Red. masses --      2.6241                 7.6994                 8.1188
 Frc consts  --      0.9374                 2.8601                 3.0455
 IR Inten    --     25.3676               122.4252                 1.2487

                     37                     38                     39
                      A                      A                      A
 Frequencies --    864.4523               874.6230               908.5127
 Red. masses --      1.5590                 4.8419                 8.7751
 Frc consts  --      0.6864                 2.1823                 4.2674
 IR Inten    --     88.8724               215.5585               169.0318

                     40                     41                     42
                      A                      A                      A
 Frequencies --    951.4872               969.2286              1010.1929
 Red. masses --      1.3310                 3.9323                 1.0506
 Frc consts  --      0.7099                 2.1764                 0.6317
 IR Inten    --     35.2054               379.1405                62.8620

                     43                     44                     45
                      A                      A                      A
 Frequencies --   1054.4045              1079.8788              1113.2459
 Red. masses --      2.3364                 2.6355                 1.6318
 Frc consts  --      1.5304                 1.8108                 1.1915
 IR Inten    --    408.8758               177.7096               179.2076

                     46                     47                     48
                      A                      A                      A
 Frequencies --   1151.1703              1152.2825              1187.1724
 Red. masses --      1.7959                 2.1739                 3.3429
 Frc consts  --      1.4022                 1.7007                 2.7759
 IR Inten    --   1496.3414                38.9999                95.7209

                     49                     50                     51
                      A                      A                      A
 Frequencies --   1198.8684              1213.6855              1218.8852
 Red. masses --      2.3307                 1.5067                 2.5585
 Frc consts  --      1.9737                 1.3076                 2.2396
 IR Inten    --     45.7409                59.0608               796.5828

                     52                     53                     54
                      A                      A                      A
 Frequencies --   1248.3222              1284.9507              1302.9439
 Red. masses --      1.9091                 5.5757                 4.3631
 Frc consts  --      1.7528                 5.4241                 4.3641
 IR Inten    --    161.0870               352.9717               417.2187

                     55                     56                     57
                      A                      A                      A
 Frequencies --   1334.5572              1357.2944              1378.6563
 Red. masses --      4.0605                 4.3084                 3.2692
 Frc consts  --      4.2610                 4.6765                 3.6610
 IR Inten    --    174.9700                14.3872               479.7973

                     58                     59                     60
                      A                      A                      A
 Frequencies --   1409.7035              1449.0118              1464.8943
 Red. masses --      3.6374                 3.3465                 3.7374
 Frc consts  --      4.2588                 4.1398                 4.7253
 IR Inten    --    177.9338               395.8564               709.1015

                     61                     62                     63
                      A                      A                      A
 Frequencies --   1489.1797              1528.4456              1532.1594
 Red. masses --      3.5088                 5.8083                 7.0939
 Frc consts  --      4.5846                 7.9946                 9.8117
 IR Inten    --   1619.7741               236.9933               413.4808

                     64                     65                     66
                      A                      A                      A
 Frequencies --   1563.5725              1579.0376              1629.5555
 Red. masses --      4.8912                 5.8155                 5.5777
 Frc consts  --      7.0454                 8.5432                 8.7265
 IR Inten    --    689.2486              1207.8712              1357.6752

                     67                     68                     69
                      A                      A                      A
 Frequencies --   1660.3368              2625.3713              3053.6911
 Red. masses --      1.6853                 1.0821                 1.0858
 Frc consts  --      2.7373                 4.3943                 5.9657
 IR Inten    --    571.6873              1426.2436               278.7897

                     70                     71                     72
                      A                      A                      A
 Frequencies --   3107.8460              3132.9794              3161.6433
 Red. masses --      1.0874                 1.0895                 1.0902
 Frc consts  --      6.1883                 6.3005                 6.4206
 IR Inten    --    251.8369               286.8195                39.9775

                     73                     74                     75
                      A                      A                      A
 Frequencies --   3190.3063              3732.0222              3796.0276
 Red. masses --      1.0893                 1.0655                 1.0649
 Frc consts  --      6.5323                 8.7435                 9.0413
 IR Inten    --     15.1247             10699.0379                 0.1075

 - Thermochemistry -
 -------------------
 Temperature   298.150 Kelvin.  Pressure   1.00000 Atm.
 Atom     1 has atomic number  8 and mass  15.99491

 Molecular mass:   256.03717 amu.
 Principal axes and moments of inertia in atomic units:
                           1         2         3
     Eigenvalues --  2663.267976218.441808880.47501
           X            0.99079  -0.03013   0.13203
           Y            0.02283   0.99814   0.05645
           Z           -0.13348  -0.05291   0.98964
 This molecule is an asymmetric top.
 Rotational symmetry number  1.
 Warning -- assumption of classical behavior for rotation
           may cause significant error
 Rotational temperatures (Kelvin)      0.03252     0.01393     0.00975
 Rotational constants (GHZ):           0.67764     0.29022     0.20323
 Zero-point vibrational energy     484691.3 (Joules/Mol)
                                  115.84401 (Kcal/Mol)
 Warning -- explicit consideration of  25 degrees of freedom as
           vibrations may cause significant error
 Vibrational temperatures:     56.62    99.50   139.57   160.84   211.56
          (Kelvin)            238.96   253.72   325.84   393.92   406.61
                              457.00   477.36   511.93   516.85   557.53
                              567.53   583.86   616.86   643.16   680.67
                              697.77   745.93   775.94   814.71   840.43
                              907.32   945.66   950.43   980.48  1004.88
                             1024.28  1058.03  1069.60  1120.30  1142.43
                             1148.03  1243.75  1258.39  1307.15  1368.98
                             1394.50  1453.44  1517.05  1553.70  1601.71
                             1656.28  1657.88  1708.08  1724.90  1746.22
                             1753.70  1796.06  1848.76  1874.65  1920.13
                             1952.84  1983.58  2028.25  2084.80  2107.66
                             2142.60  2199.09  2204.44  2249.63  2271.88
                             2344.57  2388.85  3777.32  4393.58  4471.50
                             4507.66  4548.90  4590.14  5369.55  5461.64

 Zero-point correction=                           0.184609 (Hartree/Particle)
 Thermal correction to Energy=                    0.199815
 Thermal correction to Enthalpy=                  0.200759
 Thermal correction to Gibbs Free Energy=         0.142608
 Sum of electronic and zero-point Energies=           -914.500638
 Sum of electronic and thermal Energies=              -914.485433
 Sum of electronic and thermal Enthalpies=            -914.484489
 Sum of electronic and thermal Free Energies=         -914.542640

                     E (Thermal)             CV                S
                      KCal/Mol        Cal/Mol-Kelvin    Cal/Mol-Kelvin
 Total                  125.386             60.717            122.389
 Electronic               0.000              0.000              0.000
 Translational            0.889              2.981             42.520
 Rotational               0.889              2.981             33.353
 Vibrational            123.608             54.755             46.516
 Vibration     1          0.594              1.981              5.291
 Vibration     2          0.598              1.969              4.177
 Vibration     3          0.603              1.951              3.514
 Vibration     4          0.607              1.940              3.238
 Vibration     5          0.617              1.906              2.710
 Vibration     6          0.624              1.884              2.479
 Vibration     7          0.628              1.871              2.367
 Vibration     8          0.650              1.801              1.907
 Vibration     9          0.676              1.722              1.572
 Vibration    10          0.682              1.706              1.518
 Vibration    11          0.704              1.640              1.322
 Vibration    12          0.714              1.612              1.251
 Vibration    13          0.731              1.563              1.140
 Vibration    14          0.734              1.556              1.125
 Vibration    15          0.756              1.497              1.010
 Vibration    16          0.761              1.482              0.983
 Vibration    17          0.771              1.458              0.942
 Vibration    18          0.790              1.408              0.863
 Vibration    19          0.806              1.367              0.805
 Vibration    20          0.830              1.310              0.729
 Vibration    21          0.841              1.283              0.697
 Vibration    22          0.873              1.209              0.614
 Vibration    23          0.894              1.163              0.567
 Vibration    24          0.922              1.104              0.511
 Vibration    25          0.941              1.066              0.478

 Optimization completed.
    -- Stationary point found.
 Normal termination of Gaussian 16 at Sun Jan  7 08:03:19 2024.
