 Gaussian 16, Revision A.03,
 Gaussian 16:  ES64L-G16RevA.03 25-Dec-2016

 ----------------------------------------------------------------
 #P UB3LYP/6-311++G(d,p) SCRF=(PCM,Solvent=n,n-DiMethylFormamide)
 ----------------------------------------------------------------

 -------
 Reduced
 -------
 Symbolic Z-matrix:
 Charge = -2 Multiplicity = 1

                         Standard orientation:
 ---------------------------------------------------------------------
 Center     Atomic      Atomic             Coordinates (Angstroms)
 Number     Number       Type             X           Y           Z
 ---------------------------------------------------------------------
      1          8           0        4.998117    0.754326   -0.015996
      2          6           0        3.708194    0.197630   -0.011161
      3          6           0        3.562554   -1.215947   -0.025573
      4          6           0        2.283891   -1.750704   -0.005345
      5          6           0        1.129877   -0.950051   -0.001611
      6          6           0       -0.184048   -1.597221    0.004105
      7          8           0       -0.275947   -2.858410    0.012650
      8          6           0       -1.336137   -0.691011    0.002776
      9          6           0       -2.681699   -1.175935    0.003811
     10          8           0       -2.944550   -2.551578    0.001068
     11          6           0       -3.749004   -0.302386    0.007159
     12          6           0       -3.569372    1.099652    0.003980
     13          6           0       -2.294563    1.672410    0.001615
     14          8           0       -2.113563    2.970220    0.000398
     15          6           0       -1.146140    0.750094    0.001075
     16          6           0        0.160669    1.308293   -0.005907
     17          8           0        0.341031    2.671610   -0.011303
     18          6           0        1.289932    0.484516   -0.006512
     19          6           0        2.620466    1.025008    0.006318
     20          1           0        5.585569    0.094401    0.372366
     21          1           0        4.441868   -1.854471   -0.090104
     22          1           0        2.126897   -2.824760   -0.011130
     23          1           0       -3.902992   -2.618094   -0.067003
     24          1           0       -4.762384   -0.711939    0.014646
     25          1           0       -4.426983    1.767447    0.006262
     26          1           0       -0.619677    3.032163   -0.006538
     27          1           0        2.749273    2.099813    0.038581
 ---------------------------------------------------------------------

 SCF Done:  E(UB3LYP) =  -914.948676005     A.U. after   16 cycles

 The electronic state is 1-A.
 Alpha  occ. eigenvalues --  -19.14220 -19.12434 -19.08727 -19.04215 -19.03003
 Alpha  occ. eigenvalues --  -10.21738 -10.19812 -10.19512 -10.18979 -10.18153
 Alpha  occ. eigenvalues --  -10.15717 -10.15477 -10.15183 -10.15082 -10.14809
 Alpha  occ. eigenvalues --  -10.14676 -10.14065 -10.14043 -10.12784  -1.04286
 Alpha  occ. eigenvalues --   -1.02938  -1.00542  -0.95717  -0.94858  -0.83581
 Alpha  occ. eigenvalues --   -0.80781  -0.75954  -0.73518  -0.71064  -0.69492
 Alpha  occ. eigenvalues --   -0.64921  -0.61227  -0.60820  -0.56454  -0.56045
 Alpha  occ. eigenvalues --   -0.52302  -0.52102  -0.49692  -0.47156  -0.46136
 Alpha  occ. eigenvalues --   -0.44369  -0.43127  -0.42609  -0.41364  -0.40840
 Alpha  occ. eigenvalues --   -0.40059  -0.39300  -0.38805  -0.37005  -0.36913
 Alpha  occ. eigenvalues --   -0.36643  -0.36087  -0.35302  -0.34750  -0.33225
 Alpha  occ. eigenvalues --   -0.32933  -0.32310  -0.31562  -0.30127  -0.26842
 Alpha  occ. eigenvalues --   -0.24700  -0.22970  -0.22059  -0.21300  -0.19940
 Alpha  occ. eigenvalues --   -0.17458  -0.11534
 Alpha virt. eigenvalues --   -0.02361  -0.00156   0.00255   0.00448   0.01392
 Alpha virt. eigenvalues --    0.01976   0.02425   0.03387   0.04288   0.04394
 Alpha virt. eigenvalues --    0.05050   0.05361   0.06190   0.06654   0.06894

  Beta  occ. eigenvalues --  -19.14220 -19.12434 -19.08727 -19.04215 -19.03003
  Beta  occ. eigenvalues --  -10.21738 -10.19812 -10.19512 -10.18979 -10.18153
  Beta  occ. eigenvalues --  -10.15717 -10.15477 -10.15183 -10.15082 -10.14809
  Beta  occ. eigenvalues --  -10.14676 -10.14065 -10.14043 -10.12784  -1.04286
  Beta  occ. eigenvalues --   -1.02938  -1.00542  -0.95717  -0.94858  -0.83581
  Beta  occ. eigenvalues --   -0.80781  -0.75954  -0.73518  -0.71064  -0.69492
  Beta  occ. eigenvalues --   -0.64921  -0.61227  -0.60820  -0.56454  -0.56045
  Beta  occ. eigenvalues --   -0.52302  -0.52102  -0.49692  -0.47156  -0.46136
  Beta  occ. eigenvalues --   -0.44369  -0.43127  -0.42609  -0.41364  -0.40840
  Beta  occ. eigenvalues --   -0.40059  -0.39300  -0.38805  -0.37005  -0.36913
  Beta  occ. eigenvalues --   -0.36643  -0.36087  -0.35302  -0.34750  -0.33225
  Beta  occ. eigenvalues --   -0.32933  -0.32310  -0.31562  -0.30127  -0.26842
  Beta  occ. eigenvalues --   -0.24700  -0.22970  -0.22059  -0.21300  -0.19940
  Beta  occ. eigenvalues --   -0.17458  -0.11534
  Beta virt. eigenvalues --   -0.02361  -0.00156   0.00255   0.00448   0.01392
  Beta virt. eigenvalues --    0.01976   0.02425   0.03387   0.04288   0.04394
  Beta virt. eigenvalues --    0.05050   0.05361   0.06190   0.06654   0.06894

 Mulliken charges and spin densities:
               1          2
     1  O   -0.326193   0.000000
     2  C   -0.610506  -0.000000
     3  C   -0.026928  -0.000000
     4  C   -0.106054  -0.000000
     5  C   -0.252076  -0.000000
     6  C   -0.295680   0.000000
     7  O   -0.580226   0.000000
     8  C    0.403519   0.000000
     9  C   -0.356370  -0.000000
    10  O   -0.292740   0.000000
    11  C   -0.236216   0.000000
    12  C   -0.167690  -0.000000
    13  C   -0.562548  -0.000000
    14  O   -0.668352  -0.000000
    15  C    0.759925   0.000000
    16  C   -0.082227   0.000000
    17  O   -0.533592  -0.000000
    18  C    0.611640   0.000000
    19  C   -0.427189  -0.000000
    20  H    0.287240  -0.000000
    21  H    0.178917   0.000000
    22  H    0.153487  -0.000000
    23  H    0.276276  -0.000000
    24  H    0.132442  -0.000000
    25  H    0.144119  -0.000000
    26  H    0.415901   0.000000
    27  H    0.161121   0.000000
 Sum of Mulliken charges =  -2.00000  -0.00000

 Dipole moment (field-independent basis, Debye):
    X=              5.0931    Y=             -3.5187    Z=              0.5717  Tot=              6.2168
 Quadrupole moment (field-independent basis, Debye-Ang):
   XX=           -137.3157   YY=           -181.0295   ZZ=           -120.9471
   XY=              4.4642   XZ=              4.7105   YZ=              0.6937

 Normal termination of Gaussian 16 at Tue Jan 16 06:22:47 2024.
