 Gaussian 16, Revision A.03,
 Gaussian 16:  ES64L-G16RevA.03 25-Dec-2016

 ----------------------------------------------------------------
 #P UB3LYP/6-311++G(d,p) SCRF=(PCM,Solvent=n,n-DiMethylFormamide)
 ----------------------------------------------------------------

 -------
 Reduced
 -------
 Symbolic Z-matrix:
 Charge = -2 Multiplicity = 1

                         Standard orientation:
 ---------------------------------------------------------------------
 Center     Atomic      Atomic             Coordinates (Angstroms)
 Number     Number       Type             X           Y           Z
 ---------------------------------------------------------------------
      1          6           0        2.005991   -2.073761   -0.094608
      2          6           0        3.382806   -2.077815    0.044189
      3          6           0        4.073149   -0.848823    0.195426
      4          6           0        1.255268   -0.875722   -0.088486
      5          6           0        1.955363    0.371786    0.056789
      6          6           0        3.362778    0.338190    0.197593
      7          6           0       -0.193605   -0.939689   -0.258248
      8          6           0       -0.839768    0.335620   -0.221788
      9          6           0       -0.157645    1.579457   -0.067187
     10          6           0        1.262593    1.654355    0.062494
     11          8           0       -0.800506   -2.063626   -0.412343
     12          8           0        1.911685    2.765377    0.196069
     13          1           0        1.444664   -2.995329   -0.214324
     14          1           0        3.932687   -3.017772    0.038931
     15          1           0        5.156640   -0.840516    0.306025
     16          1           0        3.858427    1.297955    0.307241
     17         16           0       -2.622771    0.367810   -0.500925
     18          6           0       -0.902872    2.890648   -0.021579
     19          1           0       -1.338832    3.163606   -0.995258
     20          1           0       -0.192082    3.670606    0.261578
     21          1           0       -1.739798    2.862689    0.688122
     22          6           0       -3.280969   -0.823185    0.745071
     23          6           0       -4.735869   -1.164660    0.430872
     24          1           0       -3.196508   -0.372384    1.739790
     25          1           0       -2.631576   -1.698342    0.677877
     26          1           0       -5.373237   -0.270589    0.413808
     27          1           0       -5.149232   -1.846448    1.184107
     28          1           0       -4.819572   -1.650852   -0.546120
 ---------------------------------------------------------------------

 SCF Done:  E(UB3LYP) =  -1051.69866656     A.U. after   19 cycles

 The electronic state is 1-A.
 Alpha  occ. eigenvalues --  -88.81296 -19.01567 -19.01031 -10.17242 -10.17089
 Alpha  occ. eigenvalues --  -10.16465 -10.15596 -10.14954 -10.14889 -10.14784
 Alpha  occ. eigenvalues --  -10.14494 -10.14389 -10.13651 -10.13552 -10.13149
 Alpha  occ. eigenvalues --  -10.12824  -7.89896  -5.86270  -5.85915  -5.85320
 Alpha  occ. eigenvalues --   -0.93552  -0.92641  -0.82413  -0.78917  -0.76234
 Alpha  occ. eigenvalues --   -0.72264  -0.72088  -0.69427  -0.64925  -0.62383
 Alpha  occ. eigenvalues --   -0.59014  -0.56391  -0.55106  -0.51759  -0.47575
 Alpha  occ. eigenvalues --   -0.46020  -0.44105  -0.42883  -0.42284  -0.40780
 Alpha  occ. eigenvalues --   -0.39764  -0.39335  -0.37692  -0.37279  -0.36457
 Alpha  occ. eigenvalues --   -0.36127  -0.35107  -0.34807  -0.34359  -0.33099
 Alpha  occ. eigenvalues --   -0.31961  -0.31339  -0.30777  -0.30094  -0.28664
 Alpha  occ. eigenvalues --   -0.22913  -0.22351  -0.22085  -0.19763  -0.19162
 Alpha  occ. eigenvalues --   -0.18657  -0.10955
 Alpha virt. eigenvalues --   -0.00659  -0.00096   0.00494   0.00855   0.01191
 Alpha virt. eigenvalues --    0.02165   0.02353   0.02819   0.03822   0.04267
 Alpha virt. eigenvalues --    0.04570   0.05027   0.05498   0.05782   0.06469

  Beta  occ. eigenvalues --  -88.81296 -19.01567 -19.01031 -10.17242 -10.17089
  Beta  occ. eigenvalues --  -10.16465 -10.15596 -10.14954 -10.14889 -10.14784
  Beta  occ. eigenvalues --  -10.14494 -10.14389 -10.13651 -10.13552 -10.13149
  Beta  occ. eigenvalues --  -10.12824  -7.89896  -5.86270  -5.85915  -5.85320
  Beta  occ. eigenvalues --   -0.93552  -0.92641  -0.82413  -0.78917  -0.76234
  Beta  occ. eigenvalues --   -0.72264  -0.72088  -0.69427  -0.64925  -0.62383
  Beta  occ. eigenvalues --   -0.59014  -0.56391  -0.55106  -0.51759  -0.47575
  Beta  occ. eigenvalues --   -0.46020  -0.44105  -0.42883  -0.42284  -0.40780
  Beta  occ. eigenvalues --   -0.39764  -0.39335  -0.37692  -0.37279  -0.36457
  Beta  occ. eigenvalues --   -0.36127  -0.35107  -0.34807  -0.34359  -0.33099
  Beta  occ. eigenvalues --   -0.31961  -0.31339  -0.30777  -0.30094  -0.28664
  Beta  occ. eigenvalues --   -0.22913  -0.22351  -0.22085  -0.19763  -0.19162
  Beta  occ. eigenvalues --   -0.18657  -0.10955
  Beta virt. eigenvalues --   -0.00659  -0.00096   0.00494   0.00855   0.01191
  Beta virt. eigenvalues --    0.02165   0.02353   0.02819   0.03822   0.04267
  Beta virt. eigenvalues --    0.04570   0.05027   0.05498   0.05782   0.06469

 Mulliken charges and spin densities:
               1          2
     1  C   -0.009707   0.000000
     2  C   -0.465540  -0.000000
     3  C   -0.444126  -0.000000
     4  C    0.078777  -0.000000
     5  C    0.329282   0.000000
     6  C    0.034578   0.000000
     7  C   -0.609128  -0.000000
     8  C    0.679434  -0.000000
     9  C    0.503375   0.000000
    10  C   -0.685225   0.000000
    11  O   -0.631446   0.000000
    12  O   -0.684279   0.000000
    13  H    0.154418   0.000000
    14  H    0.154609  -0.000000
    15  H    0.154200   0.000000
    16  H    0.146603  -0.000000
    17  S   -0.799100   0.000000
    18  C   -0.305380   0.000000
    19  H    0.142941   0.000000
    20  H    0.161998  -0.000000
    21  H    0.122229   0.000000
    22  C   -0.242512  -0.000000
    23  C   -0.590861   0.000000
    24  H    0.167101   0.000000
    25  H    0.212131   0.000000
    26  H    0.138687  -0.000000
    27  H    0.143485  -0.000000
    28  H    0.143454  -0.000000
 Sum of Mulliken charges =  -2.00000  -0.00000

 Dipole moment (field-independent basis, Debye):
    X=             -4.8818    Y=             -3.9155    Z=              2.3845  Tot=              6.6969
 Quadrupole moment (field-independent basis, Debye-Ang):
   XX=           -143.8712   YY=           -157.1329   ZZ=           -115.9881
   XY=            -17.1989   XZ=             -7.8155   YZ=             -5.4167

 Normal termination of Gaussian 16 at Sun Jan 21 09:04:08 2024.
