 Gaussian 16, Revision A.03,
 Gaussian 16:  ES64L-G16RevA.03 25-Dec-2016

 --------------------------------------
 #P UB3LYP/6-311++G(d,p) nosym opt freq
 --------------------------------------

 --------
 Oxidized
 --------
 Symbolic Z-matrix:
 Charge =  0 Multiplicity = 1

 SCF Done:  E(UB3LYP) =  -1165.01699840     A.U. after   17 cycles
 SCF Done:  E(UB3LYP) =  -1165.02978034     A.U. after   18 cycles
 SCF Done:  E(UB3LYP) =  -1165.03408293     A.U. after   18 cycles
 SCF Done:  E(UB3LYP) =  -1165.03477196     A.U. after   18 cycles
 SCF Done:  E(UB3LYP) =  -1165.03386781     A.U. after   18 cycles
 SCF Done:  E(UB3LYP) =  -1165.03501416     A.U. after   15 cycles
 SCF Done:  E(UB3LYP) =  -1165.03592521     A.U. after   14 cycles
 SCF Done:  E(UB3LYP) =  -1165.03609371     A.U. after   14 cycles
 SCF Done:  E(UB3LYP) =  -1165.03616177     A.U. after   14 cycles
 SCF Done:  E(UB3LYP) =  -1165.03621131     A.U. after   13 cycles
 SCF Done:  E(UB3LYP) =  -1165.03611709     A.U. after   17 cycles
 SCF Done:  E(UB3LYP) =  -1165.03644469     A.U. after   15 cycles
 SCF Done:  E(UB3LYP) =  -1165.03649286     A.U. after   14 cycles
 SCF Done:  E(UB3LYP) =  -1165.03649456     A.U. after   12 cycles
 SCF Done:  E(UB3LYP) =  -1165.03649498     A.U. after   10 cycles
 SCF Done:  E(UB3LYP) =  -1165.03649537     A.U. after   11 cycles
 SCF Done:  E(UB3LYP) =  -1165.03649554     A.U. after   11 cycles
 SCF Done:  E(UB3LYP) =  -1165.03649571     A.U. after   10 cycles
 SCF Done:  E(UB3LYP) =  -1165.03649576     A.U. after   10 cycles
 Optimization completed.
    -- Stationary point found.
 Normal termination of Gaussian 16 at Mon Dec 18 01:07:14 2023.

 ----------------------------------------------------------------------
 #P Geom=AllCheck Guess=TCheck SCRF=Check GenChk UB3LYP/6-311++G(d,p) F
 req
 ----------------------------------------------------------------------

 Structure from the checkpoint file:  "052.chk"
 --------
 Oxidized
 --------
 Charge =  0 Multiplicity = 1

                          Input orientation:
 ---------------------------------------------------------------------
 Center     Atomic      Atomic             Coordinates (Angstroms)
 Number     Number       Type             X           Y           Z
 ---------------------------------------------------------------------
      1          6           0        1.124738    2.855713    1.472951
      2          6           0       -0.236720    2.552066    0.939414
      3          6           0       -0.506513    1.345279    0.397921
      4          6           0        0.587225    0.334375    0.263584
      5          6           0        1.986346    0.674784    0.674575
      6          6           0        2.241419    1.886231    1.227950
      7          8           0        1.304051    3.878675    2.113026
      8          8           0        0.351427   -0.768852   -0.206989
      9          6           0       -1.244795    3.652339    1.107918
     10          6           0       -1.863524    0.933523   -0.108397
     11          6           0        3.013394   -0.394208    0.449652
     12         16           0        3.858690    2.263160    1.864409
     13          6           0        4.180863    3.993963    1.302260
     14          6           0        5.600209    4.358794    1.726765
     15          6           0        6.018591    5.725291    1.197509
     16          8           0        5.404674    6.365257    0.392522
     17          8           0        7.195803    6.199236    1.690465
     18          1           0       -0.849208    4.594058    0.719685
     19          1           0       -1.450244    3.824710    2.168826
     20          1           0       -2.181093    3.427103    0.601008
     21          1           0       -2.645957    1.158255    0.619412
     22          1           0       -1.875333   -0.133626   -0.322243
     23          1           0       -2.111870    1.463516   -1.033976
     24          1           0        2.742644   -1.004050   -0.411607
     25          1           0        3.062679   -1.068005    1.312722
     26          1           0        4.003650    0.041612    0.315832
     27          1           0        3.452190    4.659511    1.754320
     28          1           0        4.086329    4.036273    0.218255
     29          1           0        6.321920    3.623101    1.350145
     30          1           0        5.686857    4.352860    2.819392
     31          1           0        7.567209    5.590242    2.340515
 ---------------------------------------------------------------------

 SCF Done:  E(UB3LYP) =  -1165.03649576     A.U. after    1 cycles

 Alpha  occ. eigenvalues --  -88.86930 -19.18698 -19.13825 -19.13684 -19.12756
 Alpha  occ. eigenvalues --  -10.32410 -10.28785 -10.28286 -10.23789 -10.22253
 Alpha  occ. eigenvalues --  -10.21922 -10.21800 -10.21737 -10.21660 -10.18334
 Alpha  occ. eigenvalues --  -10.18119 -10.17912  -7.95538  -5.91936  -5.91542
 Alpha  occ. eigenvalues --   -5.90923  -1.12370  -1.07291  -1.06878  -1.04496
 Alpha  occ. eigenvalues --   -0.87803  -0.84714  -0.82450  -0.76380  -0.75713
 Alpha  occ. eigenvalues --   -0.73441  -0.69301  -0.66689  -0.64956  -0.62728
 Alpha  occ. eigenvalues --   -0.58485  -0.58264  -0.54676  -0.54210  -0.51150
 Alpha  occ. eigenvalues --   -0.48536  -0.47783  -0.47193  -0.46712  -0.45133
 Alpha  occ. eigenvalues --   -0.44354  -0.44152  -0.43974  -0.43384  -0.42814
 Alpha  occ. eigenvalues --   -0.42483  -0.41658  -0.40862  -0.40472  -0.40018
 Alpha  occ. eigenvalues --   -0.39621  -0.39146  -0.38582  -0.37922  -0.35045
 Alpha  occ. eigenvalues --   -0.34265  -0.30624  -0.29869  -0.29226  -0.28512
 Alpha  occ. eigenvalues --   -0.27456  -0.24564
 Alpha virt. eigenvalues --   -0.13123  -0.03381  -0.02859  -0.01898  -0.01554
 Alpha virt. eigenvalues --   -0.00684  -0.00218   0.00716   0.01321   0.01547
 Alpha virt. eigenvalues --    0.01982   0.02391   0.02989   0.03373   0.03793

  Beta  occ. eigenvalues --  -88.86930 -19.18698 -19.13825 -19.13684 -19.12756
  Beta  occ. eigenvalues --  -10.32410 -10.28785 -10.28286 -10.23789 -10.22253
  Beta  occ. eigenvalues --  -10.21922 -10.21800 -10.21737 -10.21660 -10.18334
  Beta  occ. eigenvalues --  -10.18119 -10.17912  -7.95538  -5.91936  -5.91542
  Beta  occ. eigenvalues --   -5.90923  -1.12370  -1.07291  -1.06878  -1.04496
  Beta  occ. eigenvalues --   -0.87803  -0.84714  -0.82450  -0.76380  -0.75713
  Beta  occ. eigenvalues --   -0.73441  -0.69301  -0.66689  -0.64956  -0.62728
  Beta  occ. eigenvalues --   -0.58485  -0.58264  -0.54676  -0.54210  -0.51150
  Beta  occ. eigenvalues --   -0.48536  -0.47783  -0.47193  -0.46712  -0.45133
  Beta  occ. eigenvalues --   -0.44354  -0.44152  -0.43974  -0.43384  -0.42814
  Beta  occ. eigenvalues --   -0.42483  -0.41658  -0.40862  -0.40472  -0.40018
  Beta  occ. eigenvalues --   -0.39621  -0.39146  -0.38582  -0.37922  -0.35045
  Beta  occ. eigenvalues --   -0.34265  -0.30624  -0.29869  -0.29226  -0.28512
  Beta  occ. eigenvalues --   -0.27456  -0.24564
  Beta virt. eigenvalues --   -0.13123  -0.03381  -0.02859  -0.01898  -0.01554
  Beta virt. eigenvalues --   -0.00684  -0.00218   0.00716   0.01321   0.01547
  Beta virt. eigenvalues --    0.01982   0.02391   0.02989   0.03373   0.03793

 Mulliken charges and spin densities:
               1          2
     1  C   -0.881205   0.000000
     2  C    0.951314   0.000000
     3  C    0.083698  -0.000000
     4  C   -1.587987  -0.000000
     5  C    0.432402  -0.000000
     6  C    1.701089   0.000000
     7  O   -0.193803   0.000000
     8  O   -0.201415  -0.000000
     9  C   -0.479177  -0.000000
    10  C   -0.519112   0.000000
    11  C   -0.183737   0.000000
    12  S   -0.546872  -0.000000
    13  C   -0.689339   0.000000
    14  C   -0.085845  -0.000000
    15  C   -0.127979   0.000000
    16  O   -0.238655  -0.000000
    17  O   -0.152312   0.000000
    18  H    0.176599   0.000000
    19  H    0.200009  -0.000000
    20  H    0.158863   0.000000
    21  H    0.156124   0.000000
    22  H    0.212906   0.000000
    23  H    0.177583   0.000000
    24  H    0.189386   0.000000
    25  H    0.199638   0.000000
    26  H    0.138320   0.000000
    27  H    0.238068  -0.000000
    28  H    0.240573   0.000000
    29  H    0.195800   0.000000
    30  H    0.179101   0.000000
    31  H    0.255963   0.000000
 Sum of Mulliken charges =  -0.00000   0.00000

 Dipole moment (field-independent basis, Debye):
    X=              0.0794    Y=             -1.9112    Z=              1.4916  Tot=              2.4257
 Quadrupole moment (field-independent basis, Debye-Ang):
   XX=            -88.6012   YY=           -146.0121   ZZ=           -105.7167
   XY=            -16.1468   XZ=             13.8090   YZ=              4.6289

  Exact polarizability: 206.217  30.557 211.054  26.724  29.819 130.900
 Approx polarizability: 263.315  43.388 368.715  44.886  72.569 229.380

                      1                      2                      3
                      A                      A                      A
 Frequencies --     13.6983                24.1790                32.3575
 Red. masses --      4.2419                 5.8039                 1.6051
 Frc consts  --      0.0005                 0.0020                 0.0010
 IR Inten    --      6.2582                 1.8608                 0.9086

                      4                      5                      6
                      A                      A                      A
 Frequencies --     33.5222                52.0297                56.2816
 Red. masses --      2.4759                 1.0456                 2.3443
 Frc consts  --      0.0016                 0.0017                 0.0044
 IR Inten    --      1.9444                 0.3078                 2.3205

                      7                      8                      9
                      A                      A                      A
 Frequencies --     65.6879                83.1765                93.4316
 Red. masses --      4.8254                 2.8134                 2.5190
 Frc consts  --      0.0123                 0.0115                 0.0130
 IR Inten    --      3.1355                 1.6304                 9.1795

                     10                     11                     12
                      A                      A                      A
 Frequencies --    107.3201               113.7930               180.3181
 Red. masses --      1.8951                 2.7767                 5.1166
 Frc consts  --      0.0129                 0.0212                 0.0980
 IR Inten    --      1.8045                 3.2808                11.1496

                     13                     14                     15
                      A                      A                      A
 Frequencies --    196.7044               201.4412               261.3664
 Red. masses --      5.8702                 4.9351                 7.0744
 Frc consts  --      0.1338                 0.1180                 0.2847
 IR Inten    --      0.3539                 1.1573                 7.3842

                     16                     17                     18
                      A                      A                      A
 Frequencies --    315.2429               318.3790               329.5218
 Red. masses --      2.9298                 4.3549                 2.6334
 Frc consts  --      0.1715                 0.2601                 0.1685
 IR Inten    --      1.7855                 2.3513                 0.3412

                     19                     20                     21
                      A                      A                      A
 Frequencies --    347.2849               388.1093               419.2276
 Red. masses --      5.5156                 5.2783                 5.7253
 Frc consts  --      0.3919                 0.4684                 0.5929
 IR Inten    --      1.0144                 0.4864                 2.4500

                     22                     23                     24
                      A                      A                      A
 Frequencies --    425.8061               433.4345               442.0726
 Red. masses --      6.0367                 6.8527                 1.2615
 Frc consts  --      0.6449                 0.7585                 0.1453
 IR Inten    --      8.5629                16.9010                98.6890

                     25                     26                     27
                      A                      A                      A
 Frequencies --    474.2773               519.5573               549.7902
 Red. masses --      3.8208                 8.0022                 4.3601
 Frc consts  --      0.5064                 1.2727                 0.7765
 IR Inten    --      2.8452                 2.4793                 0.3017

                     28                     29                     30
                      A                      A                      A
 Frequencies --    579.6152               589.1307               631.0569
 Red. masses --      2.0878                 5.0082                 7.4208
 Frc consts  --      0.4133                 1.0241                 1.7412
 IR Inten    --      3.5162                 5.0542                11.3758

                     31                     32                     33
                      A                      A                      A
 Frequencies --    691.6879               721.8750               748.4244
 Red. masses --      3.5843                 5.7117                 5.7200
 Frc consts  --      1.0104                 1.7536                 1.8877
 IR Inten    --      3.5590                21.8250                23.4671

                     34                     35                     36
                      A                      A                      A
 Frequencies --    787.3496               795.9364               800.1007
 Red. masses --      5.6682                 2.1001                 2.2875
 Frc consts  --      2.0703                 0.7839                 0.8628
 IR Inten    --     14.4922                11.2839                11.2332

                     37                     38                     39
                      A                      A                      A
 Frequencies --    867.6725               890.4892               948.4567
 Red. masses --      3.1183                 3.9677                 3.3685
 Frc consts  --      1.3832                 1.8537                 1.7853
 IR Inten    --     22.0424                16.5499                10.4539

                     40                     41                     42
                      A                      A                      A
 Frequencies --    996.0208              1009.2187              1024.1303
 Red. masses --      1.5753                 2.2051                 1.4299
 Frc consts  --      0.9208                 1.3232                 0.8836
 IR Inten    --      6.5833                29.5827                 5.1036

                     43                     44                     45
                      A                      A                      A
 Frequencies --   1045.2228              1059.3399              1059.8342
 Red. masses --      1.6055                 2.0740                 1.7393
 Frc consts  --      1.0334                 1.3713                 1.1511
 IR Inten    --     13.7967                 5.7430                 1.4711

                     46                     47                     48
                      A                      A                      A
 Frequencies --   1064.5589              1110.7677              1124.3172
 Red. masses --      2.3917                 3.2003                 2.0258
 Frc consts  --      1.5970                 2.3264                 1.5087
 IR Inten    --     35.5677                28.0159                66.5172

                     49                     50                     51
                      A                      A                      A
 Frequencies --   1127.9021              1158.1726              1233.6978
 Red. masses --      2.4318                 1.2404                 4.8403
 Frc consts  --      1.8227                 0.9803                 4.3405
 IR Inten    --      2.2302                 1.1093               109.7611

                     52                     53                     54
                      A                      A                      A
 Frequencies --   1245.7152              1280.4467              1285.3341
 Red. masses --      1.2260                 7.5012                 1.7380
 Frc consts  --      1.1209                 7.2461                 1.6917
 IR Inten    --     81.9702               305.5168               299.8320

                     55                     56                     57
                      A                      A                      A
 Frequencies --   1310.8331              1327.9746              1378.9175
 Red. masses --      1.1441                 4.3894                 1.7288
 Frc consts  --      1.1583                 4.5608                 1.9368
 IR Inten    --      4.0354                18.2646               116.8912

                     58                     59                     60
                      A                      A                      A
 Frequencies --   1406.7436              1409.6828              1415.7928
 Red. masses --      1.2783                 1.2469                 1.2546
 Frc consts  --      1.4904                 1.4599                 1.4816
 IR Inten    --     16.9593                19.2524                12.2150

                     61                     62                     63
                      A                      A                      A
 Frequencies --   1467.5204              1468.6082              1470.8811
 Red. masses --      1.0659                 1.0852                 1.0853
 Frc consts  --      1.3525                 1.3790                 1.3834
 IR Inten    --      8.8612                12.8899                 1.4080

                     64                     65                     66
                      A                      A                      A
 Frequencies --   1473.4500              1485.2916              1491.5816
 Red. masses --      1.0526                 1.0770                 1.0576
 Frc consts  --      1.3464                 1.3998                 1.3863
 IR Inten    --     17.8871                12.2414                14.3184

                     67                     68                     69
                      A                      A                      A
 Frequencies --   1502.0410              1502.3186              1615.4158
 Red. masses --      1.0740                 1.0619                 7.5863
 Frc consts  --      1.4277                 1.4121                11.6640
 IR Inten    --      4.0725                 4.7273                84.6525

                     70                     71                     72
                      A                      A                      A
 Frequencies --   1688.9825              1695.9329              1707.9270
 Red. masses --      8.3828                12.3639                12.5657
 Frc consts  --     14.0893                20.9518                21.5961
 IR Inten    --     11.1635               250.8443               220.1219

                     73                     74                     75
                      A                      A                      A
 Frequencies --   1846.5475              3015.5355              3027.0936
 Red. masses --     10.3878                 1.0595                 1.0480
 Frc consts  --     20.8687                 5.6767                 5.6581
 IR Inten    --    244.9052                18.7384                 7.3230

                     76                     77                     78
                      A                      A                      A
 Frequencies --   3030.5203              3039.6421              3050.6668
 Red. masses --      1.0441                 1.0405                 1.1011
 Frc consts  --      5.6497                 5.6640                 6.0374
 IR Inten    --     12.4640                 7.4632                 6.1196

                     79                     80                     81
                      A                      A                      A
 Frequencies --   3085.2714              3087.9400              3092.2882
 Red. masses --      1.0953                 1.0957                 1.0842
 Frc consts  --      6.1431                 6.1557                 6.1085
 IR Inten    --     16.3565                 1.9650                 8.2580

                     82                     83                     84
                      A                      A                      A
 Frequencies --   3095.8959              3138.1417              3139.4247
 Red. masses --      1.0609                 1.1032                 1.0984
 Frc consts  --      5.9911                 6.4009                 6.3786
 IR Inten    --      4.9839                 0.9621                10.8312

                     85                     86                     87
                      A                      A                      A
 Frequencies --   3142.5529              3171.3225              3805.4966
 Red. masses --      1.0992                 1.1054                 1.0662
 Frc consts  --      6.3959                 6.5503                 9.0975
 IR Inten    --      4.7714                 6.1858                52.3745

 - Thermochemistry -
 -------------------
 Temperature   298.150 Kelvin.  Pressure   1.00000 Atm.
 Atom     1 has atomic number  6 and mass  12.00000

 Molecular mass:   254.06128 amu.
 Principal axes and moments of inertia in atomic units:
                           1         2         3
     Eigenvalues --  2201.590879196.02996**********
           X            0.80310  -0.59246  -0.06333
           Y            0.58098   0.80223  -0.13747
           Z            0.13225   0.07361   0.98848
 This molecule is an asymmetric top.
 Rotational symmetry number  1.
 Warning -- assumption of classical behavior for rotation
           may cause significant error
 Rotational temperatures (Kelvin)      0.03934     0.00942     0.00808
 Rotational constants (GHZ):           0.81974     0.19625     0.16834
 Zero-point vibrational energy     627696.9 (Joules/Mol)
                                  150.02315 (Kcal/Mol)
 Warning -- explicit consideration of  29 degrees of freedom as
           vibrations may cause significant error
 Vibrational temperatures:     19.71    34.79    46.56    48.23    74.86
          (Kelvin)             80.98    94.51   119.67   134.43   154.41
                              163.72   259.44   283.01   289.83   376.05
                              453.56   458.08   474.11   499.67   558.40
                              603.17   612.64   623.62   636.04   682.38
                              747.53   791.03   833.94   847.63   907.95
                              995.18  1038.62  1076.82  1132.82  1145.17
                             1151.17  1248.39  1281.22  1364.62  1433.05
                             1452.04  1473.50  1503.84  1524.15  1524.87
                             1531.66  1598.15  1617.64  1622.80  1666.35
                             1775.02  1792.31  1842.28  1849.31  1886.00
                             1910.66  1983.95  2023.99  2028.22  2037.01
                             2111.43  2113.00  2116.27  2119.97  2137.00
                             2146.05  2161.10  2161.50  2324.22  2430.07
                             2440.07  2457.33  2656.77  4338.68  4355.31
                             4360.24  4373.37  4389.23  4439.02  4442.86
                             4449.11  4454.30  4515.09  4516.93  4521.43
                             4562.83  5475.26

 Zero-point correction=                           0.239077 (Hartree/Particle)
 Thermal correction to Energy=                    0.258346
 Thermal correction to Enthalpy=                  0.259290
 Thermal correction to Gibbs Free Energy=         0.186693
 Sum of electronic and zero-point Energies=          -1164.797419
 Sum of electronic and thermal Energies=             -1164.778150
 Sum of electronic and thermal Enthalpies=           -1164.777205
 Sum of electronic and thermal Free Energies=        -1164.849803

                     E (Thermal)             CV                S
                      KCal/Mol        Cal/Mol-Kelvin    Cal/Mol-Kelvin
 Total                  162.115             66.693            152.794
 Electronic               0.000              0.000              0.000
 Translational            0.889              2.981             42.497
 Rotational               0.889              2.981             33.739
 Vibrational            160.337             60.731             76.557
 Vibration     1          0.593              1.986              7.386
 Vibration     2          0.593              1.985              6.257
 Vibration     3          0.594              1.983              5.679
 Vibration     4          0.594              1.983              5.609
 Vibration     5          0.596              1.977              4.739
 Vibration     6          0.596              1.975              4.583
 Vibration     7          0.597              1.971              4.279
 Vibration     8          0.600              1.961              3.814
 Vibration     9          0.602              1.954              3.587
 Vibration    10          0.606              1.943              3.317
 Vibration    11          0.607              1.938              3.203
 Vibration    12          0.629              1.866              2.325
 Vibration    13          0.636              1.844              2.164
 Vibration    14          0.638              1.838              2.120
 Vibration    15          0.669              1.743              1.653
 Vibration    16          0.703              1.645              1.335
 Vibration    17          0.705              1.638              1.318
 Vibration    18          0.712              1.617              1.262
 Vibration    19          0.725              1.581              1.178
 Vibration    20          0.756              1.496              1.007
 Vibration    21          0.782              1.428              0.895
 Vibration    22          0.788              1.414              0.872
 Vibration    23          0.794              1.397              0.848
 Vibration    24          0.802              1.378              0.820
 Vibration    25          0.831              1.307              0.726
 Vibration    26          0.875              1.207              0.611
 Vibration    27          0.905              1.140              0.545
 Vibration    28          0.936              1.075              0.486
 Vibration    29          0.946              1.055              0.469

                           ! Non-Optimized Parameters !
 Normal termination of Gaussian 16 at Mon Dec 18 02:10:31 2023.
