 Gaussian 16, Revision A.03,
 Gaussian 16:  ES64L-G16RevA.03 25-Dec-2016

 ----------------------------------------------------------------
 #P UB3LYP/6-311++G(d,p) SCRF=(PCM,Solvent=n,n-DiMethylFormamide)
 ----------------------------------------------------------------

 ------------------
 Quinone PCM in DMF
 ------------------
 Symbolic Z-matrix:
 Charge =  0 Multiplicity = 1

                         Standard orientation:
 ---------------------------------------------------------------------
 Center     Atomic      Atomic             Coordinates (Angstroms)
 Number     Number       Type             X           Y           Z
 ---------------------------------------------------------------------
      1          6           0       -0.289946    1.395166   -0.000103
      2          6           0       -1.495526    0.702350   -0.000039
      3          6           0       -1.495553   -0.702387   -0.000061
      4          6           0        0.918261    0.702308   -0.000114
      5          6           0        0.918226   -0.702334   -0.000140
      6          6           0       -0.289973   -1.395200   -0.000138
      7          6           0        2.202607    1.463527   -0.000123
      8          6           0        3.456007    0.670187    0.000377
      9          6           0        3.455995   -0.670170    0.000359
     10          6           0        2.202595   -1.463530   -0.000128
     11          8           0        2.234996    2.681915   -0.000243
     12          8           0        2.235032   -2.681918   -0.000202
     13          1           0       -0.280298    2.477620   -0.000125
     14          1           0       -0.280246   -2.477648   -0.000179
     15         17           0       -2.983631   -1.606211    0.000093
     16         17           0       -2.983583    1.606243    0.000097
     17          1           0        4.373420    1.248724    0.000658
     18          1           0        4.373399   -1.248722    0.000635
 ---------------------------------------------------------------------

 SCF Done:  E(UB3LYP) =  -1454.50518606     A.U. after   15 cycles

 The electronic state is 1-A.
 Alpha  occ. eigenvalues -- -101.57957-101.57957 -19.14689 -19.14688 -10.29558
 Alpha  occ. eigenvalues --  -10.29557 -10.27741 -10.27692 -10.22517 -10.22467
 Alpha  occ. eigenvalues --  -10.22068 -10.22067 -10.22031 -10.21949  -9.49418
 Alpha  occ. eigenvalues --   -9.49417  -7.25897  -7.25897  -7.24908  -7.24908
 Alpha  occ. eigenvalues --   -7.24834  -7.24834  -1.08021  -1.07843  -0.94443
 Alpha  occ. eigenvalues --   -0.88556  -0.88449  -0.84039  -0.79020  -0.77003
 Alpha  occ. eigenvalues --   -0.71029  -0.66686  -0.64971  -0.61021  -0.55318
 Alpha  occ. eigenvalues --   -0.54199  -0.52858  -0.49880  -0.48121  -0.47708
 Alpha  occ. eigenvalues --   -0.47188  -0.46751  -0.44955  -0.44576  -0.43346
 Alpha  occ. eigenvalues --   -0.43013  -0.41318  -0.40253  -0.37104  -0.35720
 Alpha  occ. eigenvalues --   -0.35133  -0.33193  -0.31734  -0.29974  -0.28870
 Alpha  occ. eigenvalues --   -0.28848  -0.27777
 Alpha virt. eigenvalues --   -0.13766  -0.07416  -0.04986  -0.02262  -0.00465
 Alpha virt. eigenvalues --    0.00821   0.01137   0.01155   0.02215   0.03440
 Alpha virt. eigenvalues --    0.03451   0.03769   0.04197   0.04611   0.06494

  Beta  occ. eigenvalues -- -101.57957-101.57957 -19.14689 -19.14688 -10.29558
  Beta  occ. eigenvalues --  -10.29557 -10.27741 -10.27692 -10.22517 -10.22467
  Beta  occ. eigenvalues --  -10.22068 -10.22067 -10.22031 -10.21949  -9.49418
  Beta  occ. eigenvalues --   -9.49417  -7.25897  -7.25897  -7.24908  -7.24908
  Beta  occ. eigenvalues --   -7.24834  -7.24834  -1.08021  -1.07843  -0.94443
  Beta  occ. eigenvalues --   -0.88556  -0.88449  -0.84039  -0.79020  -0.77003
  Beta  occ. eigenvalues --   -0.71029  -0.66686  -0.64971  -0.61021  -0.55318
  Beta  occ. eigenvalues --   -0.54199  -0.52858  -0.49880  -0.48121  -0.47708
  Beta  occ. eigenvalues --   -0.47188  -0.46751  -0.44955  -0.44576  -0.43346
  Beta  occ. eigenvalues --   -0.43013  -0.41318  -0.40253  -0.37104  -0.35720
  Beta  occ. eigenvalues --   -0.35133  -0.33193  -0.31734  -0.29974  -0.28870
  Beta  occ. eigenvalues --   -0.28848  -0.27777
  Beta virt. eigenvalues --   -0.13766  -0.07416  -0.04986  -0.02262  -0.00465
  Beta virt. eigenvalues --    0.00821   0.01137   0.01155   0.02215   0.03440
  Beta virt. eigenvalues --    0.03451   0.03769   0.04197   0.04611   0.06494

 Mulliken charges and spin densities:
               1          2
     1  C   -0.513914   0.000000
     2  C    0.629628  -0.000000
     3  C    0.629595   0.000000
     4  C   -0.328842  -0.000000
     5  C   -0.328725   0.000000
     6  C   -0.513826   0.000000
     7  C   -0.754221   0.000000
     8  C    0.148138  -0.000000
     9  C    0.148182   0.000000
    10  C   -0.754262   0.000000
    11  O   -0.272909  -0.000000
    12  O   -0.272907   0.000000
    13  H    0.238307   0.000000
    14  H    0.238299  -0.000000
    15  Cl   0.610106  -0.000000
    16  Cl   0.610116   0.000000
    17  H    0.243618   0.000000
    18  H    0.243617  -0.000000
 Sum of Mulliken charges =  -0.00000  -0.00000

 Dipole moment (field-independent basis, Debye):
    X=              1.4254    Y=             -0.0001    Z=              0.0010  Tot=              1.4254
 Quadrupole moment (field-independent basis, Debye-Ang):
   XX=            -86.2141   YY=           -109.7688   ZZ=            -93.2102
   XY=              0.0005   XZ=              0.0039   YZ=              0.0004

 Normal termination of Gaussian 16 at Sun Jan 21 07:52:12 2024.
