 Gaussian 16, Revision A.03,
 Gaussian 16:  ES64L-G16RevA.03 25-Dec-2016

 ----------------------------------------------------------------------
 #P UB3LYP/6-311++G(d,p) nosym opt freq SCRF=(PCM,Solvent=n,n-DiMethylF
 ormamide)
 ----------------------------------------------------------------------

 --------
 Oxidized
 --------
 Symbolic Z-matrix:
 Charge =  0 Multiplicity = 1

 SCF Done:  E(UB3LYP) =  -846.277642234     A.U. after   14 cycles
 SCF Done:  E(UB3LYP) =  -846.277767855     A.U. after   11 cycles
 SCF Done:  E(UB3LYP) =  -846.277782362     A.U. after   10 cycles
 Optimization completed.
    -- Stationary point found.
 Normal termination of Gaussian 16 at Sat Feb 10 16:05:07 2024.

 ----------------------------------------------------------------------
 #P Geom=AllCheck Guess=TCheck SCRF=Check GenChk UB3LYP/6-311++G(d,p) F
 req
 ----------------------------------------------------------------------

 Structure from the checkpoint file:  "132.chk"
 --------
 Oxidized
 --------
 Charge =  0 Multiplicity = 1

                          Input orientation:
 ---------------------------------------------------------------------
 Center     Atomic      Atomic             Coordinates (Angstroms)
 Number     Number       Type             X           Y           Z
 ---------------------------------------------------------------------
      1          6           0        6.898325   -1.588501   -0.204400
      2          6           0        7.475837   -0.649536   -1.058212
      3          6           0        6.645440    0.313553   -1.679745
      4          6           0        5.275959    0.293173   -1.418567
      5          6           0        4.701297   -0.649312   -0.562336
      6          6           0        5.525585   -1.605592    0.054436
      7          6           0        4.965049   -2.631511    0.974341
      8          6           0        3.497428   -2.604663    1.215793
      9          6           0        2.673137   -1.648382    0.599017
     10          6           0        3.233658   -0.622536   -0.320978
     11          6           0        2.922780   -3.547081    2.072101
     12          6           0        1.553311   -3.567391    2.333370
     13          6           0        0.722918   -2.604306    1.711839
     14          6           0        1.300415   -1.665411    0.857933
     15          8           0        5.684816   -3.466319    1.513219
     16          8           0        2.513886    0.212238   -0.859901
     17          6           0        0.974857   -4.601234    3.263567
     18          6           0       -0.762024   -2.586995    1.963403
     19          6           0        8.960795   -0.666770   -1.309689
     20          6           0        7.223913    1.347469   -2.609851
     21          1           0        7.521245   -2.331897    0.278614
     22          1           0        4.627523    1.024021   -1.886852
     23          1           0        3.571213   -4.277933    2.540385
     24          1           0        0.677489   -0.922025    0.374913
     25          1           0        1.752472   -5.260743    3.650024
     26          1           0        0.226380   -5.217033    2.755101
     27          1           0        0.471752   -4.131250    4.114450
     28          1           0       -1.224998   -3.533542    1.667281
     29          1           0       -1.245124   -1.783202    1.407074
     30          1           0       -0.982125   -2.446836    3.026374
     31          1           0        9.443890   -1.470602   -0.753411
     32          1           0        9.423716    0.279764   -1.013439
     33          1           0        9.180964   -0.806808   -2.372660
     34          1           0        7.727051    0.877544   -3.460748
     35          1           0        7.972366    1.963242   -2.101322
     36          1           0        6.446303    2.006992   -2.996292
 ---------------------------------------------------------------------

 SCF Done:  E(UB3LYP) =  -846.277782362     A.U. after    1 cycles

 Alpha  occ. eigenvalues --  -19.12664 -19.12663 -10.27912 -10.27911 -10.20414
 Alpha  occ. eigenvalues --  -10.20414 -10.20366 -10.20366 -10.20269 -10.20267
 Alpha  occ. eigenvalues --  -10.20217 -10.20217 -10.19115 -10.19115 -10.19113
 Alpha  occ. eigenvalues --  -10.19112 -10.17359 -10.17359 -10.17358 -10.17358
 Alpha  occ. eigenvalues --   -1.05945  -1.05760  -0.89358  -0.88408  -0.82879
 Alpha  occ. eigenvalues --   -0.79764  -0.78664  -0.78581  -0.73015  -0.72319
 Alpha  occ. eigenvalues --   -0.71961  -0.68618  -0.66104  -0.63232  -0.61279
 Alpha  occ. eigenvalues --   -0.60881  -0.58305  -0.53949  -0.53027  -0.51006
 Alpha  occ. eigenvalues --   -0.48320  -0.47604  -0.46584  -0.45697  -0.45356
 Alpha  occ. eigenvalues --   -0.44717  -0.44633  -0.44605  -0.43722  -0.43689
 Alpha  occ. eigenvalues --   -0.42792  -0.41560  -0.40869  -0.40767  -0.39821
 Alpha  occ. eigenvalues --   -0.39711  -0.39560  -0.39513  -0.37356  -0.37124
 Alpha  occ. eigenvalues --   -0.36160  -0.36061  -0.35473  -0.35040  -0.28458
 Alpha  occ. eigenvalues --   -0.27369  -0.27198  -0.27194  -0.26935  -0.25723
 Alpha virt. eigenvalues --   -0.11504  -0.06821  -0.03033  -0.02177  -0.00950
 Alpha virt. eigenvalues --   -0.00473   0.00732   0.01053   0.01488   0.02773
 Alpha virt. eigenvalues --    0.03218   0.03234   0.03315   0.03323   0.03335

  Beta  occ. eigenvalues --  -19.12664 -19.12663 -10.27912 -10.27911 -10.20414
  Beta  occ. eigenvalues --  -10.20414 -10.20366 -10.20366 -10.20269 -10.20267
  Beta  occ. eigenvalues --  -10.20217 -10.20217 -10.19115 -10.19115 -10.19113
  Beta  occ. eigenvalues --  -10.19112 -10.17359 -10.17359 -10.17358 -10.17358
  Beta  occ. eigenvalues --   -1.05945  -1.05760  -0.89358  -0.88408  -0.82879
  Beta  occ. eigenvalues --   -0.79764  -0.78664  -0.78581  -0.73015  -0.72319
  Beta  occ. eigenvalues --   -0.71961  -0.68618  -0.66104  -0.63232  -0.61279
  Beta  occ. eigenvalues --   -0.60881  -0.58305  -0.53949  -0.53027  -0.51006
  Beta  occ. eigenvalues --   -0.48320  -0.47604  -0.46584  -0.45697  -0.45356
  Beta  occ. eigenvalues --   -0.44717  -0.44633  -0.44605  -0.43722  -0.43689
  Beta  occ. eigenvalues --   -0.42792  -0.41560  -0.40869  -0.40767  -0.39821
  Beta  occ. eigenvalues --   -0.39711  -0.39560  -0.39513  -0.37356  -0.37124
  Beta  occ. eigenvalues --   -0.36160  -0.36061  -0.35473  -0.35040  -0.28458
  Beta  occ. eigenvalues --   -0.27369  -0.27198  -0.27194  -0.26935  -0.25723
  Beta virt. eigenvalues --   -0.11504  -0.06821  -0.03033  -0.02177  -0.00950
  Beta virt. eigenvalues --   -0.00473   0.00732   0.01053   0.01488   0.02773
  Beta virt. eigenvalues --    0.03218   0.03234   0.03315   0.03323   0.03335

 Mulliken charges and spin densities:
               1          2
     1  C   -0.138831   0.000000
     2  C    0.368444  -0.000000
     3  C    0.368260  -0.000000
     4  C   -0.138680   0.000000
     5  C    0.125244  -0.000000
     6  C    0.125345   0.000000
     7  C   -0.805836  -0.000000
     8  C    0.125208  -0.000000
     9  C    0.125307   0.000000
    10  C   -0.805827   0.000000
    11  C   -0.138702  -0.000000
    12  C    0.368274  -0.000000
    13  C    0.368462   0.000000
    14  C   -0.138855   0.000000
    15  O   -0.277557   0.000000
    16  O   -0.277557   0.000000
    17  C   -0.478212   0.000000
    18  C   -0.478229   0.000000
    19  C   -0.478229   0.000000
    20  C   -0.478207   0.000000
    21  H    0.147311   0.000000
    22  H    0.147499   0.000000
    23  H    0.147499  -0.000000
    24  H    0.147310  -0.000000
    25  H    0.178189   0.000000
    26  H    0.169595  -0.000000
    27  H    0.169868  -0.000000
    28  H    0.169760   0.000000
    29  H    0.178116  -0.000000
    30  H    0.169753  -0.000000
    31  H    0.178115  -0.000000
    32  H    0.169764   0.000000
    33  H    0.169748   0.000000
    34  H    0.169872  -0.000000
    35  H    0.169591  -0.000000
    36  H    0.178188   0.000000
 Sum of Mulliken charges =  -0.00000  -0.00000

 Dipole moment (field-independent basis, Debye):
    X=              0.0001    Y=              0.0003    Z=              0.0004  Tot=              0.0006
 Quadrupole moment (field-independent basis, Debye-Ang):
   XX=            -91.3372   YY=           -117.5395   ZZ=           -111.2570
   XY=             21.2219   XZ=            -21.9895   YZ=             -5.3280

  Exact polarizability: 417.421  22.182 292.240 -63.826-109.882 259.031
 Approx polarizability: 453.258  -9.139 346.213 -39.913-123.850 295.397

                      1                      2                      3
                      A                      A                      A
 Frequencies --     29.2794                64.8249                82.7786
 Red. masses --      5.5206                 3.1937                 4.8697
 Frc consts  --      0.0028                 0.0079                 0.0197
 IR Inten    --      9.2639                 0.0028                 0.0000

                      4                      5                      6
                      A                      A                      A
 Frequencies --    115.0488               126.5701               126.6692
 Red. masses --      5.1742                 1.0383                 1.0371
 Frc consts  --      0.0404                 0.0098                 0.0098
 IR Inten    --      2.1652                 0.0077                 0.0000

                      7                      8                      9
                      A                      A                      A
 Frequencies --    129.4126               143.5884               170.6273
 Red. masses --      2.6677                 3.9560                 1.1005
 Frc consts  --      0.0263                 0.0481                 0.0189
 IR Inten    --      0.0000                 2.5163                 3.1582

                     10                     11                     12
                      A                      A                      A
 Frequencies --    178.4718               213.2054               225.2613
 Red. masses --      1.2033                 3.6655                 3.4172
 Frc consts  --      0.0226                 0.0982                 0.1022
 IR Inten    --      0.0000                 0.0000                 0.0015

                     13                     14                     15
                      A                      A                      A
 Frequencies --    229.0164               272.7707               292.6491
 Red. masses --      5.0146                 3.5469                 3.9364
 Frc consts  --      0.1550                 0.1555                 0.1986
 IR Inten    --      0.0000                 0.0000                11.0647

                     16                     17                     18
                      A                      A                      A
 Frequencies --    302.4183               324.0418               356.5357
 Red. masses --      2.5802                 3.4136                 4.5232
 Frc consts  --      0.1390                 0.2112                 0.3388
 IR Inten    --      3.5725                 0.0000                 0.0000

                     19                     20                     21
                      A                      A                      A
 Frequencies --    359.7294               373.6163               393.0702
 Red. masses --      6.7260                10.0438                 3.7705
 Frc consts  --      0.5128                 0.8260                 0.3432
 IR Inten    --      0.0000                40.6045                 0.4390

                     22                     23                     24
                      A                      A                      A
 Frequencies --    438.7895               451.7135               472.9838
 Red. masses --      2.8751                 2.9090                12.7004
 Frc consts  --      0.3261                 0.3497                 1.6740
 IR Inten    --     14.9065                 0.0000                 0.0000

                     25                     26                     27
                      A                      A                      A
 Frequencies --    491.6880               521.2783               568.7866
 Red. masses --      3.3467                 5.9915                 3.5651
 Frc consts  --      0.4767                 0.9592                 0.6795
 IR Inten    --      0.0000                 0.0000                 1.2604

                     28                     29                     30
                      A                      A                      A
 Frequencies --    596.3757               601.9320               604.1002
 Red. masses --      4.5138                 5.6900                 6.4324
 Frc consts  --      0.9459                 1.2147                 1.3831
 IR Inten    --      0.0021                 0.0000                49.8502

                     31                     32                     33
                      A                      A                      A
 Frequencies --    688.9788               713.8588               722.0597
 Red. masses --      3.5695                 6.6879                 4.1227
 Frc consts  --      0.9983                 2.0080                 1.2664
 IR Inten    --      0.0000                 0.0000                 0.5273

                     34                     35                     36
                      A                      A                      A
 Frequencies --    722.5434               756.1007               759.3417
 Red. masses --      5.2851                 4.9783                 5.3242
 Frc consts  --      1.6257                 1.6768                 1.8088
 IR Inten    --      1.3869                13.8368                50.9750

                     37                     38                     39
                      A                      A                      A
 Frequencies --    772.6948               795.5977               805.2107
 Red. masses --      3.8944                 5.9492                 5.4111
 Frc consts  --      1.3700                 2.2187                 2.0671
 IR Inten    --      0.0000                 0.0000                 0.0000

                     40                     41                     42
                      A                      A                      A
 Frequencies --    921.7838               923.8879               931.5604
 Red. masses --      1.3138                 1.3139                 1.4077
 Frc consts  --      0.6577                 0.6608                 0.7197
 IR Inten    --      0.0000                 0.0157                 0.0000

                     43                     44                     45
                      A                      A                      A
 Frequencies --    934.8320               983.2458              1012.2705
 Red. masses --      1.4606                 2.1088                 2.8778
 Frc consts  --      0.7521                 1.2012                 1.7374
 IR Inten    --     32.5240               234.6414                13.7291

                     46                     47                     48
                      A                      A                      A
 Frequencies --   1013.9866              1031.5391              1033.0429
 Red. masses --      1.3861                 1.7876                 1.5507
 Frc consts  --      0.8397                 1.1207                 0.9751
 IR Inten    --      0.0000                 2.8636                 0.0000

                     49                     50                     51
                      A                      A                      A
 Frequencies --   1045.5895              1046.3044              1050.2758
 Red. masses --      1.4728                 1.4759                 2.1304
 Frc consts  --      0.9487                 0.9520                 1.3846
 IR Inten    --      0.0000                31.7618                 9.5766

                     52                     53                     54
                      A                      A                      A
 Frequencies --   1067.8645              1068.0049              1150.2002
 Red. masses --      1.6457                 1.6499                 6.0883
 Frc consts  --      1.1057                 1.1088                 4.7456
 IR Inten    --      0.0000                 0.0035                 0.0000

                     55                     56                     57
                      A                      A                      A
 Frequencies --   1176.6058              1206.1809              1217.5434
 Red. masses --      1.5328                 5.4082                 1.8336
 Frc consts  --      1.2503                 4.6358                 1.6015
 IR Inten    --      0.0000                 0.1018               157.5455

                     58                     59                     60
                      A                      A                      A
 Frequencies --   1222.3030              1265.0854              1271.3793
 Red. masses --      5.0235                 5.8468                 1.3553
 Frc consts  --      4.4219                 5.5133                 1.2907
 IR Inten    --      0.0000                 0.0000                 0.0000

                     61                     62                     63
                      A                      A                      A
 Frequencies --   1277.1495              1316.0803              1347.0576
 Red. masses --      1.3216                 8.5625                 6.4436
 Frc consts  --      1.2701                 8.7380                 6.8889
 IR Inten    --     33.3674              1609.4911               140.1430

                     64                     65                     66
                      A                      A                      A
 Frequencies --   1357.2002              1403.9045              1406.7651
 Red. masses --      6.6401                 1.7006                 1.2478
 Frc consts  --      7.2063                 1.9748                 1.4549
 IR Inten    --      0.0000                27.8758                 0.0000

                     67                     68                     69
                      A                      A                      A
 Frequencies --   1411.4293              1414.6420              1414.7256
 Red. masses --      2.2375                 1.2435                 1.2566
 Frc consts  --      2.6262                 1.4661                 1.4818
 IR Inten    --     21.3797                 0.0006                28.0967

                     70                     71                     72
                      A                      A                      A
 Frequencies --   1435.2783              1468.4086              1468.4147
 Red. masses --      3.2571                 1.0438                 1.0438
 Frc consts  --      3.9533                 1.3260                 1.3260
 IR Inten    --      0.0000                 0.0023                 0.0000

                     73                     74                     75
                      A                      A                      A
 Frequencies --   1481.5397              1481.5426              1484.5543
 Red. masses --      1.0434                 1.0429                 1.1797
 Frc consts  --      1.3494                 1.3487                 1.5318
 IR Inten    --     51.3198                 7.0000                 2.7371

                     76                     77                     78
                      A                      A                      A
 Frequencies --   1485.5280              1485.7369              1488.2298
 Red. masses --      1.1521                 1.1475                 1.3275
 Frc consts  --      1.4979                 1.4923                 1.7323
 IR Inten    --      3.6445                 0.0000                 0.0000

                     79                     80                     81
                      A                      A                      A
 Frequencies --   1514.6939              1519.9854              1582.7090
 Red. masses --      3.0360                 2.9516                 7.6169
 Frc consts  --      4.1040                 4.0177                11.2416
 IR Inten    --      1.9972                 0.0000                34.1395

                     82                     83                     84
                      A                      A                      A
 Frequencies --   1597.1833              1612.8944              1630.0781
 Red. masses --      8.6047                 6.5559                 5.9292
 Frc consts  --     12.9328                10.0483                 9.2825
 IR Inten    --      0.0000               944.4410                 0.0000

                     85                     86                     87
                      A                      A                      A
 Frequencies --   1682.1896              1697.6257              3024.7467
 Red. masses --     12.5216                10.7562                 1.0380
 Frc consts  --     20.8766                18.2638                 5.5951
 IR Inten    --      0.0000               552.9457               109.5344

                     88                     89                     90
                      A                      A                      A
 Frequencies --   3024.8428              3025.3933              3025.4042
 Red. masses --      1.0380                 1.0386                 1.0386
 Frc consts  --      5.5956                 5.6008                 5.6007
 IR Inten    --      0.0018                22.6471                 0.3475

                     91                     92                     93
                      A                      A                      A
 Frequencies --   3069.6207              3069.6278              3072.6202
 Red. masses --      1.0995                 1.0995                 1.0997
 Frc consts  --      6.1039                 6.1039                 6.1170
 IR Inten    --      2.4125                74.5581                 0.0900

                     94                     95                     96
                      A                      A                      A
 Frequencies --   3072.6229              3114.3710              3114.3733
 Red. masses --      1.0997                 1.1005                 1.1005
 Frc consts  --      6.1170                 6.2890                 6.2890
 IR Inten    --      0.0917                 0.1807                96.4518

                     97                     98                     99
                      A                      A                      A
 Frequencies --   3115.4484              3115.4636              3187.5741
 Red. masses --      1.1000                 1.1000                 1.0899
 Frc consts  --      6.2904                 6.2904                 6.5244
 IR Inten    --     12.3974                 0.0133                 0.0000

                    100                    101                    102
                      A                      A                      A
 Frequencies --   3187.8599              3189.1363              3189.7748
 Red. masses --      1.0901                 1.0901                 1.0904
 Frc consts  --      6.5270                 6.5325                 6.5369
 IR Inten    --     13.6550                18.4501                 0.0000

 - Thermochemistry -
 -------------------
 Temperature   298.150 Kelvin.  Pressure   1.00000 Atm.
 Atom     1 has atomic number  6 and mass  12.00000

 Molecular mass:   264.11503 amu.
 Principal axes and moments of inertia in atomic units:
                           1         2         3
     Eigenvalues --  2142.696459345.15050**********
           X            0.79792  -0.58668   0.13834
           Y            0.39311   0.68048   0.61839
           Z           -0.45694  -0.43904   0.77360
 This molecule is an asymmetric top.
 Rotational symmetry number  1.
 Warning -- assumption of classical behavior for rotation
           may cause significant error
 Rotational temperatures (Kelvin)      0.04042     0.00927     0.00757
 Rotational constants (GHZ):           0.84228     0.19312     0.15771
 Zero-point vibrational energy     757424.8 (Joules/Mol)
                                  181.02886 (Kcal/Mol)
 Warning -- explicit consideration of  30 degrees of freedom as
           vibrations may cause significant error
 Vibrational temperatures:     42.13    93.27   119.10   165.53   182.11
          (Kelvin)            182.25   186.20   206.59   245.49   256.78
                              306.76   324.10   329.50   392.46   421.06
                              435.11   466.22   512.98   517.57   537.55
                              565.54   631.32   649.91   680.52   707.43
                              750.00   818.36   858.05   866.05   869.17
                              991.29  1027.08  1038.88  1039.58  1087.86
                             1092.52  1111.74  1144.69  1158.52  1326.24
                             1329.27  1340.31  1345.01  1414.67  1456.43
                             1458.90  1484.15  1486.32  1504.37  1505.40
                             1511.11  1536.42  1536.62  1654.88  1692.87
                             1735.43  1751.77  1758.62  1820.18  1829.23
                             1837.53  1893.55  1938.12  1952.71  2019.91
                             2024.02  2030.73  2035.35  2035.47  2065.05
                             2112.71  2112.72  2131.61  2131.61  2135.94
                             2137.34  2137.64  2141.23  2179.31  2186.92
                             2277.17  2297.99  2320.60  2345.32  2420.30
                             2442.50  4351.94  4352.07  4352.87  4352.88
                             4416.50  4416.51  4420.82  4420.82  4480.89
                             4480.89  4482.44  4482.46  4586.21  4586.62
                             4588.46  4589.37

 Zero-point correction=                           0.288488 (Hartree/Particle)
 Thermal correction to Energy=                    0.306530
 Thermal correction to Enthalpy=                  0.307474
 Thermal correction to Gibbs Free Energy=         0.243007
 Sum of electronic and zero-point Energies=           -845.989295
 Sum of electronic and thermal Energies=              -845.971252
 Sum of electronic and thermal Enthalpies=            -845.970308
 Sum of electronic and thermal Free Energies=         -846.034775

                     E (Thermal)             CV                S
                      KCal/Mol        Cal/Mol-Kelvin    Cal/Mol-Kelvin
 Total                  192.351             69.745            135.683
 Electronic               0.000              0.000              0.000
 Translational            0.889              2.981             42.613
 Rotational               0.889              2.981             33.793
 Vibrational            190.573             63.783             59.277
 Vibration     1          0.593              1.984              5.878
 Vibration     2          0.597              1.971              4.305
 Vibration     3          0.600              1.961              3.824
 Vibration     4          0.608              1.937              3.182
 Vibration     5          0.611              1.927              2.998
 Vibration     6          0.611              1.926              2.996
 Vibration     7          0.612              1.924              2.955
 Vibration     8          0.616              1.910              2.755
 Vibration     9          0.626              1.879              2.429
 Vibration    10          0.629              1.869              2.344
 Vibration    11          0.644              1.821              2.016
 Vibration    12          0.650              1.803              1.916
 Vibration    13          0.652              1.797              1.887
 Vibration    14          0.676              1.724              1.579
 Vibration    15          0.688              1.687              1.459
 Vibration    16          0.694              1.669              1.403
 Vibration    17          0.709              1.627              1.290
 Vibration    18          0.732              1.562              1.137
 Vibration    19          0.734              1.555              1.123
 Vibration    20          0.745              1.526              1.065
 Vibration    21          0.760              1.485              0.988
 Vibration    22          0.799              1.386              0.830
 Vibration    23          0.810              1.357              0.791
 Vibration    24          0.830              1.310              0.729
 Vibration    25          0.847              1.268              0.679
 Vibration    26          0.876              1.203              0.607
 Vibration    27          0.925              1.099              0.507
 Vibration    28          0.954              1.039              0.456
 Vibration    29          0.960              1.028              0.446
 Vibration    30          0.963              1.023              0.443

                           ! Non-Optimized Parameters !
 Normal termination of Gaussian 16 at Sat Feb 10 17:19:45 2024.
