 Gaussian 16, Revision A.03,
 Gaussian 16:  ES64L-G16RevA.03 25-Dec-2016

 ----------------------------------------------------------------------
 #P UB3LYP/6-311++G(d,p) nosym opt freq SCRF=(PCM,Solvent=n,n-DiMethylF
 ormamide)
 ----------------------------------------------------------------------

 --------
 Oxidized
 --------
 Symbolic Z-matrix:
 Charge =  0 Multiplicity = 1

 SCF Done:  E(UB3LYP) =  -653.249302775     A.U. after   15 cycles
 SCF Done:  E(UB3LYP) =  -653.249382457     A.U. after   11 cycles
 SCF Done:  E(UB3LYP) =  -653.249394845     A.U. after   11 cycles
 SCF Done:  E(UB3LYP) =  -653.249393873     A.U. after   10 cycles
 SCF Done:  E(UB3LYP) =  -653.249389420     A.U. after   10 cycles
 SCF Done:  E(UB3LYP) =  -653.249396160     A.U. after   10 cycles
 Optimization completed.
    -- Stationary point found.
 Normal termination of Gaussian 16 at Sun Feb 11 00:07:20 2024.

 ----------------------------------------------------------------------
 #P Geom=AllCheck Guess=TCheck SCRF=Check GenChk UB3LYP/6-311++G(d,p) F
 req
 ----------------------------------------------------------------------

 Structure from the checkpoint file:  "255.chk"
 --------
 Oxidized
 --------
 Charge =  0 Multiplicity = 1

                          Input orientation:
 ---------------------------------------------------------------------
 Center     Atomic      Atomic             Coordinates (Angstroms)
 Number     Number       Type             X           Y           Z
 ---------------------------------------------------------------------
      1          6           0       -1.641929    2.795491    0.072921
      2          6           0       -2.903275    2.212153    0.088979
      3          6           0       -3.023568    0.826857    0.069427
      4          6           0       -0.507781    1.985906    0.037452
      5          6           0       -0.623894    0.580340    0.017729
      6          6           0       -1.905868   -0.019325    0.033652
      7          6           0        0.827709    2.651968    0.021024
      8          6           0        2.057785    1.815087   -0.014229
      9          6           0        1.954310    0.464756   -0.031523
     10          6           0        0.626278   -0.225890   -0.019255
     11          8           0        0.908383    3.876301    0.037517
     12          8           0        0.606459   -1.452464   -0.040679
     13          6           0        3.375022    2.545631   -0.028624
     14          6           0        3.141521   -0.453391   -0.067551
     15          6           0       -2.151380   -1.507609    0.014973
     16          1           0       -1.521375    3.870639    0.087579
     17          1           0       -3.791474    2.832519    0.116623
     18          1           0       -4.011281    0.379838    0.082125
     19          1           0        3.211205    3.620979   -0.016744
     20          1           0        3.954579    2.293980   -0.920769
     21          1           0        3.981599    2.279369    0.841222
     22          1           0        4.081756    0.092229   -0.055863
     23          1           0        3.111364   -1.079273   -0.964117
     24          1           0        3.121049   -1.136203    0.786205
     25          1           0       -1.688829   -2.001764    0.871631
     26          1           0       -1.724071   -1.973964   -0.874921
     27          1           0       -3.224574   -1.704361    0.033493
 ---------------------------------------------------------------------

 SCF Done:  E(UB3LYP) =  -653.249396160     A.U. after    1 cycles

 Alpha  occ. eigenvalues --  -19.13071 -19.12843 -10.27983 -10.27893 -10.21173
 Alpha  occ. eigenvalues --  -10.21111 -10.21046 -10.20680 -10.20567 -10.19537
 Alpha  occ. eigenvalues --  -10.19319 -10.19244 -10.17355 -10.17207 -10.16913
 Alpha  occ. eigenvalues --   -1.06299  -1.06082  -0.88902  -0.85083  -0.79551
 Alpha  occ. eigenvalues --   -0.78635  -0.74944  -0.71065  -0.69704  -0.67048
 Alpha  occ. eigenvalues --   -0.62057  -0.61356  -0.56892  -0.54558  -0.51867
 Alpha  occ. eigenvalues --   -0.49821  -0.47253  -0.46440  -0.46270  -0.45781
 Alpha  occ. eigenvalues --   -0.43328  -0.42914  -0.42565  -0.41848  -0.41293
 Alpha  occ. eigenvalues --   -0.40969  -0.39672  -0.39436  -0.39361  -0.38337
 Alpha  occ. eigenvalues --   -0.36813  -0.36793  -0.36482  -0.28929  -0.28494
 Alpha  occ. eigenvalues --   -0.27102  -0.26907  -0.26740
 Alpha virt. eigenvalues --   -0.12123  -0.05157  -0.02942  -0.00950   0.00134
 Alpha virt. eigenvalues --    0.00711   0.02061   0.02162   0.02370   0.02541
 Alpha virt. eigenvalues --    0.03530   0.04123   0.04369   0.04641   0.05280

  Beta  occ. eigenvalues --  -19.13071 -19.12843 -10.27983 -10.27893 -10.21173
  Beta  occ. eigenvalues --  -10.21111 -10.21046 -10.20680 -10.20567 -10.19537
  Beta  occ. eigenvalues --  -10.19319 -10.19244 -10.17355 -10.17207 -10.16913
  Beta  occ. eigenvalues --   -1.06299  -1.06082  -0.88902  -0.85083  -0.79551
  Beta  occ. eigenvalues --   -0.78635  -0.74944  -0.71065  -0.69704  -0.67048
  Beta  occ. eigenvalues --   -0.62057  -0.61356  -0.56892  -0.54558  -0.51867
  Beta  occ. eigenvalues --   -0.49821  -0.47253  -0.46440  -0.46270  -0.45781
  Beta  occ. eigenvalues --   -0.43328  -0.42914  -0.42565  -0.41848  -0.41293
  Beta  occ. eigenvalues --   -0.40969  -0.39672  -0.39436  -0.39361  -0.38337
  Beta  occ. eigenvalues --   -0.36813  -0.36793  -0.36482  -0.28929  -0.28494
  Beta  occ. eigenvalues --   -0.27102  -0.26907  -0.26740
  Beta virt. eigenvalues --   -0.12123  -0.05157  -0.02942  -0.00950   0.00134
  Beta virt. eigenvalues --    0.00711   0.02061   0.02162   0.02370   0.02541
  Beta virt. eigenvalues --    0.03530   0.04123   0.04369   0.04641   0.05280

 Mulliken charges and spin densities:
               1          2
     1  C    0.040374   0.000000
     2  C   -0.313305  -0.000000
     3  C   -0.558497   0.000000
     4  C    0.496733   0.000000
     5  C    1.039012  -0.000000
     6  C    0.702709  -0.000000
     7  C   -1.288896  -0.000000
     8  C    0.197066  -0.000000
     9  C    0.762843  -0.000000
    10  C   -1.389050   0.000000
    11  O   -0.273501   0.000000
    12  O   -0.234719  -0.000000
    13  C   -0.513360  -0.000000
    14  C   -0.359971  -0.000000
    15  C   -0.481440   0.000000
    16  H    0.182675   0.000000
    17  H    0.218646  -0.000000
    18  H    0.148837   0.000000
    19  H    0.200161  -0.000000
    20  H    0.181738   0.000000
    21  H    0.181841   0.000000
    22  H    0.176318  -0.000000
    23  H    0.190472   0.000000
    24  H    0.187470   0.000000
    25  H    0.170826   0.000000
    26  H    0.170893   0.000000
    27  H    0.164123   0.000000
 Sum of Mulliken charges =  -0.00000   0.00000

 Dipole moment (field-independent basis, Debye):
    X=             -0.8612    Y=             -0.8112    Z=              0.0132  Tot=              1.1832
 Quadrupole moment (field-independent basis, Debye-Ang):
   XX=            -67.8282   YY=           -105.1836   ZZ=            -88.9810
   XY=             -2.5743   XZ=             -0.4490   YZ=             -0.1925

  Exact polarizability: 265.088   2.581 286.405  -2.850   2.652 118.698
 Approx polarizability: 282.656   2.572 367.220  -2.796   3.582 139.954

                      1                      2                      3
                      A                      A                      A
 Frequencies --     28.0307                36.9572                64.9795
 Red. masses --      3.9005                 1.4664                 3.9334
 Frc consts  --      0.0018                 0.0012                 0.0098
 IR Inten    --     11.8753                 1.1660                 0.4429

                      4                      5                      6
                      A                      A                      A
 Frequencies --     82.8423               107.3014               169.8343
 Red. masses --      1.0624                 2.0324                 4.8629
 Frc consts  --      0.0043                 0.0138                 0.0826
 IR Inten    --      0.8307                 0.0146                 1.2789

                      7                      8                      9
                      A                      A                      A
 Frequencies --    207.5568               228.7116               238.9694
 Red. masses --      1.8443                 1.4111                 3.6470
 Frc consts  --      0.0468                 0.0435                 0.1227
 IR Inten    --      2.1378                 0.0081                 1.5594

                     10                     11                     12
                      A                      A                      A
 Frequencies --    289.4726               331.2530               342.8632
 Red. masses --      3.6727                 2.7900                 3.7139
 Frc consts  --      0.1813                 0.1804                 0.2572
 IR Inten    --      0.6837                 0.2051                 1.4572

                     13                     14                     15
                      A                      A                      A
 Frequencies --    364.9658               394.9720               423.5796
 Red. masses --      4.9180                 7.5615                 4.5331
 Frc consts  --      0.3860                 0.6950                 0.4792
 IR Inten    --      0.2870                 3.1327                 2.1752

                     16                     17                     18
                      A                      A                      A
 Frequencies --    424.5411               438.4199               500.5603
 Red. masses --      7.3302                 4.2229                 3.5636
 Frc consts  --      0.7784                 0.4782                 0.5261
 IR Inten    --     41.8108                11.6673                 3.7858

                     19                     20                     21
                      A                      A                      A
 Frequencies --    501.0417               521.2289               562.9270
 Red. masses --      7.1139                 3.7059                 5.0912
 Frc consts  --      1.0522                 0.5932                 0.9505
 IR Inten    --      0.8513                 2.2675                 0.9924

                     22                     23                     24
                      A                      A                      A
 Frequencies --    624.3991               696.5838               699.9154
 Red. masses --      5.8303                 4.2775                 3.8280
 Frc consts  --      1.3393                 1.2229                 1.1049
 IR Inten    --      3.0630                 5.2118                14.3137

                     25                     26                     27
                      A                      A                      A
 Frequencies --    737.3877               791.4833               797.4446
 Red. masses --      3.7321                 3.1542                 3.9373
 Frc consts  --      1.1956                 1.1642                 1.4752
 IR Inten    --     54.6164                10.3412                 6.2876

                     28                     29                     30
                      A                      A                      A
 Frequencies --    818.2742               847.4557               940.7565
 Red. masses --      1.8760                 4.3579                 2.5188
 Frc consts  --      0.7401                 1.8440                 1.3134
 IR Inten    --     21.6076                49.0316                 9.2184

                     31                     32                     33
                      A                      A                      A
 Frequencies --    946.7100               970.7601              1016.1919
 Red. masses --      1.3459                 4.0718                 1.3407
 Frc consts  --      0.7107                 2.2608                 0.8157
 IR Inten    --      0.5626                20.6492                 0.1558

                     34                     35                     36
                      A                      A                      A
 Frequencies --   1020.4028              1025.0046              1049.3464
 Red. masses --      1.4655                 1.4804                 2.3710
 Frc consts  --      0.8991                 0.9164                 1.5382
 IR Inten    --     34.1981                 1.6041                76.0151

                     37                     38                     39
                      A                      A                      A
 Frequencies --   1055.1393              1056.1758              1108.4303
 Red. masses --      1.5738                 1.5750                 2.0195
 Frc consts  --      1.0324                 1.0351                 1.4619
 IR Inten    --      1.3304                 4.3151                21.6936

                     40                     41                     42
                      A                      A                      A
 Frequencies --   1118.6010              1178.5911              1189.8317
 Red. masses --      2.2812                 2.5149                 1.2061
 Frc consts  --      1.6818                 2.0583                 1.0060
 IR Inten    --     46.4151                10.2673                 1.3010

                     43                     44                     45
                      A                      A                      A
 Frequencies --   1232.2259              1263.8651              1285.7721
 Red. masses --      5.5510                 2.0758                 5.7337
 Frc consts  --      4.9660                 1.9536                 5.5849
 IR Inten    --     58.5860                 5.9246               526.0458

                     46                     47                     48
                      A                      A                      A
 Frequencies --   1335.4390              1350.9085              1397.2244
 Red. masses --      4.0221                 6.8033                 1.2699
 Frc consts  --      4.2262                 7.3152                 1.4607
 IR Inten    --    109.8388                68.6977                25.4607

                     49                     50                     51
                      A                      A                      A
 Frequencies --   1406.1806              1410.8189              1450.4753
 Red. masses --      1.2629                 1.2280                 2.1175
 Frc consts  --      1.4713                 1.4401                 2.6248
 IR Inten    --     43.1271                 5.7484                39.8475

                     52                     53                     54
                      A                      A                      A
 Frequencies --   1461.2117              1464.5540              1466.3796
 Red. masses --      1.1104                 1.0440                 1.0449
 Frc consts  --      1.3969                 1.3193                 1.3238
 IR Inten    --      8.7952                21.6945                10.4186

                     55                     56                     57
                      A                      A                      A
 Frequencies --   1481.4572              1485.7051              1491.1425
 Red. masses --      1.1882                 1.4426                 1.0430
 Frc consts  --      1.5364                 1.8761                 1.3663
 IR Inten    --     31.9339                 5.1318                 6.7016

                     58                     59                     60
                      A                      A                      A
 Frequencies --   1493.0994              1599.9456              1619.0904
 Red. masses --      1.8333                 6.0094                 6.3090
 Frc consts  --      2.4081                 9.0634                 9.7444
 IR Inten    --      4.7400               123.4732               136.5443

                     61                     62                     63
                      A                      A                      A
 Frequencies --   1665.6407              1676.5653              1682.4736
 Red. masses --      8.8430                11.6522                10.6848
 Frc consts  --     14.4548                19.2974                17.8202
 IR Inten    --    134.1850               857.9897                82.0303

                     64                     65                     66
                      A                      A                      A
 Frequencies --   3036.5985              3040.2491              3041.0497
 Red. masses --      1.0400                 1.0406                 1.0352
 Frc consts  --      5.6502                 5.6669                 5.6406
 IR Inten    --     16.9625                13.4106                24.3508

                     67                     68                     69
                      A                      A                      A
 Frequencies --   3083.2729              3086.1467              3098.2150
 Red. masses --      1.0989                 1.1001                 1.0994
 Frc consts  --      6.1549                 6.1731                 6.2177
 IR Inten    --     25.8822                 2.8138                14.6111

                     70                     71                     72
                      A                      A                      A
 Frequencies --   3111.7303              3142.4213              3151.8493
 Red. masses --      1.1038                 1.0973                 1.0977
 Frc consts  --      6.2970                 6.3844                 6.4252
 IR Inten    --     41.5943                13.6276                16.0206

                     73                     74                     75
                      A                      A                      A
 Frequencies --   3171.9424              3187.6760              3207.8482
 Red. masses --      1.0880                 1.0931                 1.0936
 Frc consts  --      6.4496                 6.5441                 6.6304
 IR Inten    --     11.1326                21.6659                 9.0670

 - Thermochemistry -
 -------------------
 Temperature   298.150 Kelvin.  Pressure   1.00000 Atm.
 Atom     1 has atomic number  6 and mass  12.00000

 Molecular mass:   200.08373 amu.
 Principal axes and moments of inertia in atomic units:
                           1         2         3
     Eigenvalues --  1968.691983135.963945071.45138
           X            0.97890  -0.20344   0.01931
           Y            0.20375   0.97890  -0.01552
           Z           -0.01574   0.01912   0.99969
 This molecule is an asymmetric top.
 Rotational symmetry number  1.
 Warning -- assumption of classical behavior for rotation
           may cause significant error
 Rotational temperatures (Kelvin)      0.04400     0.02762     0.01708
 Rotational constants (GHZ):           0.91672     0.57550     0.35586
 Zero-point vibrational energy     562418.7 (Joules/Mol)
                                  134.42130 (Kcal/Mol)
 Warning -- explicit consideration of  21 degrees of freedom as
           vibrations may cause significant error
 Vibrational temperatures:     40.33    53.17    93.49   119.19   154.38
          (Kelvin)            244.35   298.63   329.06   343.82   416.49
                              476.60   493.30   525.10   568.28   609.44
                              610.82   630.79   720.19   720.89   749.93
                              809.93   898.37  1002.23  1007.02  1060.94
                             1138.77  1147.34  1177.31  1219.30  1353.54
                             1362.10  1396.71  1462.07  1468.13  1474.75
                             1509.78  1518.11  1519.60  1594.78  1609.42
                             1695.73  1711.90  1772.90  1818.42  1849.94
                             1921.40  1943.66  2010.29  2023.18  2029.85
                             2086.91  2102.36  2107.17  2109.79  2131.49
                             2137.60  2145.42  2148.24  2301.96  2329.51
                             2396.49  2412.20  2420.70  4368.99  4374.24
                             4375.39  4436.14  4440.28  4457.64  4477.09
                             4521.24  4534.81  4563.72  4586.35  4615.38

 Zero-point correction=                           0.214214 (Hartree/Particle)
 Thermal correction to Energy=                    0.228107
 Thermal correction to Enthalpy=                  0.229051
 Thermal correction to Gibbs Free Energy=         0.172462
 Sum of electronic and zero-point Energies=           -653.035182
 Sum of electronic and thermal Energies=              -653.021290
 Sum of electronic and thermal Enthalpies=            -653.020345
 Sum of electronic and thermal Free Energies=         -653.076934

                     E (Thermal)             CV                S
                      KCal/Mol        Cal/Mol-Kelvin    Cal/Mol-Kelvin
 Total                  143.139             52.219            119.102
 Electronic               0.000              0.000              0.000
 Translational            0.889              2.981             41.785
 Rotational               0.889              2.981             31.815
 Vibrational            141.362             46.257             45.501
 Vibration     1          0.593              1.984              5.964
 Vibration     2          0.594              1.982              5.416
 Vibration     3          0.597              1.971              4.300
 Vibration     4          0.600              1.961              3.822
 Vibration     5          0.606              1.943              3.317
 Vibration     6          0.625              1.880              2.437
 Vibration     7          0.641              1.829              2.065
 Vibration     8          0.651              1.797              1.889
 Vibration     9          0.657              1.781              1.811
 Vibration    10          0.686              1.693              1.477
 Vibration    11          0.714              1.613              1.254
 Vibration    12          0.722              1.590              1.199
 Vibration    13          0.738              1.544              1.101
 Vibration    14          0.762              1.481              0.981
 Vibration    15          0.786              1.419              0.880
 Vibration    16          0.787              1.417              0.877
 Vibration    17          0.799              1.386              0.832
 Vibration    18          0.856              1.249              0.657
 Vibration    19          0.856              1.248              0.656
 Vibration    20          0.876              1.203              0.607
 Vibration    21          0.919              1.111              0.518

                           ! Non-Optimized Parameters !
 Normal termination of Gaussian 16 at Sun Feb 11 00:33:02 2024.
