 Gaussian 16, Revision A.03,
 Gaussian 16:  ES64L-G16RevA.03 25-Dec-2016

 --------------------------------------
 #P UB3LYP/6-311++G(d,p) nosym opt freq
 --------------------------------------

 -------
 Reduced
 -------
 Symbolic Z-matrix:
 Charge = -2 Multiplicity = 1

 SCF Done:  E(UB3LYP) =  -652.923996500     A.U. after   53 cycles
 Optimization completed.
    -- Stationary point found.
 Normal termination of Gaussian 16 at Tue Jan  9 20:42:06 2024.

 ----------------------------------------------------------------------
 #P Geom=AllCheck Guess=TCheck SCRF=Check GenChk UB3LYP/6-311++G(d,p) F
 req
 ----------------------------------------------------------------------

 Structure from the checkpoint file:  "344-an.chk"
 -------
 Reduced
 -------
 Charge = -2 Multiplicity = 1

                          Input orientation:
 ---------------------------------------------------------------------
 Center     Atomic      Atomic             Coordinates (Angstroms)
 Number     Number       Type             X           Y           Z
 ---------------------------------------------------------------------
      1          8           0        0.015705   -2.436213   -0.849816
      2          6           0        0.040850   -1.238945   -0.457083
      3          6           0        1.322038   -0.617103   -0.162787
      4          6           0        2.439636   -1.515825   -0.182314
      5          6           0        3.735376   -1.129503    0.052669
      6          6           0        4.029864    0.241181    0.308999
      7          6           0        2.985679    1.135134    0.351145
      8          6           0        1.619755    0.772516    0.159996
      9          6           0        0.682887    1.834679    0.221938
     10          6           0       -0.685233    1.848620    0.083762
     11          6           0       -1.637132    0.768991   -0.012586
     12          6           0       -3.005938    1.125958    0.139910
     13          6           0       -4.045208    0.203793    0.058132
     14          6           0       -3.746261   -1.135481   -0.158370
     15          6           0       -2.400663   -1.517888   -0.283795
     16          6           0       -1.334990   -0.610535   -0.229228
     17          1           0        2.209146   -2.553449   -0.390480
     18          1           0        4.537419   -1.864905    0.035823
     19          1           0        5.054174    0.574169    0.462036
     20          1           0        3.196871    2.186056    0.543151
     21          1           0        1.133710    2.813706    0.387874
     22          1           0       -1.148527    2.828946    0.182391
     23          1           0       -3.242086    2.175408    0.296705
     24          1           0       -5.079213    0.538390    0.145341
     25          1           0       -4.538736   -1.875189   -0.239056
     26          1           0       -2.139121   -2.552508   -0.464356
 ---------------------------------------------------------------------

 SCF Done:  E(UB3LYP) =  -652.923996500     A.U. after   12 cycles

 Alpha  occ. eigenvalues --  -18.83937 -10.00203  -9.96859  -9.95812  -9.95757
 Alpha  occ. eigenvalues --   -9.95226  -9.95175  -9.94973  -9.94724  -9.94713
 Alpha  occ. eigenvalues --   -9.94629  -9.94520  -9.94221  -9.94187  -9.94050
 Alpha  occ. eigenvalues --   -9.93868  -0.76719  -0.63653  -0.62557  -0.57331
 Alpha  occ. eigenvalues --   -0.53536  -0.52947  -0.52114  -0.48903  -0.42172
 Alpha  occ. eigenvalues --   -0.41421  -0.37446  -0.36674  -0.33647  -0.32623
 Alpha  occ. eigenvalues --   -0.27868  -0.26858  -0.25397  -0.23976  -0.22657
 Alpha  occ. eigenvalues --   -0.20984  -0.19977  -0.19418  -0.18545  -0.17954
 Alpha  occ. eigenvalues --   -0.17042  -0.15909  -0.14454  -0.13344  -0.12373
 Alpha  occ. eigenvalues --   -0.12152  -0.11475  -0.10503  -0.08861  -0.04427
 Alpha  occ. eigenvalues --   -0.03143  -0.02258  -0.00726   0.01525   0.12711
 Alpha virt. eigenvalues --    0.14180   0.14575   0.15694   0.16139   0.16218
 Alpha virt. eigenvalues --    0.16711   0.18002   0.19046   0.20430   0.20681
 Alpha virt. eigenvalues --    0.21372   0.21506   0.22989   0.23935   0.24233

  Beta  occ. eigenvalues --  -18.83937 -10.00203  -9.96859  -9.95812  -9.95757
  Beta  occ. eigenvalues --   -9.95226  -9.95175  -9.94973  -9.94724  -9.94713
  Beta  occ. eigenvalues --   -9.94629  -9.94520  -9.94221  -9.94187  -9.94050
  Beta  occ. eigenvalues --   -9.93868  -0.76719  -0.63653  -0.62557  -0.57331
  Beta  occ. eigenvalues --   -0.53536  -0.52947  -0.52114  -0.48903  -0.42172
  Beta  occ. eigenvalues --   -0.41421  -0.37446  -0.36674  -0.33647  -0.32623
  Beta  occ. eigenvalues --   -0.27868  -0.26858  -0.25397  -0.23976  -0.22657
  Beta  occ. eigenvalues --   -0.20984  -0.19977  -0.19418  -0.18545  -0.17954
  Beta  occ. eigenvalues --   -0.17042  -0.15909  -0.14454  -0.13344  -0.12373
  Beta  occ. eigenvalues --   -0.12152  -0.11475  -0.10503  -0.08861  -0.04427
  Beta  occ. eigenvalues --   -0.03143  -0.02258  -0.00726   0.01525   0.12711
  Beta virt. eigenvalues --    0.14180   0.14575   0.15694   0.16139   0.16218
  Beta virt. eigenvalues --    0.16711   0.18002   0.19046   0.20430   0.20681
  Beta virt. eigenvalues --    0.21372   0.21506   0.22989   0.23935   0.24233

 Mulliken charges and spin densities:
               1          2
     1  O   -0.340983   0.000000
     2  C   -0.672295  -0.000000
     3  C   -0.864367   0.000000
     4  C    0.307996   0.000000
     5  C    0.348273  -0.000000
     6  C    1.534584  -0.000000
     7  C   -0.261729  -0.000000
     8  C   -1.149405  -0.000000
     9  C    1.118222  -0.000000
    10  C    1.674717  -0.000000
    11  C   -1.410492  -0.000000
    12  C    0.465350  -0.000000
    13  C    0.991177   0.000000
    14  C    1.130877  -0.000000
    15  C    0.018752   0.000000
    16  C   -0.827830   0.000000
    17  H    0.201425  -0.000000
    18  H   -0.379395   0.000000
    19  H   -1.374085   0.000000
    20  H   -0.260312   0.000000
    21  H   -0.123696  -0.000000
    22  H   -0.214395   0.000000
    23  H   -0.061876  -0.000000
    24  H   -1.761862   0.000000
    25  H   -0.273004   0.000000
    26  H    0.184356  -0.000000
 Sum of Mulliken charges =  -2.00000   0.00000

 Dipole moment (field-independent basis, Debye):
    X=              0.4771    Y=              0.3607    Z=              0.6368  Tot=              0.8736
 Quadrupole moment (field-independent basis, Debye-Ang):
   XX=           -285.6637   YY=           -146.3936   ZZ=           -125.5256
   XY=              0.6662   XZ=             -5.6467   YZ=             -5.3097

  Exact polarizability:5662.574 -25.3092403.899 245.662 247.195 287.224
 Approx polarizability:******** -70.1131924.208 527.337 258.249 380.421

                      1                      2                      3
                      A                      A                      A
 Frequencies --     37.0044                75.4860               121.3628
 Red. masses --      6.3933                 3.8928                 4.8006
 Frc consts  --      0.0052                 0.0131                 0.0417
 IR Inten    --      5.0388                 3.0189                31.1347

                      4                      5                      6
                      A                      A                      A
 Frequencies --    200.8726               228.8575               253.4098
 Red. masses --      4.8681                 4.3717                 4.7858
 Frc consts  --      0.1157                 0.1349                 0.1811
 IR Inten    --     11.2984                20.9978                 9.9846

                      7                      8                      9
                      A                      A                      A
 Frequencies --    310.9343               321.8396               354.5635
 Red. masses --      6.6965                 5.5417                 4.1532
 Frc consts  --      0.3814                 0.3382                 0.3076
 IR Inten    --     21.1860                 2.4499                16.8568

                     10                     11                     12
                      A                      A                      A
 Frequencies --    412.4930               417.7749               455.6516
 Red. masses --      3.7761                10.3424                 3.4294
 Frc consts  --      0.3786                 1.0636                 0.4195
 IR Inten    --     46.1579                33.8176                61.4334

                     13                     14                     15
                      A                      A                      A
 Frequencies --    489.5013               497.8409               555.9017
 Red. masses --      3.3581                 7.1724                 5.7788
 Frc consts  --      0.4741                 1.0474                 1.0522
 IR Inten    --     34.0435                20.8007                 1.9351

                     16                     17                     18
                      A                      A                      A
 Frequencies --    557.3179               575.3165               628.2470
 Red. masses --      3.4562                 6.0912                 6.8203
 Frc consts  --      0.6325                 1.1879                 1.5860
 IR Inten    --     44.8417                 8.6323                28.1201

                     19                     20                     21
                      A                      A                      A
 Frequencies --    642.7129               667.5992               706.5486
 Red. masses --      4.0581                 5.5474                 2.3024
 Frc consts  --      0.9877                 1.4567                 0.6772
 IR Inten    --     47.9148                47.5270               187.8805

                     22                     23                     24
                      A                      A                      A
 Frequencies --    718.2500               735.0111               764.0918
 Red. masses --      2.2902                 3.7228                 1.9982
 Frc consts  --      0.6961                 1.1850                 0.6874
 IR Inten    --     51.9547                23.4355               144.6259

                     25                     26                     27
                      A                      A                      A
 Frequencies --    769.1601               786.5371               798.0089
 Red. masses --      1.2675                 3.1642                 2.3889
 Frc consts  --      0.4418                 1.1533                 0.8963
 IR Inten    --     15.4610               182.0466                85.6993

                     28                     29                     30
                      A                      A                      A
 Frequencies --    828.5807               854.4239               866.3323
 Red. masses --      1.4064                 1.7804                 4.1733
 Frc consts  --      0.5689                 0.7658                 1.8454
 IR Inten    --    139.8882               152.9372                24.7452

                     31                     32                     33
                      A                      A                      A
 Frequencies --    898.0267               929.0809               936.1324
 Red. masses --      1.2948                 6.0420                 1.3561
 Frc consts  --      0.6152                 3.0728                 0.7002
 IR Inten    --    101.4602               135.5402                54.5113

                     34                     35                     36
                      A                      A                      A
 Frequencies --    945.4206               982.1816               996.6655
 Red. masses --      1.2772                 1.3633                 3.4287
 Frc consts  --      0.6726                 0.7749                 2.0067
 IR Inten    --    109.6713               103.3389               106.0410

                     37                     38                     39
                      A                      A                      A
 Frequencies --   1024.1921              1042.4242              1058.4652
 Red. masses --      2.6409                 1.3515                 2.4248
 Frc consts  --      1.6322                 0.8653                 1.6006
 IR Inten    --    420.7081               611.6421                55.5586

                     40                     41                     42
                      A                      A                      A
 Frequencies --   1090.6439              1124.9945              1138.0927
 Red. masses --      2.8573                 1.9068                 1.9461
 Frc consts  --      2.0025                 1.4219                 1.4851
 IR Inten    --     43.6540               123.5527                95.7729

                     43                     44                     45
                      A                      A                      A
 Frequencies --   1163.3864              1165.8793              1174.8196
 Red. masses --      1.2180                 1.5868                 1.5079
 Frc consts  --      0.9713                 1.2708                 1.2262
 IR Inten    --    168.5187               201.4869                25.8962

                     46                     47                     48
                      A                      A                      A
 Frequencies --   1210.4296              1243.7921              1280.3090
 Red. masses --      2.6297                 1.7404                 2.0555
 Frc consts  --      2.2701                 1.5863                 1.9852
 IR Inten    --    350.9362                29.4510               267.2148

                     49                     50                     51
                      A                      A                      A
 Frequencies --   1297.5446              1310.3710              1332.6250
 Red. masses --      2.1321                 2.1018                 3.6598
 Frc consts  --      2.1150                 2.1263                 3.8293
 IR Inten    --     57.5227                16.9617                88.6939

                     52                     53                     54
                      A                      A                      A
 Frequencies --   1394.8051              1407.6391              1438.2204
 Red. masses --      3.1073                 1.9879                 2.0090
 Frc consts  --      3.5617                 2.3208                 2.4484
 IR Inten    --    435.9407               315.3457                45.6362

                     55                     56                     57
                      A                      A                      A
 Frequencies --   1469.3414              1487.6947              1499.7484
 Red. masses --      2.1824                 2.4102                 3.2105
 Frc consts  --      2.7760                 3.1429                 4.2546
 IR Inten    --     85.2477               131.8802               360.4486

                     58                     59                     60
                      A                      A                      A
 Frequencies --   1507.7383              1544.9639              1565.9301
 Red. masses --      2.8545                 5.3681                 4.9548
 Frc consts  --      3.8232                 7.5494                 7.1584
 IR Inten    --    110.0613               133.4275               201.3218

                     61                     62                     63
                      A                      A                      A
 Frequencies --   1588.2500              1613.5932              3072.6347
 Red. masses --      4.8426                 5.7650                 1.0835
 Frc consts  --      7.1973                 8.8438                 6.0268
 IR Inten    --     31.1037                31.3978                64.6507

                     64                     65                     66
                      A                      A                      A
 Frequencies --   3090.7871              3100.3097              3106.2401
 Red. masses --      1.0866                 1.0846                 1.0881
 Frc consts  --      6.1160                 6.1420                 6.1860
 IR Inten    --    638.6752               167.3621                53.9718

                     67                     68                     69
                      A                      A                      A
 Frequencies --   3111.3291              3126.5291              3127.9733
 Red. masses --      1.0881                 1.0913                 1.0895
 Frc consts  --      6.2061                 6.2849                 6.2804
 IR Inten    --    247.0320                86.6801               147.5895

                     70                     71                     72
                      A                      A                      A
 Frequencies --   3130.5700              3183.2881              3191.0207
 Red. masses --      1.0937                 1.0900                 1.0888
 Frc consts  --      6.3154                 6.5076                 6.5320
 IR Inten    --    776.1664                13.8830                 3.5702

 - Thermochemistry -
 -------------------
 Temperature   298.150 Kelvin.  Pressure   1.00000 Atm.
 Atom     1 has atomic number  8 and mass  15.99491

 Molecular mass:   206.07317 amu.
 Principal axes and moments of inertia in atomic units:
                           1         2         3
     Eigenvalues --  1414.546304761.446166137.38931
           X            0.99950  -0.00849  -0.03054
           Y            0.00247   0.98142  -0.19188
           Z            0.03160   0.19171   0.98094
 This molecule is an asymmetric top.
 Rotational symmetry number  1.
 Warning -- assumption of classical behavior for rotation
           may cause significant error
 Rotational temperatures (Kelvin)      0.06123     0.01819     0.01411
 Rotational constants (GHZ):           1.27584     0.37903     0.29406
 Zero-point vibrational energy     518794.8 (Joules/Mol)
                                  123.99493 (Kcal/Mol)
 Warning -- explicit consideration of  17 degrees of freedom as
           vibrations may cause significant error
 Vibrational temperatures:     53.24   108.61   174.61   289.01   329.27
          (Kelvin)            364.60   447.37   463.06   510.14   593.49
                              601.08   655.58   704.28   716.28   799.82
                              801.86   827.75   903.91   924.72   960.53
                             1016.57  1033.40  1057.52  1099.36  1106.65
                             1131.65  1148.16  1192.14  1229.33  1246.46
                             1292.06  1336.74  1346.89  1360.25  1413.14
                             1433.98  1473.58  1499.82  1522.90  1569.19
                             1618.62  1637.46  1673.85  1677.44  1690.30
                             1741.54  1789.54  1842.08  1866.88  1885.33
                             1917.35  2006.81  2025.28  2069.28  2114.05
                             2140.46  2157.80  2169.30  2222.86  2253.02
                             2285.14  2321.60  4420.84  4446.95  4460.65
                             4469.19  4476.51  4498.38  4500.46  4504.19
                             4580.04  4591.17

 Zero-point correction=                           0.197598 (Hartree/Particle)
 Thermal correction to Energy=                    0.209219
 Thermal correction to Enthalpy=                  0.210163
 Thermal correction to Gibbs Free Energy=         0.159586
 Sum of electronic and zero-point Energies=           -652.726398
 Sum of electronic and thermal Energies=              -652.714778
 Sum of electronic and thermal Enthalpies=            -652.713834
 Sum of electronic and thermal Free Energies=         -652.764410

                     E (Thermal)             CV                S
                      KCal/Mol        Cal/Mol-Kelvin    Cal/Mol-Kelvin
 Total                  131.287             48.728            106.447
 Electronic               0.000              0.000              0.000
 Translational            0.889              2.981             41.873
 Rotational               0.889              2.981             32.092
 Vibrational            129.509             42.766             32.482
 Vibration     1          0.594              1.982              5.413
 Vibration     2          0.599              1.965              4.005
 Vibration     3          0.609              1.931              3.079
 Vibration     4          0.638              1.839              2.125
 Vibration     5          0.652              1.797              1.888
 Vibration     6          0.665              1.757              1.707
 Vibration     7          0.700              1.653              1.357
 Vibration     8          0.707              1.632              1.301
 Vibration     9          0.730              1.566              1.146
 Vibration    10          0.776              1.443              0.918
 Vibration    11          0.781              1.432              0.900
 Vibration    12          0.814              1.348              0.779
 Vibration    13          0.845              1.273              0.685
 Vibration    14          0.853              1.255              0.664
 Vibration    15          0.911              1.127              0.532
 Vibration    16          0.913              1.124              0.529
 Vibration    17          0.932              1.085              0.494

                           ! Non-Optimized Parameters !
 Normal termination of Gaussian 16 at Tue Jan  9 21:36:24 2024.
