 Q-Chem 5.4, Q-Chem, Inc., Pleasanton, CA (2021)
 Q-Chem 5.4.0 for Intel X86 EM64T Linux

User input:
--------------------------------------------------------------
$molecule
-2 1
O                  0.0157050000     -2.4362130000     -0.8498160000
C                  0.0408500000     -1.2389450000     -0.4570830000
C                  1.3220380000     -0.6171030000     -0.1627870000
C                  2.4396360000     -1.5158250000     -0.1823140000
C                  3.7353760000     -1.1295030000      0.0526690000
C                  4.0298640000      0.2411810000      0.3089990000
C                  2.9856790000      1.1351340000      0.3511450000
C                  1.6197550000      0.7725160000      0.1599960000
C                  0.6828870000      1.8346790000      0.2219380000
C                 -0.6852330000      1.8486200000      0.0837620000
C                 -1.6371320000      0.7689910000     -0.0125860000
C                 -3.0059380000      1.1259580000      0.1399100000
C                 -4.0452080000      0.2037930000      0.0581320000
C                 -3.7462610000     -1.1354810000     -0.1583700000
C                 -2.4006630000     -1.5178880000     -0.2837950000
C                 -1.3349900000     -0.6105350000     -0.2292280000
H                  2.2091460000     -2.5534490000     -0.3904800000
H                  4.5374190000     -1.8649050000      0.0358230000
H                  5.0541740000      0.5741690000      0.4620360000
H                  3.1968710000      2.1860560000      0.5431510000
H                  1.1337100000      2.8137060000      0.3878740000
H                 -1.1485270000      2.8289460000      0.1823910000
H                 -3.2420860000      2.1754080000      0.2967050000
H                 -5.0792130000      0.5383900000      0.1453410000
H                 -4.5387360000     -1.8751890000     -0.2390560000
H                 -2.1391210000     -2.5525080000     -0.4643560000
$end
$rem
MAX_SCF_CYCLES=200
BASIS  =  6-311++G(d,p)
GUI  =  2
JOB_TYPE  =  SP
METHOD  =  B3LYP
SOLVENT_METHOD = PCM
$end
$pcm
theory = CPCM
$end
$solvent
dielectric 37.219
opticaldielectric 1.43
$end

--------------------------------------------------------------

             Standard Nuclear Orientation (Angstroms)
    I     Atom           X                Y                Z
 ----------------------------------------------------------------
    1      O       0.0157050000    -2.4362130000    -0.8498160000
    2      C       0.0408500000    -1.2389450000    -0.4570830000
    3      C       1.3220380000    -0.6171030000    -0.1627870000
    4      C       2.4396360000    -1.5158250000    -0.1823140000
    5      C       3.7353760000    -1.1295030000     0.0526690000
    6      C       4.0298640000     0.2411810000     0.3089990000
    7      C       2.9856790000     1.1351340000     0.3511450000
    8      C       1.6197550000     0.7725160000     0.1599960000
    9      C       0.6828870000     1.8346790000     0.2219380000
   10      C      -0.6852330000     1.8486200000     0.0837620000
   11      C      -1.6371320000     0.7689910000    -0.0125860000
   12      C      -3.0059380000     1.1259580000     0.1399100000
   13      C      -4.0452080000     0.2037930000     0.0581320000
   14      C      -3.7462610000    -1.1354810000    -0.1583700000
   15      C      -2.4006630000    -1.5178880000    -0.2837950000
   16      C      -1.3349900000    -0.6105350000    -0.2292280000
   17      H       2.2091460000    -2.5534490000    -0.3904800000
   18      H       4.5374190000    -1.8649050000     0.0358230000
   19      H       5.0541740000     0.5741690000     0.4620360000
   20      H       3.1968710000     2.1860560000     0.5431510000
   21      H       1.1337100000     2.8137060000     0.3878740000
   22      H      -1.1485270000     2.8289460000     0.1823910000
   23      H      -3.2420860000     2.1754080000     0.2967050000
   24      H      -5.0792130000     0.5383900000     0.1453410000
   25      H      -4.5387360000    -1.8751890000    -0.2390560000
   26      H      -2.1391210000    -2.5525080000    -0.4643560000
 ----------------------------------------------------------------

    9    -653.1701796918      9.28e-06  Convergence criterion met
 Total energy in the final basis set =     -653.1701796918

                    Orbital Energies (a.u.)
 --------------------------------------------------------------

 Alpha MOs
 -- Occupied --
-19.0212 -10.1722 -10.1583 -10.1480 -10.1440 -10.1396 -10.1344 -10.1343
-10.1337 -10.1285 -10.1278 -10.1266 -10.1265 -10.1213 -10.1186 -10.1176
 -0.9533  -0.8247  -0.8115  -0.7601  -0.7222  -0.7167  -0.7063  -0.6753
 -0.6061  -0.6002  -0.5619  -0.5532  -0.5225  -0.5117  -0.4656  -0.4542
 -0.4398  -0.4258  -0.4127  -0.3975  -0.3850  -0.3819  -0.3722  -0.3699
 -0.3604  -0.3443  -0.3363  -0.3187  -0.3130  -0.3095  -0.3015  -0.2906
 -0.2805  -0.2366  -0.2240  -0.2144  -0.1976  -0.1771  -0.0699

          Ground-State Mulliken Net Atomic Charges

     Atom                 Charge (a.u.)
  ----------------------------------------
      1 O                    -0.591781
      2 C                    -0.871874
      3 C                     0.676411
      4 C                    -0.162738
      5 C                    -0.478364
      6 C                    -0.534508
      7 C                    -0.316953
      8 C                    -0.095323
      9 C                    -0.266867
     10 C                    -0.472835
     11 C                     0.099937
     12 C                    -0.259493
     13 C                    -0.438617
     14 C                    -0.561723
     15 C                     0.038876
     16 C                     0.845536
     17 H                     0.129617
     18 H                     0.154364
     19 H                     0.144656
     20 H                     0.123255
     21 H                     0.126544
     22 H                     0.114578
     23 H                     0.131451
     24 H                     0.160655
     25 H                     0.156711
     26 H                     0.148485
  ----------------------------------------
  Sum of atomic charges =    -2.000000

                    Cartesian Multipole Moments
 -----------------------------------------------------------------
    Charge (ESU x 10^10)
                -9.6064
    Dipole Moment (Debye)
         X      -1.8935      Y       6.9591      Z       2.7079
       Tot       7.7037
    Quadrupole Moments (Debye-Ang)
        XX    -145.1374     XY       0.3596     YY    -127.1333
        XZ      -1.1581     YZ      -5.8852     ZZ    -114.2019

 Total job time:  64.96s(wall), 290.17s(cpu)
        *  Thank you very much for using Q-Chem.  Have a nice day.  *
