 Q-Chem 5.4, Q-Chem, Inc., Pleasanton, CA (2021)
 Q-Chem 5.4.0 for Intel X86 EM64T Linux

User input:
--------------------------------------------------------------
$molecule
-1 2
C                 -4.8306810000     -0.2853360000     -3.9392860000
C                 -4.2570910000     -1.3368760000     -4.6251590000
C                 -3.1442240000     -2.0168940000     -4.0995590000
C                 -4.3060650000      0.1253180000     -2.6944640000
C                 -3.1811410000     -0.5539310000     -2.1507600000
C                 -2.6256780000     -1.6190070000     -2.8784690000
C                 -4.9057010000      1.2260510000     -1.9741000000
C                 -4.3055220000      1.5769360000     -0.7083820000
C                 -3.2112020000      0.9470530000     -0.1540690000
C                 -2.5958510000     -0.1636020000     -0.8507270000
O                 -5.9146020000      1.8989650000     -2.3738530000
O                 -1.6032550000     -0.7747990000     -0.3783770000
O                 -4.9260160000      2.6207950000     -0.0848250000
O                 -4.7411180000     -1.7706990000     -5.8490700000
C                 -2.6434040000      1.3721630000      1.1753190000
C                 -3.1989590000      0.5614530000      2.3622440000
C                 -2.5934510000      0.9729450000      3.7086170000
C                 -3.1350850000      0.1722210000      4.8984920000
C                 -2.5299450000      0.5796110000      6.2470310000
C                 -3.0693800000     -0.2247550000      7.4354640000
C                 -2.4621640000      0.1806040000      8.7835020000
C                 -3.0008050000     -0.6256740000      9.9709480000
C                 -2.3930250000     -0.2212240000     11.3187200000
C                 -2.9308270000     -1.0277410000     12.5062920000
C                 -2.3175690000     -0.6161480000     13.8482410000
H                 -5.6908470000      0.2499860000     -4.3321320000
H                 -2.7137400000     -2.8393880000     -4.6596480000
H                 -1.7689960000     -2.1245470000     -2.4474000000
H                 -5.6387440000      2.8439480000     -0.7234390000
H                 -5.4944890000     -1.2185790000     -6.0817570000
H                 -2.8507510000      2.4346860000      1.3394920000
H                 -1.5576590000      1.2352440000      1.1425860000
H                 -3.0005360000     -0.5000270000      2.1794550000
H                 -4.2884470000      0.6815470000      2.3986590000
H                 -2.7793010000      2.0423990000      3.8792610000
H                 -1.5023880000      0.8565640000      3.6625000000
H                 -2.9490400000     -0.8960350000      4.7270280000
H                 -4.2263410000      0.2860660000      4.9433820000
H                 -2.7171620000      1.6479410000      6.4193910000
H                 -1.4385600000      0.4673690000      6.2011800000
H                 -2.8831380000     -1.2927990000      7.2621710000
H                 -4.1605860000     -0.1120980000      7.4823200000
H                 -2.6490550000      1.2485140000      8.9575820000
H                 -1.3709530000      0.0684400000      8.7362570000
H                 -2.8141680000     -1.6934600000      9.7965810000
H                 -4.0919560000     -0.5133620000     10.0185800000
H                 -2.5797880000      0.8465160000     11.4945380000
H                 -1.3016720000     -0.3333610000     11.2720840000
H                 -2.7436160000     -2.0944040000     12.3316530000
H                 -4.0210190000     -0.9155900000     12.5538310000
H                 -1.2309360000     -0.7500350000     13.8436930000
H                 -2.7216990000     -1.2097690000     14.6736480000
H                 -2.5180090000      0.4376240000     14.0676410000
$end
$rem
MAX_SCF_CYCLES=200
SCF_Guess=core
BASIS  =  6-311++G(d,p)
GUI  =  2
JOB_TYPE  =  SP
METHOD  =  B3LYP
THRESH = 14
SCF_CONVERGENCE = 8
SOLVENT_METHOD = COSMO
$end
$solvent
dielectric 37.219
opticaldielectric 1.43
$end

--------------------------------------------------------------

             Standard Nuclear Orientation (Angstroms)
    I     Atom           X                Y                Z
 ----------------------------------------------------------------
    1      C       6.4265624376    -0.0639418191     0.8587009791
    2      C       7.0454522384     1.1678894004     0.7899194915
    3      C       6.4037801945     2.2624709036     0.1838657638
    4      C       5.1344837610    -0.2443010639     0.3188457178
    5      C       4.4735405102     0.8543223836    -0.2964816659
    6      C       5.1359074201     2.0917485440    -0.3468105132
    7      C       4.4841669833    -1.5335149481     0.3903748147
    8      C       3.1631932175    -1.6267999299    -0.1855621550
    9      C       2.4950526104    -0.5866088645    -0.7964160121
   10      C       3.1201141206     0.7174955358    -0.8748607243
   11      O       4.9897230094    -2.5795627774     0.9201804239
   12      O       2.5442439165     1.6977136495    -1.4128840250
   13      O       2.6111929706    -2.8706444004    -0.0777456035
   14      O       8.3124004404     1.3866409315     1.3070584370
   15      C       1.1143679819    -0.7638321144    -1.3732066256
   16      C      -0.0095510027    -0.3720123729    -0.3944490336
   17      C      -1.4111337488    -0.5204086061    -0.9963046832
   18      C      -2.5394265453    -0.1310059223    -0.0341977531
   19      C      -3.9431351921    -0.2760724982    -0.6335942743
   20      C      -5.0702351580     0.1176477603     0.3281737858
   21      C      -6.4736695706    -0.0246278209    -0.2721287609
   22      C      -7.5998766607     0.3712018063     0.6897562838
   23      C      -9.0031083367     0.2300060692     0.0893644765
   24      C     -10.1295297237     0.6264337839     1.0506385496
   25      C     -11.5275291553     0.4818183663     0.4415365376
   26      H       6.9092237732    -0.9192362945     1.3237736254
   27      H       6.9132583668     3.2186829521     0.1438276256
   28      H       4.6156806517     2.9171691336    -0.8193993231
   29      H       3.3219085427    -3.3687799509     0.3830696015
   30      H       8.6245892279     0.5583567784     1.6852529911
   31      H       0.9757257722    -1.8061905350    -1.6784408612
   32      H       1.0321971460    -0.1315734927    -2.2632389036
   33      H       0.1485462937     0.6662050857    -0.0835904652
   34      H       0.0693086185    -0.9913919907     0.5071510842
   35      H      -1.5584571510    -1.5591170951    -1.3230644504
   36      H      -1.4805015697     0.0969433335    -1.9019284865
   37      H      -2.3913051165     0.9067809909     0.2917499299
   38      H      -2.4688248524    -0.7461495571     0.8726810498
   39      H      -4.0920239907    -1.3145216645    -0.9584675085
   40      H      -4.0127906330     0.3377689659    -1.5414315810
   41      H      -4.9203151065     1.1554355600     0.6536810719
   42      H      -5.0015968929    -0.4965277153     1.2357501697
   43      H      -6.6243042310    -1.0626432726    -0.5969317498
   44      H      -6.5419202393     0.5891357555    -1.1799780975
   45      H      -7.4489295194     1.4090036309     1.0146970411
   46      H      -7.5320167710    -0.2426841774     1.5975185500
   47      H      -9.1554852496    -0.8078899225    -0.2353111795
   48      H      -9.0719795022     0.8437808315    -0.8185663015
   49      H      -9.9783696224     1.6635295890     1.3745206409
   50      H     -10.0616787859     0.0131448981     1.9576277408
   51      H     -11.6378137157     1.1103545292    -0.4481248010
   52      H     -12.3073250774     0.7722417460     1.1518718419
   53      H     -11.7218413508    -0.5524588964     0.1394416910
 ----------------------------------------------------------------

   28   -1118.4164942919      7.39e-09  Convergence criterion met
 Total energy in the final basis set =    -1118.4164942919
   13   -1118.5021320454      5.46e-09  Convergence criterion met
 Total energy in the final basis set =    -1118.5021320454

                    Orbital Energies (a.u.)
 --------------------------------------------------------------

 Alpha MOs
 -- Occupied --
-19.1557 -19.1444 -19.0885 -19.0768 -10.2374 -10.2262 -10.2227 -10.2223
-10.1795 -10.1745 -10.1717 -10.1708 -10.1701 -10.1625 -10.1576 -10.1564
-10.1553 -10.1552 -10.1550 -10.1548 -10.1546 -10.1543 -10.1541 -10.1538
-10.1512  -1.0643  -1.0618  -1.0029  -0.9980  -0.8603  -0.8140  -0.8065
 -0.7930  -0.7748  -0.7573  -0.7507  -0.7320  -0.7057  -0.6803  -0.6590
 -0.6373  -0.6238  -0.6007  -0.5858  -0.5751  -0.5727  -0.5670  -0.5658
 -0.5520  -0.5212  -0.4947  -0.4835  -0.4807  -0.4728  -0.4664  -0.4482
 -0.4407  -0.4349  -0.4299  -0.4260  -0.4258  -0.4200  -0.4158  -0.4118
 -0.4092  -0.4022  -0.3976  -0.3904  -0.3885  -0.3854  -0.3780  -0.3733
 -0.3645  -0.3611  -0.3561  -0.3475  -0.3444  -0.3404  -0.3333  -0.3288
 -0.3266  -0.3241  -0.3215  -0.3174  -0.3168  -0.3149  -0.3139  -0.2942
 -0.2672  -0.2634  -0.2489  -0.2422  -0.2224  -0.1532

 Beta MOs
 -- Occupied --
-19.1557 -19.1440 -19.0823 -19.0718 -10.2375 -10.2248 -10.2219 -10.2192
-10.1793 -10.1748 -10.1709 -10.1699 -10.1693 -10.1614 -10.1576 -10.1565
-10.1553 -10.1552 -10.1550 -10.1548 -10.1546 -10.1543 -10.1540 -10.1538
-10.1512  -1.0623  -1.0617  -0.9942  -0.9874  -0.8581  -0.8120  -0.8056
 -0.7921  -0.7738  -0.7556  -0.7492  -0.7313  -0.7043  -0.6755  -0.6551
 -0.6363  -0.6227  -0.5990  -0.5846  -0.5738  -0.5720  -0.5670  -0.5652
 -0.5512  -0.5193  -0.4929  -0.4814  -0.4800  -0.4717  -0.4662  -0.4480
 -0.4355  -0.4298  -0.4288  -0.4254  -0.4242  -0.4183  -0.4116  -0.4091
 -0.4075  -0.4011  -0.3950  -0.3889  -0.3871  -0.3777  -0.3748  -0.3695
 -0.3642  -0.3551  -0.3492  -0.3462  -0.3414  -0.3399  -0.3319  -0.3260
 -0.3255  -0.3214  -0.3184  -0.3174  -0.3154  -0.3148  -0.3122  -0.2936
 -0.2579  -0.2542  -0.2376  -0.2344  -0.2163

          Ground-State Mulliken Net Atomic Charges

     Atom                 Charge (a.u.)    Spin (a.u.)
  --------------------------------------------------------
      1 C                     0.272589       0.096841
      2 C                    -0.718055      -0.004301
      3 C                    -0.163571       0.057244
      4 C                     0.694800       0.005126
      5 C                    -0.409406       0.034017
      6 C                     0.023049       0.000542
      7 C                    -0.833051       0.188473
      8 C                    -0.739731       0.041159
      9 C                     1.968214       0.082229
     10 C                    -0.630521       0.076986
     11 O                    -0.556378       0.228057
     12 O                    -0.484022       0.183569
     13 O                    -0.301595       0.014173
     14 O                    -0.312429       0.001864
     15 C                    -0.278979       0.011638
     16 C                    -0.893299       0.000802
     17 C                    -0.361589      -0.000543
     18 C                    -0.011141      -0.004849
     19 C                     0.018044      -0.001777
     20 C                     0.042864      -0.000143
     21 C                    -0.056982       0.000452
     22 C                    -0.308876       0.000031
     23 C                    -0.501602       0.000031
     24 C                    -0.298703      -0.000007
     25 C                    -0.710316       0.000003
     26 H                     0.174598      -0.006303
     27 H                     0.226435      -0.004522
     28 H                     0.187656      -0.000023
     29 H                     0.309051      -0.003600
     30 H                     0.320452      -0.000120
     31 H                     0.219181      -0.000200
     32 H                     0.203318       0.002908
     33 H                     0.183373      -0.001736
     34 H                     0.173729       0.002007
     35 H                     0.120349      -0.000486
     36 H                     0.121034       0.000544
     37 H                     0.130052      -0.000048
     38 H                     0.130795      -0.000023
     39 H                     0.137153      -0.000007
     40 H                     0.137279       0.000002
     41 H                     0.134195       0.000003
     42 H                     0.134502      -0.000006
     43 H                     0.133706      -0.000012
     44 H                     0.133278       0.000004
     45 H                     0.132132      -0.000001
     46 H                     0.131946       0.000001
     47 H                     0.129153       0.000003
     48 H                     0.129071      -0.000002
     49 H                     0.136388      -0.000000
     50 H                     0.136161       0.000001
     51 H                     0.145476      -0.000000
     52 H                     0.154732       0.000001
     53 H                     0.145491      -0.000000
  --------------------------------------------------------
  Sum of atomic charges =    -1.000000

                    Cartesian Multipole Moments
 -----------------------------------------------------------------
    Charge (ESU x 10^10)
                -4.8032
    Dipole Moment (Debye)
         X     -17.2327      Y       0.7142      Z       2.0803
       Tot      17.3725
    Quadrupole Moments (Debye-Ang)
        XX    -232.0260     XY       3.8547     YY    -181.3419
        XZ       3.0999     YZ       5.8706     ZZ    -165.5755

 Total job time:  1113.93s(wall), 8422.72s(cpu)
        *  Thank you very much for using Q-Chem.  Have a nice day.  *
