 Q-Chem 5.4, Q-Chem, Inc., Pleasanton, CA (2021)
 Q-Chem 5.4.0 for Intel X86 EM64T Linux

User input:
--------------------------------------------------------------
$molecule
0 1
C                  4.7147890000     -0.7115710000      0.8832070000
O                  4.2589410000      0.3487950000      0.0444690000
C                  2.9268400000      0.5001360000     -0.1509800000
C                  2.5508180000      1.5656760000     -0.9890390000
C                  1.2163620000      1.8038460000     -1.2512350000
C                  0.2184560000      0.9921600000     -0.6896410000
C                 -1.2064340000      1.2731100000     -0.9902280000
O                 -1.5381480000      2.1972860000     -1.7177570000
C                 -2.2296270000      0.3787760000     -0.3667430000
C                 -3.5831020000      0.6115360000     -0.6259260000
C                 -4.5545280000     -0.2054060000     -0.0585960000
C                 -4.1820810000     -1.2640950000      0.7742070000
C                 -2.8386040000     -1.5033910000      1.0378090000
C                 -1.8549130000     -0.6865640000      0.4712930000
C                 -0.4208780000     -0.9651920000      0.7705340000
O                 -0.0906390000     -1.8887650000      1.4974230000
C                  0.5989010000     -0.0693860000      0.1457080000
C                  1.9479470000     -0.3159370000      0.4151420000
H                  4.4188350000     -1.6863890000      0.4839580000
H                  4.3339910000     -0.6004600000      1.9029680000
H                  5.8001810000     -0.6347250000      0.8893400000
H                  3.3293550000      2.1856080000     -1.4169680000
H                  0.9146150000      2.6209320000     -1.8948060000
H                 -3.8489350000      1.4373910000     -1.2741100000
H                 -5.6029430000     -0.0200730000     -0.2632020000
H                 -4.9412330000     -1.8998420000      1.2155380000
H                 -2.5270050000     -2.3178170000      1.6800380000
H                  2.1890380000     -1.1456380000      1.0646710000
$end

$rem
BASIS  =  6-311++G(d,p)
GUI  =  2
JOB_TYPE  =  SP
METHOD  =  B3LYP
SCF_CONVERGENCE  = 8
SOLVENT_METHOD = sm12
$end

$smx
solvent dimethylformamide
charges CM5
$end

--------------------------------------------------------------

             Standard Nuclear Orientation (Angstroms)
    I     Atom           X                Y                Z
 ----------------------------------------------------------------
    1      C       4.7147890000    -0.7115710000     0.8832070000
    2      O       4.2589410000     0.3487950000     0.0444690000
    3      C       2.9268400000     0.5001360000    -0.1509800000
    4      C       2.5508180000     1.5656760000    -0.9890390000
    5      C       1.2163620000     1.8038460000    -1.2512350000
    6      C       0.2184560000     0.9921600000    -0.6896410000
    7      C      -1.2064340000     1.2731100000    -0.9902280000
    8      O      -1.5381480000     2.1972860000    -1.7177570000
    9      C      -2.2296270000     0.3787760000    -0.3667430000
   10      C      -3.5831020000     0.6115360000    -0.6259260000
   11      C      -4.5545280000    -0.2054060000    -0.0585960000
   12      C      -4.1820810000    -1.2640950000     0.7742070000
   13      C      -2.8386040000    -1.5033910000     1.0378090000
   14      C      -1.8549130000    -0.6865640000     0.4712930000
   15      C      -0.4208780000    -0.9651920000     0.7705340000
   16      O      -0.0906390000    -1.8887650000     1.4974230000
   17      C       0.5989010000    -0.0693860000     0.1457080000
   18      C       1.9479470000    -0.3159370000     0.4151420000
   19      H       4.4188350000    -1.6863890000     0.4839580000
   20      H       4.3339910000    -0.6004600000     1.9029680000
   21      H       5.8001810000    -0.6347250000     0.8893400000
   22      H       3.3293550000     2.1856080000    -1.4169680000
   23      H       0.9146150000     2.6209320000    -1.8948060000
   24      H      -3.8489350000     1.4373910000    -1.2741100000
   25      H      -5.6029430000    -0.0200730000    -0.2632020000
   26      H      -4.9412330000    -1.8998420000     1.2155380000
   27      H      -2.5270050000    -2.3178170000     1.6800380000
   28      H       2.1890380000    -1.1456380000     1.0646710000
 ----------------------------------------------------------------

   15    -803.5119158713      3.74e-09  Convergence criterion met
 Total energy in the final basis set =     -803.5335509828

                    Orbital Energies (a.u.)
 --------------------------------------------------------------

 Alpha MOs
 -- Occupied --
-19.1694 -19.1302 -19.1243 -10.2819 -10.2774 -10.2607 -10.2208 -10.2114
-10.2082 -10.2076 -10.2018 -10.1984 -10.1977 -10.1973 -10.1968 -10.1962
-10.1950 -10.1947  -1.0853  -1.0645  -1.0585  -0.8927  -0.8809  -0.8122
 -0.7800  -0.7770  -0.7734  -0.7182  -0.6888  -0.6577  -0.6391  -0.6154
 -0.5878  -0.5620  -0.5600  -0.5178  -0.5095  -0.4955  -0.4867  -0.4774
 -0.4580  -0.4566  -0.4534  -0.4521  -0.4495  -0.4460  -0.4220  -0.4168
 -0.4166  -0.3964  -0.3818  -0.3801  -0.3749  -0.3667  -0.3470  -0.3360
 -0.2857  -0.2856  -0.2802  -0.2769  -0.2727  -0.2486

          Ground-State Mulliken Net Atomic Charges

     Atom                 Charge (a.u.)
  ----------------------------------------
      1 C                    -0.125117
      2 O                    -0.172225
      3 C                    -0.018707
      4 C                     0.126557
      5 C                     0.209117
      6 C                    -0.539828
      7 C                    -1.802794
      8 O                    -0.275537
      9 C                    -0.655175
     10 C                     0.087431
     11 C                     0.456464
     12 C                     0.396575
     13 C                     0.167325
     14 C                     0.106222
     15 C                    -1.428817
     16 O                    -0.237644
     17 C                     0.613581
     18 C                     0.694850
     19 H                     0.206493
     20 H                     0.206383
     21 H                     0.262693
     22 H                     0.294433
     23 H                     0.203398
     24 H                     0.184674
     25 H                     0.324814
     26 H                     0.330339
     27 H                     0.193764
     28 H                     0.190730
  ----------------------------------------
  Sum of atomic charges =     0.000000

                    Cartesian Multipole Moments
 -----------------------------------------------------------------
    Charge (ESU x 10^10)
                 0.0000
    Dipole Moment (Debye)
         X       1.0348      Y      -1.5743      Z       1.2672
       Tot       2.2705
    Quadrupole Moments (Debye-Ang)
        XX     -71.8684     XY       2.9671     YY    -109.2472
        XZ      -0.1616     YZ       2.5130     ZZ    -107.9566

 Total job time:  642.25s(wall), 4960.84s(cpu)
        *  Thank you very much for using Q-Chem.  Have a nice day.  *
