 Q-Chem 5.4, Q-Chem, Inc., Pleasanton, CA (2021)
 Q-Chem 5.4.0 for Intel X86 EM64T Linux

User input:
--------------------------------------------------------------
$molecule
-1 2
C                  3.7362650000      0.0881790000     -0.2305650000
C                  2.7733300000      0.1299170000      0.9716410000
C                  1.3211200000      0.2744930000      0.5819990000
C                  0.5925010000     -0.9628150000      0.3416400000
O                  1.1718790000     -2.0677630000      0.4631980000
C                 -0.8272780000     -0.8419560000     -0.0449610000
C                 -1.6517450000     -1.9641330000     -0.2940510000
O                 -1.1960880000     -3.2526920000     -0.1894150000
C                 -2.9846040000     -1.7804510000     -0.6609050000
O                 -3.7556300000     -2.9100470000     -0.8948280000
C                 -3.5327700000     -0.5090730000     -0.7906730000
O                 -4.8600580000     -0.3954660000     -1.1575750000
C                 -2.7569390000      0.6122360000     -0.5541380000
C                 -1.4017740000      0.4624030000     -0.1792000000
C                 -0.6426870000      1.6758520000      0.0571060000
C                  0.7266080000      1.5158010000      0.4358940000
O                  1.4156990000      2.6907960000      0.6436070000
O                 -1.1899720000      2.8365050000     -0.0740160000
O                 -3.3515680000      1.8253190000     -0.6967070000
H                  3.4819740000     -0.7578120000     -0.8725920000
H                  3.6706300000      1.0000290000     -0.8329320000
H                  4.7761330000     -0.0305190000      0.0969600000
H                  2.8703180000     -0.8081830000      1.5230650000
H                  3.0832280000      0.9284730000      1.6639750000
H                 -1.9424110000     -3.8257040000     -0.4065680000
H                  2.3032450000      2.4618900000      0.9362330000
H                 -2.5826900000      2.4826130000     -0.4697170000
H                 -4.6409510000     -2.6124920000     -1.1356000000
H                 -5.0415990000      0.5554590000     -1.1900020000
$end

$rem
BASIS  =  6-311++G(d,p)
GUI  =  2
JOB_TYPE  =  SP
METHOD  =  B3LYP
SCF_CONVERGENCE  = 8
SOLVENT_METHOD = sm12
$end

$smx
solvent dimethylformamide
charges CM5
$end

--------------------------------------------------------------

             Standard Nuclear Orientation (Angstroms)
    I     Atom           X                Y                Z
 ----------------------------------------------------------------
    1      C       3.7362650000     0.0881790000    -0.2305650000
    2      C       2.7733300000     0.1299170000     0.9716410000
    3      C       1.3211200000     0.2744930000     0.5819990000
    4      C       0.5925010000    -0.9628150000     0.3416400000
    5      O       1.1718790000    -2.0677630000     0.4631980000
    6      C      -0.8272780000    -0.8419560000    -0.0449610000
    7      C      -1.6517450000    -1.9641330000    -0.2940510000
    8      O      -1.1960880000    -3.2526920000    -0.1894150000
    9      C      -2.9846040000    -1.7804510000    -0.6609050000
   10      O      -3.7556300000    -2.9100470000    -0.8948280000
   11      C      -3.5327700000    -0.5090730000    -0.7906730000
   12      O      -4.8600580000    -0.3954660000    -1.1575750000
   13      C      -2.7569390000     0.6122360000    -0.5541380000
   14      C      -1.4017740000     0.4624030000    -0.1792000000
   15      C      -0.6426870000     1.6758520000     0.0571060000
   16      C       0.7266080000     1.5158010000     0.4358940000
   17      O       1.4156990000     2.6907960000     0.6436070000
   18      O      -1.1899720000     2.8365050000    -0.0740160000
   19      O      -3.3515680000     1.8253190000    -0.6967070000
   20      H       3.4819740000    -0.7578120000    -0.8725920000
   21      H       3.6706300000     1.0000290000    -0.8329320000
   22      H       4.7761330000    -0.0305190000     0.0969600000
   23      H       2.8703180000    -0.8081830000     1.5230650000
   24      H       3.0832280000     0.9284730000     1.6639750000
   25      H      -1.9424110000    -3.8257040000    -0.4065680000
   26      H       2.3032450000     2.4618900000     0.9362330000
   27      H      -2.5826900000     2.4826130000    -0.4697170000
   28      H      -4.6409510000    -2.6124920000    -1.1356000000
   29      H      -5.0415990000     0.5554590000    -1.1900020000
 ----------------------------------------------------------------

   20    -990.2261431125      5.73e-09  Convergence criterion met
 Total energy in the final basis set =     -990.3212138198

                    Orbital Energies (a.u.)
 --------------------------------------------------------------

 Alpha MOs
 -- Occupied --
-19.1696 -19.1669 -19.1491 -19.1477 -19.1291 -19.0838 -19.0636 -10.2358
-10.2350 -10.2327 -10.2292 -10.2237 -10.2233 -10.2222 -10.1766 -10.1762
-10.1744 -10.1642 -10.1629  -1.0910  -1.0718  -1.0601  -1.0509  -1.0419
 -0.9931  -0.9920  -0.8550  -0.8107  -0.7732  -0.7405  -0.7284  -0.6823
 -0.6521  -0.6410  -0.6143  -0.5822  -0.5790  -0.5493  -0.5426  -0.5196
 -0.5024  -0.4846  -0.4645  -0.4632  -0.4585  -0.4410  -0.4323  -0.4203
 -0.4172  -0.4083  -0.4062  -0.3990  -0.3867  -0.3849  -0.3827  -0.3811
 -0.3723  -0.3645  -0.3618  -0.3580  -0.3464  -0.3457  -0.3407  -0.2980
 -0.2532  -0.2475  -0.2275  -0.2213  -0.2126  -0.1421

 Beta MOs
 -- Occupied --
-19.1692 -19.1668 -19.1487 -19.1474 -19.1284 -19.0780 -19.0582 -10.2351
-10.2345 -10.2325 -10.2283 -10.2227 -10.2214 -10.2203 -10.1771 -10.1758
-10.1745 -10.1627 -10.1627  -1.0903  -1.0711  -1.0586  -1.0501  -1.0402
 -0.9839  -0.9825  -0.8530  -0.8070  -0.7710  -0.7379  -0.7268  -0.6755
 -0.6507  -0.6396  -0.6125  -0.5805  -0.5778  -0.5477  -0.5405  -0.5189
 -0.5015  -0.4831  -0.4626  -0.4606  -0.4544  -0.4397  -0.4265  -0.4188
 -0.4105  -0.4054  -0.4039  -0.3946  -0.3851  -0.3825  -0.3802  -0.3764
 -0.3707  -0.3614  -0.3600  -0.3500  -0.3437  -0.3381  -0.3288  -0.2880
 -0.2484  -0.2293  -0.2223  -0.2158  -0.2020

          Ground-State Mulliken Net Atomic Charges

     Atom                 Charge (a.u.)    Spin (a.u.)
  --------------------------------------------------------
      1 C                    -0.181117       0.000083
      2 C                     1.213315       0.010700
      3 C                     0.996906       0.117590
      4 C                    -1.452439       0.037880
      5 O                    -0.337338       0.204744
      6 C                    -0.547445       0.038754
      7 C                    -0.417214       0.028445
      8 O                    -0.210892       0.005306
      9 C                     0.822867       0.057122
     10 O                    -0.221411       0.007962
     11 C                     0.947022       0.013508
     12 O                    -0.211036       0.003149
     13 C                    -0.091089       0.078960
     14 C                    -0.486853      -0.041359
     15 C                    -1.535153       0.172690
     16 C                    -0.860640       0.017496
     17 O                    -0.128320       0.012712
     18 O                    -0.454640       0.212784
     19 O                    -0.446775       0.019835
     20 H                     0.113843      -0.001888
     21 H                     0.145638       0.001890
     22 H                     0.242317       0.003746
     23 H                     0.152964       0.004937
     24 H                     0.217523      -0.000757
     25 H                     0.325932      -0.000422
     26 H                     0.317534      -0.000793
     27 H                     0.391020      -0.004550
     28 H                     0.361360      -0.000324
     29 H                     0.334120      -0.000201
  --------------------------------------------------------
  Sum of atomic charges =    -1.000000

                    Cartesian Multipole Moments
 -----------------------------------------------------------------
    Charge (ESU x 10^10)
                -4.8032
    Dipole Moment (Debye)
         X       2.0970      Y      -0.8547      Z      -0.2574
       Tot       2.2791
    Quadrupole Moments (Debye-Ang)
        XX    -118.4158     XY      13.7466     YY    -148.5743
        XZ       0.5651     YZ       3.1912     ZZ    -114.9412

 Total job time:  959.31s(wall), 7076.92s(cpu)
        *  Thank you very much for using Q-Chem.  Have a nice day.  *
