 Q-Chem 5.4, Q-Chem, Inc., Pleasanton, CA (2021)
 Q-Chem 5.4.0 for Intel X86 EM64T Linux

User input:
--------------------------------------------------------------
$molecule
-1 2
C                 -2.2230290000      4.7335290000      5.3291110000
C                 -3.4464820000      4.0940820000      5.4011110000
C                 -3.7871010000      3.1170750000      4.4451030000
C                 -1.3039710000      4.4161800000      4.3063900000
C                 -1.6432130000      3.4308460000      3.3406880000
C                 -2.8957250000      2.7986590000      3.4332370000
C                 -0.0264720000      5.0867180000      4.2187920000
C                  0.8490060000      4.6734340000      3.1476250000
C                  0.5763710000      3.6877790000      2.2100730000
C                 -0.7247980000      3.0518660000      2.2381720000
O                  0.3784770000      6.0042430000      5.0029670000
O                 -1.1149400000      2.2152500000      1.3789650000
O                  2.0226080000      5.3593200000      3.1211450000
H                 -1.9371180000      5.4914380000      6.0495700000
H                 -4.1458570000      4.3449170000      6.1932440000
H                 -4.7482810000      2.6150810000      4.5011830000
H                 -3.1345700000      2.0539560000      2.6830660000
H                  1.9247300000      5.9671650000      3.8882420000
C                  2.9600840000      2.8749330000      1.6844750000
C                  3.0173920000      2.0956780000      2.8408010000
C                  4.1479120000      3.1096290000      0.9830230000
C                  5.3586490000      2.5775070000      1.4193330000
C                  5.4031110000      1.7962220000      2.5749860000
C                  4.2268040000      1.5594460000      3.2835840000
H                  2.1076930000      1.9189100000      3.4030170000
H                  4.1132700000      3.7140810000      0.0823290000
H                  6.2690750000      2.7766770000      0.8623600000
H                  4.2488920000      0.9591750000      4.1876490000
H                  6.3452010000      1.3839770000      2.9220490000
C                  1.6511410000      3.4496330000      1.1351700000
H                  1.9131870000      4.4528250000      0.7762750000
N                  1.2513110000      2.6985350000     -0.0813040000
C                  1.3086890000      1.2331060000     -0.0034150000
C                  0.6777190000      0.6234520000     -1.2549490000
C                  0.7464280000     -0.9071140000     -1.2771630000
C                  0.0999160000     -1.5316360000     -2.5190240000
C                  0.1656320000     -3.0629940000     -2.5458150000
C                 -0.4853150000     -3.6880040000     -3.7850880000
H                  0.2769040000      2.9321430000     -0.2487290000
H                  0.7837400000      0.8428220000      0.8788220000
H                  2.3573770000      0.9255980000      0.0609630000
H                  1.1767920000      1.0329350000     -2.1424010000
H                 -0.3718670000      0.9384490000     -1.3051340000
H                  0.2562950000     -1.3028280000     -0.3787860000
H                  1.7958540000     -1.2262520000     -1.2185540000
H                  0.5862020000     -1.1335100000     -3.4197350000
H                 -0.9493850000     -1.2141670000     -2.5756860000
H                 -0.3189560000     -3.4601930000     -1.6443430000
H                  1.2152690000     -3.3809960000     -2.4899790000
H                 -0.0019730000     -3.2897240000     -4.6870850000
H                 -1.5350470000     -3.3710790000     -3.8396530000
C                 -0.4189340000     -5.2193480000     -3.8119800000
C                 -1.0719610000     -5.8439140000     -5.0503430000
C                 -1.0041410000     -7.3751520000     -5.0776550000
C                 -1.6575470000     -7.9993220000     -6.3159800000
C                 -1.5887690000     -9.5304870000     -6.3436210000
C                 -2.2427620000    -10.1544210000     -7.5817370000
C                 -2.1731910000    -11.6855600000     -7.6096750000
C                 -2.8274430000    -12.3096170000     -8.8473330000
C                 -2.7579720000    -13.8407310000     -8.8763560000
C                 -3.4145010000    -14.4546620000    -10.1164950000
H                 -0.9013660000     -5.6174350000     -2.9097170000
H                  0.6309030000     -5.5365090000     -3.7584160000
H                 -0.5904510000     -5.4448850000     -5.9528350000
H                 -2.1220280000     -5.5278360000     -5.1029920000
H                 -1.4855500000     -7.7741810000     -4.1752760000
H                  0.0459770000     -7.6912830000     -5.0251340000
H                 -1.1766670000     -7.5997120000     -7.2184660000
H                 -2.7078090000     -7.6838480000     -6.3679770000
H                 -2.0693370000     -9.9300830000     -5.4410600000
H                 -0.5384630000     -9.8459880000     -6.2920050000
H                 -1.7626420000     -9.7543820000     -8.4843810000
H                 -3.2931980000     -9.8394810000     -7.6329290000
H                 -2.6531040000    -12.0855950000     -6.7069440000
H                 -1.1226930000    -12.0005230000     -7.5587840000
H                 -2.3481340000    -11.9101520000     -9.7508490000
H                 -3.8783750000    -11.9957870000     -8.8986960000
H                 -3.2373040000    -14.2403370000     -7.9742570000
H                 -1.7081740000    -14.1548370000     -8.8260400000
H                 -4.4744300000    -14.1872410000    -10.1759920000
H                 -3.3478590000    -15.5464300000    -10.1065650000
H                 -2.9338550000    -14.1009670000    -11.0343270000
$end
$rem
MAX_SCF_CYCLES=200
BASIS  =  6-311++G(d,p)
GUI  =  2
JOB_TYPE  =  SP
METHOD  =  B3LYP
SCF_ALGORITHM = RCA_DIIS
THRESH = 14
SOLVENT_METHOD = PCM
$end
$pcm
theory = CPCM
$end
$solvent
dielectric 37.219
opticaldielectric 1.43
$end

--------------------------------------------------------------

             Standard Nuclear Orientation (Angstroms)
    I     Atom           X                Y                Z
 ----------------------------------------------------------------
    1      C      -2.2230290000     4.7335290000     5.3291110000
    2      C      -3.4464820000     4.0940820000     5.4011110000
    3      C      -3.7871010000     3.1170750000     4.4451030000
    4      C      -1.3039710000     4.4161800000     4.3063900000
    5      C      -1.6432130000     3.4308460000     3.3406880000
    6      C      -2.8957250000     2.7986590000     3.4332370000
    7      C      -0.0264720000     5.0867180000     4.2187920000
    8      C       0.8490060000     4.6734340000     3.1476250000
    9      C       0.5763710000     3.6877790000     2.2100730000
   10      C      -0.7247980000     3.0518660000     2.2381720000
   11      O       0.3784770000     6.0042430000     5.0029670000
   12      O      -1.1149400000     2.2152500000     1.3789650000
   13      O       2.0226080000     5.3593200000     3.1211450000
   14      H      -1.9371180000     5.4914380000     6.0495700000
   15      H      -4.1458570000     4.3449170000     6.1932440000
   16      H      -4.7482810000     2.6150810000     4.5011830000
   17      H      -3.1345700000     2.0539560000     2.6830660000
   18      H       1.9247300000     5.9671650000     3.8882420000
   19      C       2.9600840000     2.8749330000     1.6844750000
   20      C       3.0173920000     2.0956780000     2.8408010000
   21      C       4.1479120000     3.1096290000     0.9830230000
   22      C       5.3586490000     2.5775070000     1.4193330000
   23      C       5.4031110000     1.7962220000     2.5749860000
   24      C       4.2268040000     1.5594460000     3.2835840000
   25      H       2.1076930000     1.9189100000     3.4030170000
   26      H       4.1132700000     3.7140810000     0.0823290000
   27      H       6.2690750000     2.7766770000     0.8623600000
   28      H       4.2488920000     0.9591750000     4.1876490000
   29      H       6.3452010000     1.3839770000     2.9220490000
   30      C       1.6511410000     3.4496330000     1.1351700000
   31      H       1.9131870000     4.4528250000     0.7762750000
   32      N       1.2513110000     2.6985350000    -0.0813040000
   33      C       1.3086890000     1.2331060000    -0.0034150000
   34      C       0.6777190000     0.6234520000    -1.2549490000
   35      C       0.7464280000    -0.9071140000    -1.2771630000
   36      C       0.0999160000    -1.5316360000    -2.5190240000
   37      C       0.1656320000    -3.0629940000    -2.5458150000
   38      C      -0.4853150000    -3.6880040000    -3.7850880000
   39      H       0.2769040000     2.9321430000    -0.2487290000
   40      H       0.7837400000     0.8428220000     0.8788220000
   41      H       2.3573770000     0.9255980000     0.0609630000
   42      H       1.1767920000     1.0329350000    -2.1424010000
   43      H      -0.3718670000     0.9384490000    -1.3051340000
   44      H       0.2562950000    -1.3028280000    -0.3787860000
   45      H       1.7958540000    -1.2262520000    -1.2185540000
   46      H       0.5862020000    -1.1335100000    -3.4197350000
   47      H      -0.9493850000    -1.2141670000    -2.5756860000
   48      H      -0.3189560000    -3.4601930000    -1.6443430000
   49      H       1.2152690000    -3.3809960000    -2.4899790000
   50      H      -0.0019730000    -3.2897240000    -4.6870850000
   51      H      -1.5350470000    -3.3710790000    -3.8396530000
   52      C      -0.4189340000    -5.2193480000    -3.8119800000
   53      C      -1.0719610000    -5.8439140000    -5.0503430000
   54      C      -1.0041410000    -7.3751520000    -5.0776550000
   55      C      -1.6575470000    -7.9993220000    -6.3159800000
   56      C      -1.5887690000    -9.5304870000    -6.3436210000
   57      C      -2.2427620000   -10.1544210000    -7.5817370000
   58      C      -2.1731910000   -11.6855600000    -7.6096750000
   59      C      -2.8274430000   -12.3096170000    -8.8473330000
   60      C      -2.7579720000   -13.8407310000    -8.8763560000
   61      C      -3.4145010000   -14.4546620000   -10.1164950000
   62      H      -0.9013660000    -5.6174350000    -2.9097170000
   63      H       0.6309030000    -5.5365090000    -3.7584160000
   64      H      -0.5904510000    -5.4448850000    -5.9528350000
   65      H      -2.1220280000    -5.5278360000    -5.1029920000
   66      H      -1.4855500000    -7.7741810000    -4.1752760000
   67      H       0.0459770000    -7.6912830000    -5.0251340000
   68      H      -1.1766670000    -7.5997120000    -7.2184660000
   69      H      -2.7078090000    -7.6838480000    -6.3679770000
   70      H      -2.0693370000    -9.9300830000    -5.4410600000
   71      H      -0.5384630000    -9.8459880000    -6.2920050000
   72      H      -1.7626420000    -9.7543820000    -8.4843810000
   73      H      -3.2931980000    -9.8394810000    -7.6329290000
   74      H      -2.6531040000   -12.0855950000    -6.7069440000
   75      H      -1.1226930000   -12.0005230000    -7.5587840000
   76      H      -2.3481340000   -11.9101520000    -9.7508490000
   77      H      -3.8783750000   -11.9957870000    -8.8986960000
   78      H      -3.2373040000   -14.2403370000    -7.9742570000
   79      H      -1.7081740000   -14.1548370000    -8.8260400000
   80      H      -4.4744300000   -14.1872410000   -10.1759920000
   81      H      -3.3478590000   -15.5464300000   -10.1065650000
   82      H      -2.9338550000   -14.1009670000   -11.0343270000
 ----------------------------------------------------------------

   89   -1565.6460512918      5.11E-06 Convergence criterion met
 Total energy in the final basis set = -1565.64605129

                    Orbital Energies (a.u.)
 --------------------------------------------------------------

 Alpha MOs
 -- Occupied --
-19.1457 -19.0877 -19.0734 -14.2871 -10.2290 -10.2244 -10.2227 -10.2037
-10.1786 -10.1752 -10.1736 -10.1727 -10.1725 -10.1722 -10.1715 -10.1713
-10.1713 -10.1711 -10.1693 -10.1692 -10.1684 -10.1679 -10.1579 -10.1551
-10.1549 -10.1548 -10.1547 -10.1546 -10.1546 -10.1544 -10.1544 -10.1544
-10.1543 -10.1541 -10.1539 -10.1524 -10.1516  -1.0677  -1.0015  -0.9989
 -0.8991  -0.8595  -0.8536  -0.8103  -0.8076  -0.8023  -0.7913  -0.7771
 -0.7660  -0.7523  -0.7510  -0.7453  -0.7386  -0.7298  -0.7055  -0.6856
 -0.6722  -0.6568  -0.6383  -0.6191  -0.6112  -0.6095  -0.6014  -0.5889
 -0.5754  -0.5738  -0.5715  -0.5709  -0.5664  -0.5647  -0.5628  -0.5387
 -0.5139  -0.5056  -0.4863  -0.4830  -0.4782  -0.4716  -0.4663  -0.4639
 -0.4595  -0.4539  -0.4488  -0.4432  -0.4393  -0.4370  -0.4315  -0.4286
 -0.4266  -0.4228  -0.4204  -0.4176  -0.4169  -0.4123  -0.4053  -0.4039
 -0.3979  -0.3951  -0.3916  -0.3897  -0.3862  -0.3801  -0.3761  -0.3742
 -0.3710  -0.3666  -0.3601  -0.3584  -0.3536  -0.3500  -0.3447  -0.3423
 -0.3404  -0.3398  -0.3366  -0.3356  -0.3324  -0.3289  -0.3270  -0.3223
 -0.3204  -0.3186  -0.3169  -0.3161  -0.3152  -0.3141  -0.3139  -0.3073
 -0.2862  -0.2683  -0.2632  -0.2582  -0.2559  -0.2502  -0.2454  -0.2322
 -0.2158  -0.1534

 Beta MOs
 -- Occupied --
-19.1450 -19.0818 -19.0684 -14.2872 -10.2276 -10.2232 -10.2198 -10.2038
-10.1786 -10.1752 -10.1727 -10.1725 -10.1725 -10.1722 -10.1715 -10.1713
-10.1706 -10.1705 -10.1694 -10.1692 -10.1683 -10.1670 -10.1579 -10.1551
-10.1549 -10.1548 -10.1547 -10.1546 -10.1546 -10.1544 -10.1544 -10.1544
-10.1543 -10.1541 -10.1539 -10.1524 -10.1516  -1.0653  -0.9926  -0.9887
 -0.8989  -0.8573  -0.8535  -0.8102  -0.8054  -0.8014  -0.7910  -0.7767
 -0.7653  -0.7520  -0.7491  -0.7451  -0.7375  -0.7297  -0.7052  -0.6830
 -0.6676  -0.6541  -0.6379  -0.6180  -0.6111  -0.6077  -0.6004  -0.5887
 -0.5750  -0.5734  -0.5712  -0.5705  -0.5661  -0.5647  -0.5619  -0.5369
 -0.5129  -0.5043  -0.4842  -0.4824  -0.4778  -0.4713  -0.4654  -0.4636
 -0.4583  -0.4538  -0.4485  -0.4425  -0.4385  -0.4338  -0.4292  -0.4259
 -0.4248  -0.4227  -0.4185  -0.4166  -0.4124  -0.4114  -0.4045  -0.4029
 -0.3972  -0.3931  -0.3905  -0.3859  -0.3807  -0.3783  -0.3756  -0.3737
 -0.3666  -0.3631  -0.3582  -0.3535  -0.3512  -0.3490  -0.3423  -0.3402
 -0.3394  -0.3360  -0.3354  -0.3321  -0.3295  -0.3282  -0.3266  -0.3223
 -0.3203  -0.3186  -0.3169  -0.3161  -0.3152  -0.3141  -0.3139  -0.3073
 -0.2861  -0.2582  -0.2555  -0.2523  -0.2500  -0.2490  -0.2410  -0.2242
 -0.2130

          Ground-State Mulliken Net Atomic Charges

     Atom                 Charge (a.u.)    Spin (a.u.)
  --------------------------------------------------------
      1 C                    -0.033879       0.074038
      2 C                    -0.473057      -0.001726
      3 C                    -0.557019       0.068390
      4 C                     0.137565       0.000009
      5 C                     0.381039       0.051903
      6 C                    -0.042130       0.000730
      7 C                    -0.715878       0.183355
      8 C                    -0.470282       0.052855
      9 C                     1.006664       0.071996
     10 C                    -0.524728       0.070902
     11 O                    -0.536605       0.225476
     12 O                    -0.441655       0.196893
     13 O                    -0.257355       0.020662
     14 H                     0.189168      -0.003865
     15 H                     0.195251      -0.000531
     16 H                     0.198849      -0.004997
     17 H                     0.188130      -0.000195
     18 H                     0.314832      -0.003630
     19 C                     0.041178      -0.022012
     20 C                    -0.299568      -0.013726
     21 C                     0.197632       0.014744
     22 C                    -0.309108      -0.004351
     23 C                    -0.471413      -0.000617
     24 C                    -0.221538       0.002254
     25 H                     0.177443      -0.000482
     26 H                     0.193899      -0.000291
     27 H                     0.219713      -0.000042
     28 H                     0.222447       0.000306
     29 H                     0.187204      -0.000017
     30 C                     0.202424       0.018488
     31 H                     0.236617       0.001270
     32 N                     0.034715      -0.006719
     33 C                    -0.852419       0.001815
     34 C                    -0.286778       0.005373
     35 C                    -0.051688      -0.000855
     36 C                    -0.087763      -0.000604
     37 C                    -0.188255       0.000102
     38 C                    -0.283045       0.000011
     39 H                     0.274591       0.001601
     40 H                     0.213851       0.001212
     41 H                     0.110306       0.000627
     42 H                     0.154202      -0.000097
     43 H                     0.147090      -0.000697
     44 H                     0.120713       0.000349
     45 H                     0.137540      -0.000047
     46 H                     0.123401       0.000111
     47 H                     0.132396       0.000081
     48 H                     0.136384      -0.000043
     49 H                     0.136646      -0.000015
     50 H                     0.136874       0.000007
     51 H                     0.135984       0.000011
     52 C                    -0.413540      -0.000004
     53 C                    -0.414966       0.000145
     54 C                    -0.338749       0.000031
     55 C                    -0.194111      -0.000015
     56 C                    -0.041036       0.000009
     57 C                    -0.025332       0.000004
     58 C                    -0.197487       0.000001
     59 C                    -0.403085      -0.000001
     60 C                    -0.277138      -0.000001
     61 C                    -0.710713      -0.000000
     62 H                     0.134681      -0.000005
     63 H                     0.134166      -0.000006
     64 H                     0.133373      -0.000068
     65 H                     0.133953      -0.000072
     66 H                     0.134247      -0.000018
     67 H                     0.134220      -0.000017
     68 H                     0.134178       0.000003
     69 H                     0.134710       0.000003
     70 H                     0.133031      -0.000000
     71 H                     0.132910      -0.000000
     72 H                     0.133146      -0.000000
     73 H                     0.133098      -0.000000
     74 H                     0.131014       0.000000
     75 H                     0.131081      -0.000000
     76 H                     0.127927       0.000000
     77 H                     0.128074       0.000000
     78 H                     0.135570       0.000000
     79 H                     0.135529       0.000000
     80 H                     0.144800       0.000000
     81 H                     0.151105       0.000000
     82 H                     0.144764       0.000000
  --------------------------------------------------------
  Sum of atomic charges =    -1.000000

                    Cartesian Multipole Moments
 -----------------------------------------------------------------
    Charge (ESU x 10^10)
                -4.8032
    Dipole Moment (Debye)
         X      -0.7564      Y     -19.5232      Z     -12.9500
       Tot      23.4399
    Quadrupole Moments (Debye-Ang)
        XX    -236.3327     XY      -8.1941     YY    -331.4517
        XZ      -5.9897     YZ     -71.5638     ZZ    -291.5440

 Total job time:  10752.09s(wall), 66078.59s(cpu)
        *  Thank you very much for using Q-Chem.  Have a nice day.  *
