 Gaussian 16, Revision A.03,
 Gaussian 16:  ES64L-G16RevA.03 25-Dec-2016

 ----------------------------------------------------------------
 #P UB3LYP/6-311++G(d,p) SCRF=(PCM,Solvent=n,n-DiMethylFormamide)
 ----------------------------------------------------------------

 ------------------
 Quinone PCM in DMF
 ------------------
 Symbolic Z-matrix:
 Charge =  0 Multiplicity = 1

                         Standard orientation:
 ---------------------------------------------------------------------
 Center     Atomic      Atomic             Coordinates (Angstroms)
 Number     Number       Type             X           Y           Z
 ---------------------------------------------------------------------
      1          6           0        1.165563   -0.748952    1.019379
      2          6           0        0.706994    0.349967    0.098359
      3          6           0        1.617092    1.061619   -0.590740
      4          6           0        3.064717    0.761525   -0.535792
      5          6           0        3.496308   -0.380176    0.307239
      6          6           0        2.609721   -1.082192    1.022940
      7          8           0        0.388509   -1.317888    1.763747
      8          8           0        3.872624    1.425595   -1.165951
      9          6           0       -0.738284    0.684566    0.076807
     10          1           0        4.558644   -0.597365    0.311732
     11          1           0        1.332204    1.873086   -1.251415
     12          1           0        2.893999   -1.912187    1.660054
     13          6           0       -1.760601   -0.226237   -0.233719
     14          6           0       -3.105696    0.119817   -0.180344
     15          6           0       -3.466085    1.414850    0.174079
     16          6           0       -2.476271    2.345573    0.477837
     17          6           0       -1.133585    1.978957    0.435807
     18          7           0       -1.442937   -1.594833   -0.699804
     19          8           0       -2.317999   -2.442223   -0.611153
     20          8           0       -0.329120   -1.789833   -1.174264
     21          1           0       -3.847578   -0.626794   -0.427875
     22          1           0       -4.512524    1.692176    0.209248
     23          1           0       -2.746057    3.357085    0.757993
     24          1           0       -0.369474    2.696705    0.708742
 ---------------------------------------------------------------------

 SCF Done:  E(UB3LYP) =  -817.244991152     A.U. after   17 cycles

 The electronic state is 1-A.
 Alpha  occ. eigenvalues --  -19.18308 -19.18262 -19.15177 -19.14758 -14.57606
 Alpha  occ. eigenvalues --  -10.29857 -10.29246 -10.25800 -10.23729 -10.23405
 Alpha  occ. eigenvalues --  -10.21846 -10.21759 -10.21575 -10.21303 -10.20872
 Alpha  occ. eigenvalues --  -10.20745 -10.20538  -1.26129  -1.08891  -1.08364
 Alpha  occ. eigenvalues --   -1.07703  -0.91432  -0.87343  -0.82497  -0.82177
 Alpha  occ. eigenvalues --   -0.77468  -0.72685  -0.71136  -0.66571  -0.63205
 Alpha  occ. eigenvalues --   -0.63009  -0.60608  -0.57628  -0.56365  -0.54423
 Alpha  occ. eigenvalues --   -0.53408  -0.52787  -0.51314  -0.49429  -0.49242
 Alpha  occ. eigenvalues --   -0.47408  -0.46407  -0.45612  -0.45498  -0.44103
 Alpha  occ. eigenvalues --   -0.42895  -0.42049  -0.40378  -0.40021  -0.38658
 Alpha  occ. eigenvalues --   -0.34743  -0.34343  -0.33189  -0.31852  -0.31066
 Alpha  occ. eigenvalues --   -0.30067  -0.29346  -0.28816  -0.28124
 Alpha virt. eigenvalues --   -0.14231  -0.11585  -0.05464  -0.03685  -0.01969
 Alpha virt. eigenvalues --   -0.00850  -0.00541   0.00396   0.01172   0.01838
 Alpha virt. eigenvalues --    0.02230   0.03142   0.04093   0.04410   0.04647

  Beta  occ. eigenvalues --  -19.18308 -19.18262 -19.15177 -19.14758 -14.57606
  Beta  occ. eigenvalues --  -10.29857 -10.29246 -10.25800 -10.23729 -10.23405
  Beta  occ. eigenvalues --  -10.21846 -10.21759 -10.21575 -10.21303 -10.20872
  Beta  occ. eigenvalues --  -10.20745 -10.20538  -1.26129  -1.08891  -1.08364
  Beta  occ. eigenvalues --   -1.07703  -0.91432  -0.87343  -0.82497  -0.82177
  Beta  occ. eigenvalues --   -0.77468  -0.72685  -0.71136  -0.66571  -0.63205
  Beta  occ. eigenvalues --   -0.63009  -0.60608  -0.57628  -0.56365  -0.54423
  Beta  occ. eigenvalues --   -0.53408  -0.52787  -0.51314  -0.49429  -0.49242
  Beta  occ. eigenvalues --   -0.47408  -0.46407  -0.45612  -0.45498  -0.44103
  Beta  occ. eigenvalues --   -0.42895  -0.42049  -0.40378  -0.40021  -0.38658
  Beta  occ. eigenvalues --   -0.34743  -0.34343  -0.33189  -0.31852  -0.31066
  Beta  occ. eigenvalues --   -0.30067  -0.29346  -0.28816  -0.28124
  Beta virt. eigenvalues --   -0.14231  -0.11585  -0.05464  -0.03685  -0.01969
  Beta virt. eigenvalues --   -0.00850  -0.00541   0.00396   0.01172   0.01838
  Beta virt. eigenvalues --    0.02230   0.03142   0.04093   0.04410   0.04647

 Mulliken charges and spin densities:
               1          2
     1  C   -1.286625  -0.000000
     2  C    1.786548   0.000000
     3  C   -0.362865  -0.000000
     4  C   -0.351965   0.000000
     5  C    0.110145  -0.000000
     6  C   -0.068883  -0.000000
     7  O   -0.235089  -0.000000
     8  O   -0.285504  -0.000000
     9  C    0.917720  -0.000000
    10  H    0.249570  -0.000000
    11  H    0.258128  -0.000000
    12  H    0.248678  -0.000000
    13  C   -0.192204  -0.000000
    14  C   -0.073021   0.000000
    15  C   -0.369678   0.000000
    16  C   -0.417396  -0.000000
    17  C   -0.568501   0.000000
    18  N   -0.260362   0.000000
    19  O   -0.000431  -0.000000
    20  O   -0.020131  -0.000000
    21  H    0.262503  -0.000000
    22  H    0.215719   0.000000
    23  H    0.218507   0.000000
    24  H    0.225137  -0.000000
 Sum of Mulliken charges =  -0.00000   0.00000

 Dipole moment (field-independent basis, Debye):
    X=             -2.2248    Y=              5.1102    Z=              1.7095  Tot=              5.8297
 Quadrupole moment (field-independent basis, Debye-Ang):
   XX=            -88.4113   YY=           -100.4419   ZZ=           -103.7242
   XY=            -21.4660   XZ=              9.2159   YZ=              2.7761

 Normal termination of Gaussian 16 at Wed Jan 24 22:51:59 2024.
