 Gaussian 16, Revision A.03,
 Gaussian 16:  ES64L-G16RevA.03 25-Dec-2016

 ----------------------------------------------------------------------
 #P UB3LYP/6-311++G(d,p) nosym opt freq SCRF=(PCM,Solvent=n,n-DiMethylF
 ormamide)
 ----------------------------------------------------------------------

 -------
 Reduced
 -------
 Symbolic Z-matrix:
 Charge = -4 Multiplicity = 1

 SCF Done:  E(UB3LYP) =  -1782.44337920     A.U. after   18 cycles
 SCF Done:  E(UB3LYP) =  -1782.44622054     A.U. after   15 cycles
 SCF Done:  E(UB3LYP) =  -1782.44652315     A.U. after   13 cycles
 SCF Done:  E(UB3LYP) =  -1782.44656597     A.U. after   12 cycles
 SCF Done:  E(UB3LYP) =  -1782.44657473     A.U. after   11 cycles
 SCF Done:  E(UB3LYP) =  -1782.44658327     A.U. after   11 cycles
 SCF Done:  E(UB3LYP) =  -1782.44658321     A.U. after   11 cycles
 SCF Done:  E(UB3LYP) =  -1782.44658474     A.U. after   10 cycles
 SCF Done:  E(UB3LYP) =  -1782.44658483     A.U. after    9 cycles
 SCF Done:  E(UB3LYP) =  -1782.44658490     A.U. after    9 cycles
 SCF Done:  E(UB3LYP) =  -1782.44202560     A.U. after   15 cycles
 SCF Done:  E(UB3LYP) =  -1782.44660350     A.U. after   12 cycles
 SCF Done:  E(UB3LYP) =  -1782.44661430     A.U. after    8 cycles
 SCF Done:  E(UB3LYP) =  -1782.44660781     A.U. after   11 cycles
 SCF Done:  E(UB3LYP) =  -1782.44661816     A.U. after   11 cycles
 SCF Done:  E(UB3LYP) =  -1782.44661953     A.U. after   10 cycles
 SCF Done:  E(UB3LYP) =  -1782.44661964     A.U. after   10 cycles
 SCF Done:  E(UB3LYP) =  -1782.44661970     A.U. after    9 cycles
 SCF Done:  E(UB3LYP) =  -1782.44661976     A.U. after    9 cycles
 Optimization completed.
    -- Stationary point found.
 Normal termination of Gaussian 16 at Sun Feb 11 21:57:06 2024.

 ----------------------------------------------------------------------
 #P Geom=AllCheck Guess=TCheck SCRF=Check GenChk UB3LYP/6-311++G(d,p) F
 req
 ----------------------------------------------------------------------

 Structure from the checkpoint file:  "327-an.chk"
 -------
 Reduced
 -------
 Charge = -4 Multiplicity = 1

                          Input orientation:
 ---------------------------------------------------------------------
 Center     Atomic      Atomic             Coordinates (Angstroms)
 Number     Number       Type             X           Y           Z
 ---------------------------------------------------------------------
      1          6           0       -1.678059    2.953707   -0.747348
      2          6           0       -2.819057    2.256296   -0.437276
      3          6           0       -2.703570    0.903470   -0.013709
      4          6           0       -0.374925    2.382199   -0.659286
      5          6           0       -0.271953    1.002969   -0.220877
      6          6           0       -1.471482    0.301035    0.088693
      7          6           0        0.770869    3.195487   -1.004643
      8          6           0        2.091365    2.583357   -0.877691
      9          6           0        2.140496    1.228833   -0.447941
     10          6           0        1.027434    0.447889   -0.128970
     11          8           0        0.629642    4.415281   -1.405254
     12          8           0        3.180759    3.242718   -1.147588
     13          1           0       -1.742863    3.985507   -1.073878
     14          1           0       -3.793890    2.724227   -0.514454
     15         16           0       -4.198309   -0.000329    0.413290
     16          1           0       -1.417185   -0.728209    0.412207
     17          1           0        3.124643    0.779999   -0.365370
     18         16           0        1.301139   -1.248377    0.406661
     19          8           0        2.781357   -1.476557    0.374382
     20          8           0        0.581679   -2.153550   -0.551935
     21          8           0        0.751262   -1.384390    1.798117
     22          8           0       -4.792405    0.694634    1.601605
     23          8           0       -3.789522   -1.403489    0.722404
     24          8           0       -5.100654    0.083235   -0.780216
 ---------------------------------------------------------------------

 SCF Done:  E(UB3LYP) =  -1782.44661976     A.U. after    1 cycles

 Alpha  occ. eigenvalues --  -89.02647 -89.01953 -19.07300 -19.07182 -19.07165
 Alpha  occ. eigenvalues --  -19.06611 -19.06418 -19.06416 -19.01956 -19.01430
 Alpha  occ. eigenvalues --  -10.17014 -10.16857 -10.16589 -10.15424 -10.15369
 Alpha  occ. eigenvalues --  -10.15226 -10.15095 -10.14597 -10.13812 -10.12863
 Alpha  occ. eigenvalues --   -8.08562  -8.07849  -6.04850  -6.04834  -6.04697
 Alpha  occ. eigenvalues --   -6.04148  -6.04123  -6.03973  -1.08736  -1.07870
 Alpha  occ. eigenvalues --   -0.95183  -0.94833  -0.94311  -0.94100  -0.93976
 Alpha  occ. eigenvalues --   -0.90930  -0.83753  -0.78302  -0.73510  -0.70376
 Alpha  occ. eigenvalues --   -0.67199  -0.61830  -0.59169  -0.58023  -0.54573
 Alpha  occ. eigenvalues --   -0.51951  -0.48554  -0.47655  -0.46252  -0.43953
 Alpha  occ. eigenvalues --   -0.43540  -0.43386  -0.42839  -0.42204  -0.41379
 Alpha  occ. eigenvalues --   -0.40156  -0.38626  -0.37505  -0.36835  -0.35142
 Alpha  occ. eigenvalues --   -0.33614  -0.33321  -0.32130  -0.31694  -0.31569
 Alpha  occ. eigenvalues --   -0.31099  -0.30623  -0.30107  -0.28665  -0.27634
 Alpha  occ. eigenvalues --   -0.27475  -0.26987  -0.26868  -0.26417  -0.25162
 Alpha  occ. eigenvalues --   -0.23770  -0.23210  -0.22744  -0.20292  -0.19189
 Alpha  occ. eigenvalues --   -0.18401  -0.12068
 Alpha virt. eigenvalues --   -0.01314   0.00852   0.01371   0.01948   0.02430
 Alpha virt. eigenvalues --    0.03989   0.04304   0.04628   0.05270   0.05406
 Alpha virt. eigenvalues --    0.06370   0.06604   0.06863   0.07338   0.08128

  Beta  occ. eigenvalues --  -89.02647 -89.01953 -19.07300 -19.07182 -19.07165
  Beta  occ. eigenvalues --  -19.06611 -19.06418 -19.06416 -19.01956 -19.01430
  Beta  occ. eigenvalues --  -10.17014 -10.16857 -10.16589 -10.15424 -10.15369
  Beta  occ. eigenvalues --  -10.15226 -10.15095 -10.14597 -10.13812 -10.12863
  Beta  occ. eigenvalues --   -8.08562  -8.07849  -6.04850  -6.04834  -6.04697
  Beta  occ. eigenvalues --   -6.04148  -6.04123  -6.03973  -1.08736  -1.07870
  Beta  occ. eigenvalues --   -0.95183  -0.94833  -0.94311  -0.94100  -0.93976
  Beta  occ. eigenvalues --   -0.90930  -0.83753  -0.78302  -0.73510  -0.70376
  Beta  occ. eigenvalues --   -0.67199  -0.61830  -0.59169  -0.58023  -0.54573
  Beta  occ. eigenvalues --   -0.51951  -0.48554  -0.47655  -0.46252  -0.43953
  Beta  occ. eigenvalues --   -0.43540  -0.43386  -0.42839  -0.42204  -0.41379
  Beta  occ. eigenvalues --   -0.40156  -0.38626  -0.37505  -0.36835  -0.35142
  Beta  occ. eigenvalues --   -0.33614  -0.33321  -0.32130  -0.31694  -0.31569
  Beta  occ. eigenvalues --   -0.31099  -0.30623  -0.30107  -0.28665  -0.27634
  Beta  occ. eigenvalues --   -0.27475  -0.26987  -0.26868  -0.26417  -0.25162
  Beta  occ. eigenvalues --   -0.23770  -0.23210  -0.22744  -0.20292  -0.19189
  Beta  occ. eigenvalues --   -0.18401  -0.12068
  Beta virt. eigenvalues --   -0.01314   0.00852   0.01371   0.01948   0.02430
  Beta virt. eigenvalues --    0.03989   0.04304   0.04628   0.05270   0.05406
  Beta virt. eigenvalues --    0.06370   0.06604   0.06863   0.07338   0.08128

 Mulliken charges and spin densities:
               1          2
     1  C   -0.175749  -0.000000
     2  C   -0.529236   0.000000
     3  C   -0.249119   0.000000
     4  C    0.970242  -0.000000
     5  C    0.006974   0.000000
     6  C   -0.406863   0.000000
     7  C   -0.747002   0.000000
     8  C   -0.072107  -0.000000
     9  C    0.429464  -0.000000
    10  C   -1.287096   0.000000
    11  O   -0.671397  -0.000000
    12  O   -0.718312   0.000000
    13  H    0.141445   0.000000
    14  H    0.198300   0.000000
    15  S    0.689662   0.000000
    16  H    0.209546  -0.000000
    17  H    0.199197   0.000000
    18  S    0.565328   0.000000
    19  O   -0.381977   0.000000
    20  O   -0.444944   0.000000
    21  O   -0.444456   0.000000
    22  O   -0.408132  -0.000000
    23  O   -0.452871  -0.000000
    24  O   -0.420897  -0.000000
 Sum of Mulliken charges =  -4.00000   0.00000

 Dipole moment (field-independent basis, Debye):
    X=              5.9917    Y=            -15.1222    Z=              2.4313  Tot=             16.4467
 Quadrupole moment (field-independent basis, Debye-Ang):
   XX=           -330.0394   YY=           -273.5085   ZZ=           -174.2762
   XY=            -36.5511   XZ=             24.8455   YZ=             37.8062

  Exact polarizability: 465.338  23.472 357.199 -26.267 -54.838 213.448
 Approx polarizability: 513.706  18.474 396.840 -25.791 -58.616 240.971

                      1                      2                      3
                      A                      A                      A
 Frequencies --     31.7473                55.7224                62.7353
 Red. masses --     15.3592                11.4400                11.9207
 Frc consts  --      0.0091                 0.0209                 0.0276
 IR Inten    --      0.9711                 1.3627                 9.7460

                      4                      5                      6
                      A                      A                      A
 Frequencies --     83.1133                87.3845               114.0767
 Red. masses --     11.6306                16.5399                 7.2935
 Frc consts  --      0.0473                 0.0744                 0.0559
 IR Inten    --     13.6658                 1.2693                 0.0761

                      7                      8                      9
                      A                      A                      A
 Frequencies --    157.5346               170.2665               208.7400
 Red. masses --      6.8576                11.2026                16.5142
 Frc consts  --      0.1003                 0.1913                 0.4240
 IR Inten    --      3.2836                13.4395                 1.0485

                     10                     11                     12
                      A                      A                      A
 Frequencies --    222.5334               253.7795               275.2646
 Red. masses --      7.3057                14.2281                 8.9989
 Frc consts  --      0.2132                 0.5399                 0.4017
 IR Inten    --      0.1848                 6.6826                 2.1273

                     13                     14                     15
                      A                      A                      A
 Frequencies --    282.4377               326.2446               341.8301
 Red. masses --     13.4829                13.0387                 7.6908
 Frc consts  --      0.6337                 0.8177                 0.5295
 IR Inten    --      0.2610                 5.0046                 1.4909

                     16                     17                     18
                      A                      A                      A
 Frequencies --    373.8520               386.1948               413.0909
 Red. masses --     13.8796                 7.7355                 6.4133
 Frc consts  --      1.1430                 0.6798                 0.6448
 IR Inten    --      5.0560                21.8411                 0.8525

                     19                     20                     21
                      A                      A                      A
 Frequencies --    430.9816               474.4462               492.0460
 Red. masses --      4.5723                 9.7377                13.1037
 Frc consts  --      0.5004                 1.2915                 1.8692
 IR Inten    --      0.3239               148.8064               120.8833

                     22                     23                     24
                      A                      A                      A
 Frequencies --    495.2673               498.2300               518.6452
 Red. masses --     10.4259                12.3327                 8.0235
 Frc consts  --      1.5068                 1.8037                 1.2716
 IR Inten    --     45.9633                 5.3343                51.2738

                     25                     26                     27
                      A                      A                      A
 Frequencies --    527.9080               538.0922               583.7010
 Red. masses --     10.2525                 4.7961                13.5470
 Frc consts  --      1.6834                 0.8182                 2.7194
 IR Inten    --     35.9045                14.1021               343.1616

                     28                     29                     30
                      A                      A                      A
 Frequencies --    606.5570               626.0335               637.4451
 Red. masses --     15.1577                 7.0544                 7.7226
 Frc consts  --      3.2857                 1.6289                 1.8488
 IR Inten    --    256.7541                34.8337               214.8870

                     31                     32                     33
                      A                      A                      A
 Frequencies --    694.5241               708.0851               729.7576
 Red. masses --      7.1883                 5.4278                 7.0994
 Frc consts  --      2.0429                 1.6034                 2.2275
 IR Inten    --     75.3869                 0.0032                23.9044

                     34                     35                     36
                      A                      A                      A
 Frequencies --    759.1675               794.6639               825.4844
 Red. masses --      2.6999                 2.2523                 8.7131
 Frc consts  --      0.9168                 0.8380                 3.4982
 IR Inten    --     32.5742                19.5801                30.7252

                     37                     38                     39
                      A                      A                      A
 Frequencies --    861.7922               894.5216               924.8256
 Red. masses --      1.3900                 1.3775                 7.9079
 Frc consts  --      0.6082                 0.6494                 3.9850
 IR Inten    --     30.5211                14.5823               248.5077

                     40                     41                     42
                      A                      A                      A
 Frequencies --    955.5229               973.0622               983.3933
 Red. masses --     15.6440                 1.2959                 5.1425
 Frc consts  --      8.4155                 0.7229                 2.9301
 IR Inten    --    623.7103                17.8529               560.0019

                     43                     44                     45
                      A                      A                      A
 Frequencies --    993.5477              1068.8329              1078.1557
 Red. masses --      8.7125                19.4429                 3.7851
 Frc consts  --      5.0672                13.0867                 2.5924
 IR Inten    --     35.3499               595.2934               745.5544

                     46                     47                     48
                      A                      A                      A
 Frequencies --   1080.7834              1089.0633              1104.3587
 Red. masses --     17.4467                 7.6076                 9.4691
 Frc consts  --     12.0072                 5.3162                 6.8042
 IR Inten    --    646.8306                62.3235               613.8880

                     49                     50                     51
                      A                      A                      A
 Frequencies --   1135.1793              1165.2977              1232.1941
 Red. masses --      1.9228                 1.7401                 2.0268
 Frc consts  --      1.4599                 1.3922                 1.8131
 IR Inten    --     59.6586               248.6636                46.0664

                     52                     53                     54
                      A                      A                      A
 Frequencies --   1257.1043              1285.3980              1314.1078
 Red. masses --      3.3763                 3.8206                 3.8946
 Frc consts  --      3.1436                 3.7193                 3.9626
 IR Inten    --     69.0554               395.8440              1422.9088

                     55                     56                     57
                      A                      A                      A
 Frequencies --   1343.7225              1366.0793              1417.5923
 Red. masses --      2.9583                 5.5094                 8.8286
 Frc consts  --      3.1471                 6.0577                10.4531
 IR Inten    --    481.9457                58.5806               909.8448

                     58                     59                     60
                      A                      A                      A
 Frequencies --   1469.7479              1480.2626              1529.0208
 Red. masses --      3.5502                 3.2534                 8.0946
 Frc consts  --      4.5185                 4.2002                11.1500
 IR Inten    --    455.9948                80.2297               512.5802

                     61                     62                     63
                      A                      A                      A
 Frequencies --   1540.4564              1607.7294              3165.8623
 Red. masses --      6.9812                 5.8120                 1.0857
 Frc consts  --      9.7607                 8.8512                 6.4113
 IR Inten    --    136.0316                 1.4964                 1.7022

                     64                     65                     66
                      A                      A                      A
 Frequencies --   3166.1710              3183.5262              3221.0268
 Red. masses --      1.0868                 1.0930                 1.0892
 Frc consts  --      6.4191                 6.5267                 6.6581
 IR Inten    --     36.2393                40.8198                 3.1240

 - Thermochemistry -
 -------------------
 Temperature   298.150 Kelvin.  Pressure   1.00000 Atm.
 Atom     1 has atomic number  6 and mass  12.00000

 Molecular mass:   315.93476 amu.
 Principal axes and moments of inertia in atomic units:
                           1         2         3
     Eigenvalues --  4442.073698316.15198**********
           X            0.97634  -0.20485   0.06930
           Y            0.17430   0.93511   0.30853
           Z           -0.12801  -0.28915   0.94869
 This molecule is an asymmetric top.
 Rotational symmetry number  1.
 Warning -- assumption of classical behavior for rotation
           may cause significant error
 Rotational temperatures (Kelvin)      0.01950     0.01042     0.00718
 Rotational constants (GHZ):           0.40628     0.21702     0.14969
 Zero-point vibrational energy     350960.0 (Joules/Mol)
                                   83.88144 (Kcal/Mol)
 Warning -- explicit consideration of  28 degrees of freedom as
           vibrations may cause significant error
 Vibrational temperatures:     45.68    80.17    90.26   119.58   125.73
          (Kelvin)            164.13   226.66   244.98   300.33   320.18
                              365.13   396.04   406.36   469.39   491.82
                              537.89   555.65   594.35   620.09   682.62
                              707.94   712.58   716.84   746.21   759.54
                              774.19   839.82   872.70   900.72   917.14
                              999.27  1018.78  1049.96  1092.27  1143.34
                             1187.69  1239.93  1287.02  1330.62  1374.78
                             1400.02  1414.88  1429.49  1537.81  1551.23
                             1555.01  1566.92  1588.93  1633.27  1676.60
                             1772.85  1808.69  1849.40  1890.71  1933.32
                             1965.48  2039.60  2114.64  2129.77  2199.92
                             2216.37  2313.16  4554.97  4555.41  4580.38
                             4634.34

 Zero-point correction=                           0.133674 (Hartree/Particle)
 Thermal correction to Energy=                    0.150248
 Thermal correction to Enthalpy=                  0.151192
 Thermal correction to Gibbs Free Energy=         0.088280
 Sum of electronic and zero-point Energies=          -1782.312946
 Sum of electronic and thermal Energies=             -1782.296372
 Sum of electronic and thermal Enthalpies=           -1782.295428
 Sum of electronic and thermal Free Energies=        -1782.358340

                     E (Thermal)             CV                S
                      KCal/Mol        Cal/Mol-Kelvin    Cal/Mol-Kelvin
 Total                   94.282             62.946            132.410
 Electronic               0.000              0.000              0.000
 Translational            0.889              2.981             43.147
 Rotational               0.889              2.981             34.453
 Vibrational             92.505             56.985             54.809
 Vibration     1          0.594              1.983              5.717
 Vibration     2          0.596              1.975              4.603
 Vibration     3          0.597              1.972              4.369
 Vibration     4          0.600              1.961              3.816
 Vibration     5          0.601              1.958              3.718
 Vibration     6          0.607              1.938              3.198
 Vibration     7          0.621              1.894              2.579
 Vibration     8          0.625              1.879              2.433
 Vibration     9          0.642              1.827              2.055
 Vibration    10          0.648              1.807              1.938
 Vibration    11          0.665              1.756              1.704
 Vibration    12          0.677              1.719              1.563
 Vibration    13          0.681              1.706              1.519
 Vibration    14          0.710              1.623              1.279
 Vibration    15          0.721              1.592              1.204
 Vibration    16          0.745              1.526              1.064
 Vibration    17          0.755              1.500              1.015
 Vibration    18          0.777              1.442              0.916
 Vibration    19          0.792              1.403              0.855
 Vibration    20          0.831              1.307              0.725
 Vibration    21          0.848              1.268              0.678
 Vibration    22          0.851              1.261              0.670
 Vibration    23          0.854              1.254              0.663
 Vibration    24          0.874              1.209              0.613
 Vibration    25          0.883              1.188              0.592
 Vibration    26          0.893              1.166              0.569
 Vibration    27          0.941              1.067              0.479
 Vibration    28          0.965              1.018              0.439

 Optimization completed.
    -- Stationary point found.
 Normal termination of Gaussian 16 at Sun Feb 11 22:48:35 2024.
