 Q-Chem 5.4, Q-Chem, Inc., Pleasanton, CA (2021)
 Q-Chem 5.4.0 for Intel X86 EM64T Linux

User input:
--------------------------------------------------------------
$molecule
-2 1
C                 -3.2356780000      2.9975680000      0.0196060000
O                 -1.9182260000      2.5163310000      0.0138370000
C                 -1.7121940000      1.1549160000     -0.0380470000
C                 -2.7760820000      0.2792570000     -0.0378640000
C                 -2.5543890000     -1.1203970000     -0.0762360000
C                 -1.2735670000     -1.6259920000     -0.0270030000
O                 -1.0480660000     -2.9842910000     -0.0796470000
C                 -2.1519880000     -3.8479150000     -0.1328730000
C                 -0.1235890000     -0.7610900000      0.0539740000
C                  1.2122200000     -1.3134040000      0.2460000000
O                  1.4720830000     -2.5355310000      0.4725870000
C                  2.3085650000     -0.3488120000      0.1595880000
C                  3.6376390000     -0.8159370000      0.2907660000
C                  4.7221410000      0.0360810000      0.2078740000
C                  4.5083900000      1.4205010000     -0.0118840000
C                  3.2187180000      1.8979130000     -0.1452370000
C                  2.0936940000      1.0435580000     -0.0663520000
C                  0.7582790000      1.6245250000     -0.2044550000
O                  0.6386080000      2.8688510000     -0.4275070000
C                 -0.3495120000      0.6865630000     -0.0653400000
H                 -3.1590730000      4.0868610000      0.0749250000
H                 -3.8165860000      2.6403380000      0.8852140000
H                 -3.7865460000      2.7262390000     -0.8940910000
H                 -3.7978610000      0.6360760000     -0.0282110000
H                 -3.4154580000     -1.7742940000     -0.1258550000
H                 -2.7948520000     -3.7638000000      0.7568020000
H                 -1.7414780000     -4.8603320000     -0.1770860000
H                 -2.7804400000     -3.6829540000     -1.0229300000
H                  3.7609510000     -1.8808700000      0.4580710000
H                  5.7340800000     -0.3518180000      0.3093890000
H                  5.3551220000      2.1016720000     -0.0738400000
H                  3.0150940000      2.9501840000     -0.3141740000
$end

$rem
BASIS  =  6-311++G(d,p)
GUI  =  2
JOB_TYPE  =  SP
METHOD  =  B3LYP
SCF_CONVERGENCE  = 8
SOLVENT_METHOD = sm12
$end

$smx
solvent dimethylformamide
charges CM5
$end

--------------------------------------------------------------

             Standard Nuclear Orientation (Angstroms)
    I     Atom           X                Y                Z
 ----------------------------------------------------------------
    1      C      -3.2356780000     2.9975680000     0.0196060000
    2      O      -1.9182260000     2.5163310000     0.0138370000
    3      C      -1.7121940000     1.1549160000    -0.0380470000
    4      C      -2.7760820000     0.2792570000    -0.0378640000
    5      C      -2.5543890000    -1.1203970000    -0.0762360000
    6      C      -1.2735670000    -1.6259920000    -0.0270030000
    7      O      -1.0480660000    -2.9842910000    -0.0796470000
    8      C      -2.1519880000    -3.8479150000    -0.1328730000
    9      C      -0.1235890000    -0.7610900000     0.0539740000
   10      C       1.2122200000    -1.3134040000     0.2460000000
   11      O       1.4720830000    -2.5355310000     0.4725870000
   12      C       2.3085650000    -0.3488120000     0.1595880000
   13      C       3.6376390000    -0.8159370000     0.2907660000
   14      C       4.7221410000     0.0360810000     0.2078740000
   15      C       4.5083900000     1.4205010000    -0.0118840000
   16      C       3.2187180000     1.8979130000    -0.1452370000
   17      C       2.0936940000     1.0435580000    -0.0663520000
   18      C       0.7582790000     1.6245250000    -0.2044550000
   19      O       0.6386080000     2.8688510000    -0.4275070000
   20      C      -0.3495120000     0.6865630000    -0.0653400000
   21      H      -3.1590730000     4.0868610000     0.0749250000
   22      H      -3.8165860000     2.6403380000     0.8852140000
   23      H      -3.7865460000     2.7262390000    -0.8940910000
   24      H      -3.7978610000     0.6360760000    -0.0282110000
   25      H      -3.4154580000    -1.7742940000    -0.1258550000
   26      H      -2.7948520000    -3.7638000000     0.7568020000
   27      H      -1.7414780000    -4.8603320000    -0.1770860000
   28      H      -2.7804400000    -3.6829540000    -1.0229300000
   29      H       3.7609510000    -1.8808700000     0.4580710000
   30      H       5.7340800000    -0.3518180000     0.3093890000
   31      H       5.3551220000     2.1016720000    -0.0738400000
   32      H       3.0150940000     2.9501840000    -0.3141740000
 ----------------------------------------------------------------

   20    -917.9836260332      3.04e-09  Convergence criterion met
 Total energy in the final basis set =     -918.2717518658

                    Orbital Energies (a.u.)
 --------------------------------------------------------------

 Alpha MOs
 -- Occupied --
-19.1324 -19.1323 -19.0153 -19.0153 -10.2162 -10.2162 -10.2142 -10.2141
-10.1839 -10.1839 -10.1717 -10.1712 -10.1655 -10.1655 -10.1537 -10.1532
-10.1518 -10.1515 -10.1468 -10.1464  -1.0507  -1.0504  -0.9437  -0.9410
 -0.8419  -0.8282  -0.7630  -0.7459  -0.7388  -0.7276  -0.6984  -0.6694
 -0.6442  -0.6172  -0.6041  -0.5678  -0.5460  -0.5281  -0.5201  -0.4976
 -0.4814  -0.4613  -0.4575  -0.4539  -0.4475  -0.4445  -0.4245  -0.4176
 -0.4109  -0.3957  -0.3919  -0.3860  -0.3851  -0.3625  -0.3585  -0.3566
 -0.3412  -0.3370  -0.3216  -0.3186  -0.3158  -0.3132  -0.3129  -0.2777
 -0.2447  -0.2329  -0.2259  -0.1968  -0.1904  -0.1849  -0.1051

          Ground-State Mulliken Net Atomic Charges

     Atom                 Charge (a.u.)
  ----------------------------------------
      1 C                     0.244153
      2 O                    -0.060717
      3 C                    -0.624498
      4 C                     2.829929
      5 C                     2.839771
      6 C                    -0.633922
      7 O                    -0.059873
      8 C                     0.242248
      9 C                    -0.625188
     10 C                    -3.048718
     11 O                    -0.288792
     12 C                    -2.171199
     13 C                    -0.322406
     14 C                     1.432064
     15 C                     1.429211
     16 C                    -0.320707
     17 C                    -2.163981
     18 C                    -3.040032
     19 O                    -0.289395
     20 C                    -0.614001
     21 H                     0.318886
     22 H                     0.212261
     23 H                     0.231884
     24 H                     0.387794
     25 H                     0.387782
     26 H                     0.232026
     27 H                     0.318409
     28 H                     0.212221
     29 H                     0.087521
     30 H                     0.384748
     31 H                     0.384742
     32 H                     0.087781
  ----------------------------------------
  Sum of atomic charges =    -2.000000

                    Cartesian Multipole Moments
 -----------------------------------------------------------------
    Charge (ESU x 10^10)
                -9.6064
    Dipole Moment (Debye)
         X     -12.7208      Y      -2.0010      Z      -0.2648
       Tot      12.8799
    Quadrupole Moments (Debye-Ang)
        XX    -166.8978     XY       0.6104     YY    -171.7171
        XZ      -1.8941     YZ       7.3533     ZZ    -132.7518

 Total job time:  1194.17s(wall), 9186.72s(cpu)
        *  Thank you very much for using Q-Chem.  Have a nice day.  *
