 Gaussian 16, Revision A.03,
 Gaussian 16:  ES64L-G16RevA.03 25-Dec-2016

 ----------------------------------------------------------------
 #P UB3LYP/6-311++G(d,p) SCRF=(PCM,Solvent=n,n-DiMethylFormamide)
 ----------------------------------------------------------------

 -------
 Reduced
 -------
 Symbolic Z-matrix:
 Charge = -2 Multiplicity = 1

                         Standard orientation:
 ---------------------------------------------------------------------
 Center     Atomic      Atomic             Coordinates (Angstroms)
 Number     Number       Type             X           Y           Z
 ---------------------------------------------------------------------
      1          6           0       -1.365052    1.180815   -0.692727
      2          6           0       -2.644064    1.562911   -0.140675
      3          6           0       -3.510756    0.688519    0.488739
      4          6           0       -3.229668   -0.713984    0.678273
      5          6           0       -1.076216   -0.222897   -0.489795
      6          6           0       -1.958730   -1.108462    0.157028
      7          8           0       -0.588335    2.011639   -1.277629
      8          8           0       -4.049589   -1.519169    1.266468
      9         16           0        0.389509   -0.929010   -1.241007
     10          6           0        1.790314   -0.383834   -0.282093
     11          6           0        3.049424   -0.933358   -0.578759
     12          6           0        1.698748    0.572265    0.739497
     13          6           0        2.838853    0.952567    1.443978
     14          6           0        4.183369   -0.548329    0.130798
     15          6           0        4.088285    0.399451    1.152767
     16          1           0       -2.913728    2.611876   -0.260017
     17          1           0       -4.465532    1.049415    0.872181
     18          1           0       -1.673394   -2.150171    0.274832
     19          1           0        3.132561   -1.674578   -1.369815
     20          1           0        0.732965    1.012573    0.954443
     21          1           0        2.750308    1.699398    2.229522
     22          1           0        5.147481   -0.996005   -0.107150
     23          1           0        4.973560    0.697908    1.709223
 ---------------------------------------------------------------------

 SCF Done:  E(UB3LYP) =  -1011.15648953     A.U. after   18 cycles

 The electronic state is 1-A.
 Alpha  occ. eigenvalues --  -88.83277 -19.01769 -19.01273 -10.19868 -10.17631
 Alpha  occ. eigenvalues --  -10.17348 -10.17215 -10.17155 -10.16897 -10.16807
 Alpha  occ. eigenvalues --  -10.16645 -10.15466 -10.12708 -10.12633 -10.12487
 Alpha  occ. eigenvalues --   -7.91863  -5.88251  -5.87836  -5.87318  -0.93804
 Alpha  occ. eigenvalues --   -0.92712  -0.85798  -0.79471  -0.76687  -0.74415
 Alpha  occ. eigenvalues --   -0.72042  -0.67136  -0.63859  -0.60327  -0.58589
 Alpha  occ. eigenvalues --   -0.55385  -0.52671  -0.50095  -0.45360  -0.44677
 Alpha  occ. eigenvalues --   -0.43093  -0.42807  -0.41815  -0.41366  -0.39201
 Alpha  occ. eigenvalues --   -0.37491  -0.36095  -0.35633  -0.35569  -0.34175
 Alpha  occ. eigenvalues --   -0.33230  -0.32603  -0.31358  -0.30399  -0.28270
 Alpha  occ. eigenvalues --   -0.25539  -0.22696  -0.22252  -0.20235  -0.19678
 Alpha  occ. eigenvalues --   -0.19129  -0.11866
 Alpha virt. eigenvalues --   -0.01240  -0.00925   0.00007   0.00700   0.01190
 Alpha virt. eigenvalues --    0.01616   0.02328   0.02533   0.03172   0.03991
 Alpha virt. eigenvalues --    0.04707   0.04952   0.05559   0.05909   0.06564

  Beta  occ. eigenvalues --  -88.83277 -19.01769 -19.01273 -10.19868 -10.17631
  Beta  occ. eigenvalues --  -10.17348 -10.17215 -10.17155 -10.16897 -10.16807
  Beta  occ. eigenvalues --  -10.16645 -10.15466 -10.12708 -10.12633 -10.12487
  Beta  occ. eigenvalues --   -7.91863  -5.88251  -5.87836  -5.87318  -0.93804
  Beta  occ. eigenvalues --   -0.92712  -0.85798  -0.79471  -0.76687  -0.74415
  Beta  occ. eigenvalues --   -0.72042  -0.67136  -0.63859  -0.60327  -0.58589
  Beta  occ. eigenvalues --   -0.55385  -0.52671  -0.50095  -0.45360  -0.44677
  Beta  occ. eigenvalues --   -0.43093  -0.42807  -0.41815  -0.41366  -0.39201
  Beta  occ. eigenvalues --   -0.37491  -0.36095  -0.35633  -0.35569  -0.34175
  Beta  occ. eigenvalues --   -0.33230  -0.32603  -0.31358  -0.30399  -0.28270
  Beta  occ. eigenvalues --   -0.25539  -0.22696  -0.22252  -0.20235  -0.19678
  Beta  occ. eigenvalues --   -0.19129  -0.11866
  Beta virt. eigenvalues --   -0.01240  -0.00925   0.00007   0.00700   0.01190
  Beta virt. eigenvalues --    0.01616   0.02328   0.02533   0.03172   0.03991
  Beta virt. eigenvalues --    0.04707   0.04952   0.05559   0.05909   0.06564

 Mulliken charges and spin densities:
               1          2
     1  C   -0.645917  -0.000000
     2  C   -0.214976  -0.000000
     3  C   -0.002511   0.000000
     4  C   -0.650030  -0.000000
     5  C    1.470130   0.000000
     6  C   -0.334651  -0.000000
     7  O   -0.646571  -0.000000
     8  O   -0.733037  -0.000000
     9  S   -0.602093  -0.000000
    10  C    0.673717  -0.000000
    11  C   -0.412539   0.000000
    12  C    0.000985  -0.000000
    13  C   -0.392470   0.000000
    14  C   -0.516882   0.000000
    15  C   -0.362273   0.000000
    16  H    0.148796  -0.000000
    17  H    0.136835  -0.000000
    18  H    0.159208  -0.000000
    19  H    0.184976  -0.000000
    20  H    0.178696   0.000000
    21  H    0.201870  -0.000000
    22  H    0.188304  -0.000000
    23  H    0.170433  -0.000000
 Sum of Mulliken charges =  -2.00000  -0.00000

 Dipole moment (field-independent basis, Debye):
    X=             18.9785    Y=             -0.0810    Z=              1.2227  Tot=             19.0180
 Quadrupole moment (field-independent basis, Debye-Ang):
   XX=           -172.7295   YY=           -129.4349   ZZ=           -118.9275
   XY=            -21.0251   XZ=             18.5037   YZ=             19.4922

 Normal termination of Gaussian 16 at Wed Jan 24 22:51:22 2024.
