 Gaussian 16, Revision A.03,
 Gaussian 16:  ES64L-G16RevA.03 25-Dec-2016

 --------------------------------------
 #P UB3LYP/6-311++G(d,p) nosym opt freq
 --------------------------------------

 -------
 Reduced
 -------
 Symbolic Z-matrix:
 Charge = -2 Multiplicity = 1

 SCF Done:  E(UB3LYP) =  -1010.88313840     A.U. after   38 cycles
 SCF Done:  E(UB3LYP) =  -1010.88313842     A.U. after   22 cycles
 SCF Done:  E(UB3LYP) =  -1010.88313843     A.U. after   20 cycles
 Optimization completed.
    -- Stationary point found.
 Normal termination of Gaussian 16 at Wed Jan 10 17:05:04 2024.

 ----------------------------------------------------------------------
 #P Geom=AllCheck Guess=TCheck SCRF=Check GenChk UB3LYP/6-311++G(d,p) F
 req
 ----------------------------------------------------------------------

 Structure from the checkpoint file:  "102-an.chk"
 -------
 Reduced
 -------
 Charge = -2 Multiplicity = 1

                          Input orientation:
 ---------------------------------------------------------------------
 Center     Atomic      Atomic             Coordinates (Angstroms)
 Number     Number       Type             X           Y           Z
 ---------------------------------------------------------------------
      1          6           0        1.916607    3.581173    3.758192
      2          6           0        2.971817    3.538078    2.772645
      3          6           0        3.445659    2.375860    2.192471
      4          6           0        2.928456    1.064055    2.498440
      5          6           0        1.387482    2.266932    4.054522
      6          6           0        1.868618    1.086719    3.456993
      7          8           0        1.505464    4.672212    4.283800
      8          8           0        3.382190   -0.012917    1.949966
      9         16           0        0.181880    2.088212    5.368238
     10          6           0       -1.372920    2.700297    4.746195
     11          6           0       -2.519098    2.522900    5.540017
     12          6           0       -1.503945    3.359091    3.515350
     13          6           0       -2.752255    3.814066    3.096444
     14          6           0       -3.762752    2.979867    5.113338
     15          6           0       -3.891766    3.629902    3.883478
     16          1           0        3.406355    4.501075    2.505994
     17          1           0        4.253412    2.421933    1.461525
     18          1           0        1.421005    0.134413    3.727565
     19          1           0       -2.429146    2.014639    6.496922
     20          1           0       -0.617943    3.515832    2.912654
     21          1           0       -2.834538    4.327694    2.141409
     22          1           0       -4.640398    2.820910    5.738650
     23          1           0       -4.863832    3.984070    3.548687
 ---------------------------------------------------------------------

 SCF Done:  E(UB3LYP) =  -1010.88313843     A.U. after    3 cycles

 Alpha  occ. eigenvalues --  -88.61591 -18.79005 -18.78255  -9.99172  -9.97743
 Alpha  occ. eigenvalues --   -9.97460  -9.97176  -9.97168  -9.96072  -9.95262
 Alpha  occ. eigenvalues --   -9.94291  -9.93254  -9.90538  -9.90457  -9.90031
 Alpha  occ. eigenvalues --   -7.70138  -5.66532  -5.66109  -5.65597  -0.70767
 Alpha  occ. eigenvalues --   -0.69342  -0.65528  -0.57814  -0.55118  -0.54390
 Alpha  occ. eigenvalues --   -0.50487  -0.45256  -0.41621  -0.40273  -0.38114
 Alpha  occ. eigenvalues --   -0.33154  -0.31602  -0.29095  -0.25109  -0.24829
 Alpha  occ. eigenvalues --   -0.22039  -0.20824  -0.20278  -0.19820  -0.17252
 Alpha  occ. eigenvalues --   -0.16993  -0.14996  -0.14068  -0.12962  -0.12278
 Alpha  occ. eigenvalues --   -0.10894  -0.09817  -0.08541  -0.07804  -0.07278
 Alpha  occ. eigenvalues --   -0.05386   0.00026   0.00728   0.01701   0.03636
 Alpha  occ. eigenvalues --    0.04352   0.11789
 Alpha virt. eigenvalues --    0.13136   0.14918   0.16975   0.18220   0.18563
 Alpha virt. eigenvalues --    0.18642   0.19176   0.20204   0.20640   0.22739
 Alpha virt. eigenvalues --    0.23188   0.23367   0.23951   0.25111   0.25252

  Beta  occ. eigenvalues --  -88.61591 -18.79005 -18.78255  -9.99172  -9.97743
  Beta  occ. eigenvalues --   -9.97460  -9.97176  -9.97168  -9.96072  -9.95262
  Beta  occ. eigenvalues --   -9.94291  -9.93254  -9.90538  -9.90457  -9.90031
  Beta  occ. eigenvalues --   -7.70138  -5.66532  -5.66109  -5.65597  -0.70767
  Beta  occ. eigenvalues --   -0.69342  -0.65528  -0.57814  -0.55118  -0.54390
  Beta  occ. eigenvalues --   -0.50487  -0.45256  -0.41621  -0.40273  -0.38114
  Beta  occ. eigenvalues --   -0.33154  -0.31602  -0.29095  -0.25109  -0.24829
  Beta  occ. eigenvalues --   -0.22039  -0.20824  -0.20278  -0.19820  -0.17252
  Beta  occ. eigenvalues --   -0.16993  -0.14996  -0.14068  -0.12962  -0.12278
  Beta  occ. eigenvalues --   -0.10894  -0.09817  -0.08541  -0.07804  -0.07278
  Beta  occ. eigenvalues --   -0.05386   0.00026   0.00728   0.01701   0.03636
  Beta  occ. eigenvalues --    0.04352   0.11789
  Beta virt. eigenvalues --    0.13136   0.14918   0.16975   0.18220   0.18563
  Beta virt. eigenvalues --    0.18642   0.19176   0.20204   0.20640   0.22739
  Beta virt. eigenvalues --    0.23188   0.23367   0.23951   0.25111   0.25252

 Mulliken charges and spin densities:
               1          2
     1  C   -0.820859  -0.000000
     2  C   -0.064336   0.000000
     3  C    0.237292   0.000000
     4  C   -1.061399   0.000000
     5  C    1.680088   0.000000
     6  C   -0.218239  -0.000000
     7  O   -0.461597   0.000000
     8  O   -0.547438   0.000000
     9  S   -0.415109  -0.000000
    10  C    0.539427   0.000000
    11  C   -1.041409  -0.000000
    12  C    0.015883  -0.000000
    13  C   -0.475020  -0.000000
    14  C    0.525373   0.000000
    15  C    0.709205   0.000000
    16  H    0.100809   0.000000
    17  H    0.080194   0.000000
    18  H    0.136537  -0.000000
    19  H    0.109682   0.000000
    20  H    0.219549   0.000000
    21  H    0.097922  -0.000000
    22  H   -0.722477  -0.000000
    23  H   -0.624078  -0.000000
 Sum of Mulliken charges =  -2.00000   0.00000

 Dipole moment (field-independent basis, Debye):
    X=             -5.8662    Y=            -23.3891    Z=            -35.2166  Tot=             42.6810
 Quadrupole moment (field-independent basis, Debye-Ang):
   XX=           -217.7379   YY=           -206.6944   ZZ=           -258.1554
   XY=             13.6206   XZ=              7.8502   YZ=           -105.3825

  Exact polarizability:1860.475-316.543 468.609-258.682-336.771 951.390
 Approx polarizability:**************** 703.158******** 138.0151059.268

                      1                      2                      3
                      A                      A                      A
 Frequencies --     22.0956                36.8456                64.4907
 Red. masses --      6.6922                 4.7608                 5.2895
 Frc consts  --      0.0019                 0.0038                 0.0130
 IR Inten    --      2.3825                 3.3664                 0.6317

                      4                      5                      6
                      A                      A                      A
 Frequencies --    120.7754               167.6165               194.5904
 Red. masses --      8.3761                 4.9748                 6.2528
 Frc consts  --      0.0720                 0.0823                 0.1395
 IR Inten    --      4.6563                 8.8295                 1.8808

                      7                      8                      9
                      A                      A                      A
 Frequencies --    226.2637               238.7867               330.8003
 Red. masses --     11.2065                 6.6879                 7.4432
 Frc consts  --      0.3380                 0.2247                 0.4799
 IR Inten    --      1.1870                 0.7096                 1.8141

                     10                     11                     12
                      A                      A                      A
 Frequencies --    369.8821               406.9010               411.3734
 Red. masses --      9.3270                 5.7503                 3.1861
 Frc consts  --      0.7518                 0.5609                 0.3177
 IR Inten    --      4.9374                45.2251                 9.1111

                     13                     14                     15
                      A                      A                      A
 Frequencies --    430.4973               463.5233               473.6448
 Red. masses --     10.4001                 5.4377                 3.3310
 Frc consts  --      1.1356                 0.6883                 0.4403
 IR Inten    --    381.8309               360.1260                40.4030

                     16                     17                     18
                      A                      A                      A
 Frequencies --    481.1966               560.2398               589.9565
 Red. masses --      5.1676                 4.5713                 2.7170
 Frc consts  --      0.7050                 0.8454                 0.5572
 IR Inten    --    208.2564                 8.0140                 1.5083

                     19                     20                     21
                      A                      A                      A
 Frequencies --    629.3569               677.1008               695.0815
 Red. masses --      6.4279                 7.7655                 2.9290
 Frc consts  --      1.5001                 2.0976                 0.8338
 IR Inten    --     16.4363                 6.1533                 5.7149

                     22                     23                     24
                      A                      A                      A
 Frequencies --    697.5347               718.6409               768.4247
 Red. masses --      6.6520                 2.7403                 1.4386
 Frc consts  --      1.9069                 0.8338                 0.5005
 IR Inten    --     41.3529                 2.5495                23.7081

                     25                     26                     27
                      A                      A                      A
 Frequencies --    798.9232               809.3798               835.7839
 Red. masses --      1.8168                 6.0146                 1.9530
 Frc consts  --      0.6832                 2.3215                 0.8038
 IR Inten    --      6.4067                48.6804                28.4844

                     28                     29                     30
                      A                      A                      A
 Frequencies --    840.6131               875.9096               894.4048
 Red. masses --      1.2885                 6.7321                 1.3425
 Frc consts  --      0.5365                 3.0431                 0.6328
 IR Inten    --     24.1183                32.8565                96.1813

                     31                     32                     33
                      A                      A                      A
 Frequencies --    908.5542               964.7225               968.8170
 Red. masses --      1.2972                 1.3149                 1.2648
 Frc consts  --      0.6309                 0.7210                 0.6994
 IR Inten    --      0.5440                25.7895                63.0908

                     34                     35                     36
                      A                      A                      A
 Frequencies --    991.4885              1004.3160              1038.4513
 Red. masses --      2.8096                 6.0673                 2.7434
 Frc consts  --      1.6273                 3.6057                 1.7430
 IR Inten    --     55.4353                41.3960                48.1118

                     37                     38                     39
                      A                      A                      A
 Frequencies --   1083.4980              1090.0468              1095.8817
 Red. masses --      2.5313                 1.7090                 1.6615
 Frc consts  --      1.7509                 1.1965                 1.1756
 IR Inten    --     45.5664                81.7057               290.1046

                     40                     41                     42
                      A                      A                      A
 Frequencies --   1164.5723              1181.5041              1190.4171
 Red. masses --      1.0905                 2.5807                 1.1671
 Frc consts  --      0.8714                 2.1226                 0.9744
 IR Inten    --     47.9810               166.1936               136.3491

                     43                     44                     45
                      A                      A                      A
 Frequencies --   1218.9281              1308.7901              1314.3999
 Red. masses --      1.6431                 2.3508                 2.8110
 Frc consts  --      1.4384                 2.3725                 2.8613
 IR Inten    --    463.6905               334.5167                55.1136

                     46                     47                     48
                      A                      A                      A
 Frequencies --   1347.5400              1368.3914              1412.5786
 Red. masses --      1.8341                 6.8583                 6.3644
 Frc consts  --      1.9622                 7.5663                 7.4822
 IR Inten    --     30.2528               522.1650              1178.5035

                     49                     50                     51
                      A                      A                      A
 Frequencies --   1431.8749              1461.3500              1485.5248
 Red. masses --      4.7976                 2.2174                 4.4031
 Frc consts  --      5.7954                 2.7900                 5.7249
 IR Inten    --    282.0689                10.7891               544.3910

                     52                     53                     54
                      A                      A                      A
 Frequencies --   1496.6282              1582.3622              1593.9884
 Red. masses --      2.0063                 6.1258                 5.3803
 Frc consts  --      2.6478                 9.0370                 8.0543
 IR Inten    --     97.2500              5008.5380                99.9205

                     55                     56                     57
                      A                      A                      A
 Frequencies --   1610.1287              3083.1554              3100.1925
 Red. masses --      5.3117                 1.0836                 1.0852
 Frc consts  --      8.1134                 6.0689                 6.1452
 IR Inten    --     71.3186                92.7232               446.3930

                     58                     59                     60
                      A                      A                      A
 Frequencies --   3111.3526              3120.5537              3131.5084
 Red. masses --      1.0924                 1.0871                 1.0907
 Frc consts  --      6.2308                 6.2371                 6.3020
 IR Inten    --    541.5211                90.6905               250.0927

                     61                     62                     63
                      A                      A                      A
 Frequencies --   3137.8699              3139.7807              3191.1552
 Red. masses --      1.0952                 1.0884                 1.0916
 Frc consts  --      6.3537                 6.3219                 6.5493
 IR Inten    --    255.4253                79.9658                14.9273

 - Thermochemistry -
 -------------------
 Temperature   298.150 Kelvin.  Pressure   1.00000 Atm.
 Atom     1 has atomic number  6 and mass  12.00000

 Molecular mass:   216.02450 amu.
 Principal axes and moments of inertia in atomic units:
                           1         2         3
     Eigenvalues --  1566.366216024.095776290.70181
           X            0.92779   0.17981   0.32691
           Y           -0.22951   0.96586   0.12012
           Z           -0.29415  -0.18648   0.93739
 This molecule is an asymmetric top.
 Rotational symmetry number  1.
 Warning -- assumption of classical behavior for rotation
           may cause significant error
 Rotational temperatures (Kelvin)      0.05530     0.01438     0.01377
 Rotational constants (GHZ):           1.15218     0.29959     0.28689
 Zero-point vibrational energy     425637.0 (Joules/Mol)
                                  101.72969 (Kcal/Mol)
 Warning -- explicit consideration of  18 degrees of freedom as
           vibrations may cause significant error
 Vibrational temperatures:     31.79    53.01    92.79   173.77   241.16
          (Kelvin)            279.97   325.54   343.56   475.95   532.18
                              585.44   591.87   619.39   666.91   681.47
                              692.33   806.06   848.82   905.50   974.20
                             1000.07  1003.60  1033.96  1105.59  1149.47
                             1164.52  1202.51  1209.45  1260.24  1286.85
                             1307.21  1388.02  1393.91  1426.53  1444.99
                             1494.10  1558.91  1568.33  1576.73  1675.56
                             1699.92  1712.74  1753.77  1883.06  1891.13
                             1938.81  1968.81  2032.39  2060.15  2102.56
                             2137.34  2153.31  2276.67  2293.39  2316.62
                             4435.97  4460.49  4476.54  4489.78  4505.54
                             4514.69  4517.44  4591.36

 Zero-point correction=                           0.162117 (Hartree/Particle)
 Thermal correction to Energy=                    0.174664
 Thermal correction to Enthalpy=                  0.175608
 Thermal correction to Gibbs Free Energy=         0.121234
 Sum of electronic and zero-point Energies=          -1010.721022
 Sum of electronic and thermal Energies=             -1010.708475
 Sum of electronic and thermal Enthalpies=           -1010.707531
 Sum of electronic and thermal Free Energies=        -1010.761904

                     E (Thermal)             CV                S
                      KCal/Mol        Cal/Mol-Kelvin    Cal/Mol-Kelvin
 Total                  109.603             48.481            114.439
 Electronic               0.000              0.000              0.000
 Translational            0.889              2.981             42.014
 Rotational               0.889              2.981             32.451
 Vibrational            107.826             42.519             39.974
 Vibration     1          0.593              1.985              6.436
 Vibration     2          0.594              1.982              5.422
 Vibration     3          0.597              1.971              4.315
 Vibration     4          0.609              1.932              3.088
 Vibration     5          0.624              1.882              2.462
 Vibration     6          0.635              1.847              2.184
 Vibration     7          0.650              1.801              1.908
 Vibration     8          0.657              1.781              1.812
 Vibration     9          0.713              1.614              1.256
 Vibration    10          0.742              1.534              1.080
 Vibration    11          0.772              1.455              0.938
 Vibration    12          0.775              1.446              0.922
 Vibration    13          0.792              1.404              0.857
 Vibration    14          0.821              1.331              0.756
 Vibration    15          0.830              1.309              0.727
 Vibration    16          0.837              1.292              0.707
 Vibration    17          0.916              1.117              0.523
 Vibration    18          0.947              1.053              0.467

 Optimization completed.
    -- Stationary point found.
 Normal termination of Gaussian 16 at Wed Jan 10 17:45:22 2024.
