 Gaussian 16, Revision A.03,
 Gaussian 16:  ES64L-G16RevA.03 25-Dec-2016

 --------------------------------------
 #P UB3LYP/6-311++G(d,p) nosym opt freq
 --------------------------------------

 -------
 Radical
 -------
 Symbolic Z-matrix:
 Charge = -1 Multiplicity = 2

 SCF Done:  E(UB3LYP) =  -1529.97099718     A.U. after   23 cycles
 SCF Done:  E(UB3LYP) =  -1529.99228829     A.U. after   19 cycles
 SCF Done:  E(UB3LYP) =  -1529.99520398     A.U. after   18 cycles
 SCF Done:  E(UB3LYP) =  -1529.99666025     A.U. after   18 cycles
 SCF Done:  E(UB3LYP) =  -1529.99744608     A.U. after   17 cycles
 SCF Done:  E(UB3LYP) =  -1529.99775779     A.U. after   18 cycles
 SCF Done:  E(UB3LYP) =  -1529.99789403     A.U. after   17 cycles
 SCF Done:  E(UB3LYP) =  -1529.99809031     A.U. after   15 cycles
 SCF Done:  E(UB3LYP) =  -1529.99813762     A.U. after   16 cycles
 SCF Done:  E(UB3LYP) =  -1529.99814140     A.U. after   15 cycles
 SCF Done:  E(UB3LYP) =  -1529.99814468     A.U. after   14 cycles
 SCF Done:  E(UB3LYP) =  -1529.99814514     A.U. after   13 cycles
 SCF Done:  E(UB3LYP) =  -1529.99814531     A.U. after   14 cycles
 SCF Done:  E(UB3LYP) =  -1529.99814535     A.U. after   10 cycles
 Optimization completed.
    -- Stationary point found.
 Normal termination of Gaussian 16 at Sun Dec 17 21:16:15 2023.

 ----------------------------------------------------------------------
 #P Geom=AllCheck Guess=TCheck SCRF=Check GenChk UB3LYP/6-311++G(d,p) F
 req
 ----------------------------------------------------------------------

 Structure from the checkpoint file:  "022-rad.chk"
 -------
 Radical
 -------
 Charge = -1 Multiplicity = 2

                          Input orientation:
 ---------------------------------------------------------------------
 Center     Atomic      Atomic             Coordinates (Angstroms)
 Number     Number       Type             X           Y           Z
 ---------------------------------------------------------------------
      1          6           0       -3.547223    0.162846    0.358319
      2          8           0       -2.684163    0.647994   -0.672956
      3          6           0       -1.358080    0.327434   -0.553046
      4          6           0       -0.419779    1.329580   -0.498985
      5         17           0       -0.939452    3.010931   -0.491379
      6          6           0        1.012221    1.094150   -0.468887
      7          8           0        1.867042    2.011705   -0.464195
      8          6           0        1.399532   -0.317174   -0.437261
      9          6           0        0.461185   -1.319331   -0.489643
     10         17           0        0.979783   -3.000950   -0.473781
     11          6           0       -0.968105   -1.083216   -0.581754
     12          8           0       -1.819007   -1.999769   -0.673737
     13          8           0        2.731293   -0.636286   -0.445878
     14          6           0        3.499104   -0.174740    0.668337
     15          1           0       -3.257444    0.588174    1.327561
     16          1           0       -4.547764    0.513791    0.099068
     17          1           0       -3.527283   -0.926757    0.401177
     18          1           0        3.475866    0.913771    0.732045
     19          1           0        3.123736   -0.619371    1.598769
     20          1           0        4.518537   -0.522781    0.492131
 ---------------------------------------------------------------------

 SCF Done:  E(UB3LYP) =  -1529.99814535     A.U. after    2 cycles

 Alpha  occ. eigenvalues -- -101.42418-101.42417 -19.02643 -19.02642 -18.95799
 Alpha  occ. eigenvalues --  -18.95798 -10.11160 -10.11159 -10.11067 -10.11065
 Alpha  occ. eigenvalues --  -10.10420 -10.10419 -10.10003 -10.10002  -9.33860
 Alpha  occ. eigenvalues --   -9.33860  -7.10311  -7.10311  -7.09386  -7.09386
 Alpha  occ. eigenvalues --   -7.09287  -7.09286  -0.94514  -0.94337  -0.88262
 Alpha  occ. eigenvalues --   -0.88207  -0.75085  -0.73758  -0.67964  -0.63009
 Alpha  occ. eigenvalues --   -0.59298  -0.56602  -0.54407  -0.46658  -0.45985
 Alpha  occ. eigenvalues --   -0.40747  -0.39438  -0.38000  -0.35597  -0.34859
 Alpha  occ. eigenvalues --   -0.33794  -0.32150  -0.31393  -0.30822  -0.29387
 Alpha  occ. eigenvalues --   -0.28846  -0.26712  -0.26440  -0.25108  -0.24067
 Alpha  occ. eigenvalues --   -0.21898  -0.21237  -0.19200  -0.18724  -0.18254
 Alpha  occ. eigenvalues --   -0.16929  -0.14499  -0.12351  -0.12260  -0.10820
 Alpha  occ. eigenvalues --   -0.04169
 Alpha virt. eigenvalues --    0.08442   0.08950   0.11018   0.11537   0.11666
 Alpha virt. eigenvalues --    0.11687   0.12375   0.13460   0.14015   0.14720
 Alpha virt. eigenvalues --    0.14823   0.15579   0.17116   0.17298   0.17326

  Beta  occ. eigenvalues -- -101.42416-101.42415 -19.02616 -19.02615 -18.95096
  Beta  occ. eigenvalues --  -18.95095 -10.11035 -10.11034 -10.10915 -10.10914
  Beta  occ. eigenvalues --  -10.10411 -10.10410 -10.09934 -10.09933  -9.33859
  Beta  occ. eigenvalues --   -9.33858  -7.10315  -7.10315  -7.09374  -7.09374
  Beta  occ. eigenvalues --   -7.09286  -7.09286  -0.94367  -0.94211  -0.87116
  Beta  occ. eigenvalues --   -0.87017  -0.74810  -0.73654  -0.67614  -0.62789
  Beta  occ. eigenvalues --   -0.59184  -0.56141  -0.53804  -0.46355  -0.45625
  Beta  occ. eigenvalues --   -0.40576  -0.39316  -0.37758  -0.35198  -0.34668
  Beta  occ. eigenvalues --   -0.33692  -0.32016  -0.31283  -0.30469  -0.28317
  Beta  occ. eigenvalues --   -0.28107  -0.26308  -0.25112  -0.24244  -0.23685
  Beta  occ. eigenvalues --   -0.21081  -0.20387  -0.18911  -0.18612  -0.17885
  Beta  occ. eigenvalues --   -0.16632  -0.12009  -0.11677  -0.11642  -0.10247
  Beta virt. eigenvalues --    0.02936   0.08506   0.08961   0.11090   0.11621
  Beta virt. eigenvalues --    0.11704   0.12378   0.12943   0.13540   0.14045
  Beta virt. eigenvalues --    0.14844   0.15612   0.16895   0.17356   0.17369

 Mulliken charges and spin densities:
               1          2
     1  C   -0.285106   0.003899
     2  O   -0.121544   0.000418
     3  C   -1.782148   0.148009
     4  C    2.172612   0.024108
     5  Cl   0.230670   0.003062
     6  C   -0.777649   0.060704
     7  O   -0.346192   0.258381
     8  C   -1.779478   0.147917
     9  C    2.170582   0.024275
    10  Cl   0.230729   0.003060
    11  C   -0.777341   0.060605
    12  O   -0.346115   0.258350
    13  O   -0.121712   0.000424
    14  C   -0.284822   0.003880
    15  H    0.102786   0.001517
    16  H    0.121566   0.001140
    17  H    0.184415  -0.001206
    18  H    0.184389  -0.001201
    19  H    0.102799   0.001527
    20  H    0.121561   0.001133
 Sum of Mulliken charges =  -1.00000   1.00000

 Dipole moment (field-independent basis, Debye):
    X=             -0.1959    Y=             -0.0490    Z=              4.5607  Tot=              4.5651
 Quadrupole moment (field-independent basis, Debye-Ang):
   XX=           -112.3745   YY=           -130.6738   ZZ=           -100.1069
   XY=             -6.7092   XZ=             -0.6308   YZ=             -0.6466

  Exact polarizability: 189.813   7.885 190.246   4.539   1.487  90.228
 Approx polarizability: 278.133  50.774 306.231   6.900   4.187 136.641

                      1                      2                      3
                      A                      A                      A
 Frequencies --     61.7873                73.2310                82.5294
 Red. masses --      3.8958                 4.4575                 2.2934
 Frc consts  --      0.0088                 0.0141                 0.0092
 IR Inten    --      0.5064                 2.7431                 7.5721

                      4                      5                      6
                      A                      A                      A
 Frequencies --     84.5916               108.1833               142.7223
 Red. masses --      4.8307                 7.1194                 1.2981
 Frc consts  --      0.0204                 0.0491                 0.0156
 IR Inten    --      2.0233                 1.3218                 0.3988

                      7                      8                      9
                      A                      A                      A
 Frequencies --    149.8202               185.5573               198.2610
 Red. masses --      1.2140                 6.0361                11.3252
 Frc consts  --      0.0161                 0.1225                 0.2623
 IR Inten    --      1.9341                 3.1731                 1.4081

                     10                     11                     12
                      A                      A                      A
 Frequencies --    226.3520               249.9803               282.8616
 Red. masses --      6.0325                 7.2703                 9.7754
 Frc consts  --      0.1821                 0.2677                 0.4608
 IR Inten    --      7.1531                 5.1264                 0.0043

                     13                     14                     15
                      A                      A                      A
 Frequencies --    317.2596               329.4367               359.3983
 Red. masses --      7.5035                10.4141                 9.6333
 Frc consts  --      0.4450                 0.6659                 0.7331
 IR Inten    --      0.0811                 1.3246                 9.5254

                     16                     17                     18
                      A                      A                      A
 Frequencies --    361.6719               368.9670               436.9331
 Red. masses --     11.5837                11.0683                 7.9716
 Frc consts  --      0.8927                 0.8878                 0.8967
 IR Inten    --      0.8387                 0.3401                 0.4486

                     19                     20                     21
                      A                      A                      A
 Frequencies --    483.2861               517.5168               524.9174
 Red. masses --      9.0908                12.0439                 8.5894
 Frc consts  --      1.2510                 1.9005                 1.3944
 IR Inten    --      6.9556                 0.7444                 4.9793

                     22                     23                     24
                      A                      A                      A
 Frequencies --    623.2125               736.0158               751.7752
 Red. masses --      9.8184                11.1290                11.6601
 Frc consts  --      2.2468                 3.5520                 3.8827
 IR Inten    --      2.6393                 2.9863                15.5587

                     25                     26                     27
                      A                      A                      A
 Frequencies --    777.4627               805.5207               877.8475
 Red. masses --      9.9930                 8.4274                10.7124
 Frc consts  --      3.5588                 3.2218                 4.8638
 IR Inten    --      3.6591               204.0021                 1.7041

                     28                     29                     30
                      A                      A                      A
 Frequencies --    947.4887              1006.7784              1078.3507
 Red. masses --      9.5830                 8.2028                11.5936
 Frc consts  --      5.0687                 4.8987                 7.9431
 IR Inten    --     31.6191                48.8227               146.9772

                     31                     32                     33
                      A                      A                      A
 Frequencies --   1160.1515              1162.7578              1169.5066
 Red. masses --      1.4428                 1.2638                 5.8384
 Frc consts  --      1.1442                 1.0067                 4.7049
 IR Inten    --     34.3887                 1.0337               110.4851

                     34                     35                     36
                      A                      A                      A
 Frequencies --   1179.7346              1188.8183              1230.9579
 Red. masses --      2.6458                 1.8221                 2.2983
 Frc consts  --      2.1696                 1.5172                 2.0518
 IR Inten    --     21.3343                89.9188                 5.8058

                     37                     38                     39
                      A                      A                      A
 Frequencies --   1251.6300              1358.2982              1442.2635
 Red. masses --      3.4186                 7.5461                 1.3048
 Frc consts  --      3.1553                 8.2028                 1.5991
 IR Inten    --    285.1138                 2.0996                23.4988

                     40                     41                     42
                      A                      A                      A
 Frequencies --   1454.1946              1476.3578              1479.0203
 Red. masses --      1.2128                 1.1276                 1.0796
 Frc consts  --      1.5110                 1.4480                 1.3915
 IR Inten    --      0.5035                52.5521                 1.0660

                     43                     44                     45
                      A                      A                      A
 Frequencies --   1514.2066              1515.7298              1515.8731
 Red. masses --      4.7093                 1.0530                 1.0505
 Frc consts  --      6.3617                 1.4253                 1.4222
 IR Inten    --    128.4124                27.9843                 4.8002

                     46                     47                     48
                      A                      A                      A
 Frequencies --   1538.3462              1542.1960              1614.0305
 Red. masses --      8.3678                10.9520                10.1971
 Frc consts  --     11.6672                15.3469                15.6513
 IR Inten    --    424.6552                 0.2732                 1.5213

                     49                     50                     51
                      A                      A                      A
 Frequencies --   2992.6081              2993.6188              3078.2911
 Red. masses --      1.0428                 1.0431                 1.0884
 Frc consts  --      5.5023                 5.5075                 6.0765
 IR Inten    --     93.8276               123.6870               125.7465

                     52                     53                     54
                      A                      A                      A
 Frequencies --   3078.5726              3116.3357              3116.4402
 Red. masses --      1.0882                 1.1062                 1.1062
 Frc consts  --      6.0765                 6.3293                 6.3299
 IR Inten    --      5.8947                15.7157                10.0374

 - Thermochemistry -
 -------------------
 Temperature   298.150 Kelvin.  Pressure   1.00000 Atm.
 Atom     1 has atomic number  6 and mass  12.00000

 Molecular mass:   235.96431 amu.
 Principal axes and moments of inertia in atomic units:
                           1         2         3
     Eigenvalues --  2634.246483736.031336135.72212
           X            0.72585   0.68641  -0.04453
           Y           -0.68741   0.72618  -0.01129
           Z            0.02458   0.03881   0.99894
 This molecule is an asymmetric top.
 Rotational symmetry number  1.
 Warning -- assumption of classical behavior for rotation
           may cause significant error
 Rotational temperatures (Kelvin)      0.03288     0.02318     0.01412
 Rotational constants (GHZ):           0.68511     0.48306     0.29414
 Zero-point vibrational energy     336866.4 (Joules/Mol)
                                   80.51299 (Kcal/Mol)
 Warning -- explicit consideration of  21 degrees of freedom as
           vibrations may cause significant error
 Vibrational temperatures:     88.90   105.36   118.74   121.71   155.65
          (Kelvin)            205.35   215.56   266.98   285.25   325.67
                              359.67   406.97   456.47   473.99   517.09
                              520.37   530.86   628.65   695.34   744.59
                              755.24   896.66  1058.96  1081.64  1118.60
                             1158.96  1263.03  1363.22  1448.53  1551.51
                             1669.20  1672.95  1682.66  1697.38  1710.44
                             1771.07  1800.82  1954.29  2075.10  2092.26
                             2124.15  2127.98  2178.61  2180.80  2181.00
                             2213.34  2218.88  2322.23  4305.70  4307.15
                             4428.97  4429.38  4483.71  4483.86

 Zero-point correction=                           0.128306 (Hartree/Particle)
 Thermal correction to Energy=                    0.142486
 Thermal correction to Enthalpy=                  0.143430
 Thermal correction to Gibbs Free Energy=         0.085748
 Sum of electronic and zero-point Energies=          -1529.869840
 Sum of electronic and thermal Energies=             -1529.855660
 Sum of electronic and thermal Enthalpies=           -1529.854715
 Sum of electronic and thermal Free Energies=        -1529.912397

                     E (Thermal)             CV                S
                      KCal/Mol        Cal/Mol-Kelvin    Cal/Mol-Kelvin
 Total                   89.411             49.314            121.402
 Electronic               0.000              0.000              1.377
 Translational            0.889              2.981             42.277
 Rotational               0.889              2.981             32.468
 Vibrational             87.634             43.353             45.279
 Vibration     1          0.597              1.973              4.399
 Vibration     2          0.599              1.967              4.065
 Vibration     3          0.600              1.961              3.830
 Vibration     4          0.601              1.960              3.781
 Vibration     5          0.606              1.943              3.301
 Vibration     6          0.616              1.910              2.767
 Vibration     7          0.618              1.903              2.675
 Vibration     8          0.632              1.860              2.272
 Vibration     9          0.637              1.842              2.149
 Vibration    10          0.650              1.801              1.908
 Vibration    11          0.663              1.763              1.731
 Vibration    12          0.682              1.705              1.516
 Vibration    13          0.704              1.641              1.324
 Vibration    14          0.712              1.617              1.263
 Vibration    15          0.734              1.556              1.125
 Vibration    16          0.736              1.551              1.115
 Vibration    17          0.741              1.536              1.084
 Vibration    18          0.797              1.390              0.836
 Vibration    19          0.839              1.287              0.701
 Vibration    20          0.873              1.211              0.616
 Vibration    21          0.880              1.195              0.599

                           ! Non-Optimized Parameters !
 Normal termination of Gaussian 16 at Sun Dec 17 21:28:01 2023.
