 Q-Chem 5.4, Q-Chem, Inc., Pleasanton, CA (2021)
 Q-Chem 5.4.0 for Intel X86 EM64T Linux

User input:
--------------------------------------------------------------
$molecule
-1 2
C                 -1.6548570000      2.8517870000     -0.7047740000
C                 -2.8650490000      2.1826710000     -0.6994420000
C                 -2.8897820000      0.7879440000     -0.5010050000
C                 -0.4333050000      2.1771120000     -0.5006570000
C                 -0.4612100000      0.7667360000     -0.2632510000
C                 -1.7069230000      0.1001550000     -0.2906870000
C                  0.8221720000      2.9451180000     -0.5717960000
C                  2.0937280000      2.1772220000     -0.4036830000
C                  1.9716110000      0.7610650000     -0.1175630000
C                  0.7857710000      0.0751420000     -0.0331100000
O                  0.8177960000      4.1772980000     -0.7741800000
O                  3.2169210000      2.7266280000     -0.4772230000
H                 -1.6016340000      3.9210930000     -0.8760160000
H                 -3.7913980000      2.7262870000     -0.8609750000
H                 -3.8329910000      0.2498070000     -0.5223230000
H                 -1.7189890000     -0.9762860000     -0.1643940000
H                  2.9166720000      0.2529110000      0.0460560000
N                  0.7276130000     -1.3310990000      0.2720630000
C                  1.8691400000     -2.1256740000     -0.1470270000
C                  0.3595870000     -1.6159900000      1.6568850000
H                  2.1124290000     -1.9020150000     -1.1869040000
H                  1.6115070000     -3.1880590000     -0.0681140000
H                  2.7768750000     -1.9585040000      0.4611480000
H                 -0.5119810000     -1.0264400000      1.9418010000
H                  1.1767370000     -1.3808170000      2.3634870000
H                  0.1098380000     -2.6782820000      1.7637260000
$end
$rem
MAX_SCF_CYCLES=200
BASIS  =  6-311++G(d,p)
GUI  =  2
JOB_TYPE  =  SP
METHOD  =  B3LYP
SOLVENT_METHOD = PCM
$end
$pcm
theory = CPCM
$end
$solvent
dielectric 37.219
opticaldielectric 1.43
$end

--------------------------------------------------------------

             Standard Nuclear Orientation (Angstroms)
    I     Atom           X                Y                Z
 ----------------------------------------------------------------
    1      C      -1.6548570000     2.8517870000    -0.7047740000
    2      C      -2.8650490000     2.1826710000    -0.6994420000
    3      C      -2.8897820000     0.7879440000    -0.5010050000
    4      C      -0.4333050000     2.1771120000    -0.5006570000
    5      C      -0.4612100000     0.7667360000    -0.2632510000
    6      C      -1.7069230000     0.1001550000    -0.2906870000
    7      C       0.8221720000     2.9451180000    -0.5717960000
    8      C       2.0937280000     2.1772220000    -0.4036830000
    9      C       1.9716110000     0.7610650000    -0.1175630000
   10      C       0.7857710000     0.0751420000    -0.0331100000
   11      O       0.8177960000     4.1772980000    -0.7741800000
   12      O       3.2169210000     2.7266280000    -0.4772230000
   13      H      -1.6016340000     3.9210930000    -0.8760160000
   14      H      -3.7913980000     2.7262870000    -0.8609750000
   15      H      -3.8329910000     0.2498070000    -0.5223230000
   16      H      -1.7189890000    -0.9762860000    -0.1643940000
   17      H       2.9166720000     0.2529110000     0.0460560000
   18      N       0.7276130000    -1.3310990000     0.2720630000
   19      C       1.8691400000    -2.1256740000    -0.1470270000
   20      C       0.3595870000    -1.6159900000     1.6568850000
   21      H       2.1124290000    -1.9020150000    -1.1869040000
   22      H       1.6115070000    -3.1880590000    -0.0681140000
   23      H       2.7768750000    -1.9585040000     0.4611480000
   24      H      -0.5119810000    -1.0264400000     1.9418010000
   25      H       1.1767370000    -1.3808170000     2.3634870000
   26      H       0.1098380000    -2.6782820000     1.7637260000
 ----------------------------------------------------------------

    9    -669.4115082291      4.91e-06  Convergence criterion met
 Total energy in the final basis set =     -669.4115082291

                    Orbital Energies (a.u.)
 --------------------------------------------------------------

 Alpha MOs
 -- Occupied --
-19.0793 -19.0747 -14.3157 -10.2177 -10.2159 -10.2049 -10.1847 -10.1826
-10.1787 -10.1709 -10.1704 -10.1696 -10.1693 -10.1674 -10.1539  -1.0155
 -0.9882  -0.9337  -0.8567  -0.7961  -0.7526  -0.7276  -0.7030  -0.6899
 -0.6305  -0.6114  -0.5912  -0.5549  -0.5115  -0.4977  -0.4890  -0.4568
 -0.4531  -0.4446  -0.4339  -0.4206  -0.4174  -0.4152  -0.4044  -0.3947
 -0.3825  -0.3762  -0.3683  -0.3645  -0.3505  -0.3480  -0.3332  -0.3048
 -0.2631  -0.2575  -0.2362  -0.2259  -0.2165  -0.1529

 Beta MOs
 -- Occupied --
-19.0732 -19.0693 -14.3152 -10.2156 -10.2142 -10.2026 -10.1845 -10.1826
-10.1779 -10.1706 -10.1700 -10.1695 -10.1691 -10.1669 -10.1545  -1.0052
 -0.9775  -0.9317  -0.8548  -0.7927  -0.7501  -0.7263  -0.7024  -0.6831
 -0.6270  -0.6102  -0.5873  -0.5527  -0.5096  -0.4956  -0.4867  -0.4547
 -0.4515  -0.4425  -0.4326  -0.4188  -0.4127  -0.4012  -0.3997  -0.3914
 -0.3817  -0.3746  -0.3652  -0.3569  -0.3491  -0.3323  -0.3236  -0.2927
 -0.2571  -0.2482  -0.2311  -0.2203  -0.2095

          Ground-State Mulliken Net Atomic Charges

     Atom                 Charge (a.u.)    Spin (a.u.)
  --------------------------------------------------------
      1 C                     0.072219       0.063222
      2 C                    -0.498518       0.006165
      3 C                    -0.424177       0.062171
      4 C                     0.376866       0.014264
      5 C                     0.158069       0.050072
      6 C                    -0.071835       0.000836
      7 C                    -0.425014       0.125431
      8 C                    -0.069119       0.172107
      9 C                    -0.175743      -0.067814
     10 C                    -0.233483       0.113552
     11 O                    -0.508703       0.231962
     12 O                    -0.540757       0.196208
     13 H                     0.177233      -0.004136
     14 H                     0.193496      -0.001288
     15 H                     0.199686      -0.004293
     16 H                     0.191386      -0.000301
     17 H                     0.187806       0.002222
     18 N                     0.128603       0.025676
     19 C                    -0.279692      -0.001882
     20 C                    -0.374316       0.010350
     21 H                     0.164636       0.000034
     22 H                     0.161299       0.000719
     23 H                     0.133003       0.002551
     24 H                     0.131353      -0.000112
     25 H                     0.148043      -0.001083
     26 H                     0.177661       0.003367
  --------------------------------------------------------
  Sum of atomic charges =    -1.000000

                    Cartesian Multipole Moments
 -----------------------------------------------------------------
    Charge (ESU x 10^10)
                -4.8032
    Dipole Moment (Debye)
         X      -9.2348      Y     -17.9320      Z       3.8820
       Tot      20.5404
    Quadrupole Moments (Debye-Ang)
        XX    -117.1922     XY     -34.3809     YY    -151.2707
        XZ       5.8008     YZ       9.3869     ZZ     -95.1517

 Total job time:  51.68s(wall), 329.42s(cpu)
        *  Thank you very much for using Q-Chem.  Have a nice day.  *
