 Gaussian 16, Revision A.03,
 Gaussian 16:  ES64L-G16RevA.03 25-Dec-2016

 ----------------------------------------------------------------
 #P UB3LYP/6-311++G(d,p) SCRF=(PCM,Solvent=n,n-DiMethylFormamide)
 ----------------------------------------------------------------

 -------
 Reduced
 -------
 Symbolic Z-matrix:
 Charge = -2 Multiplicity = 1

                         Standard orientation:
 ---------------------------------------------------------------------
 Center     Atomic      Atomic             Coordinates (Angstroms)
 Number     Number       Type             X           Y           Z
 ---------------------------------------------------------------------
      1          6           0       -1.067764    1.100672   -0.428455
      2          6           0       -2.371744    1.679071   -0.675591
      3          6           0       -3.547903    1.000113   -0.471465
      4          6           0       -3.626336   -0.373320    0.006145
      5          6           0       -2.362334   -0.953882    0.230445
      6          6           0       -1.107131   -0.284923    0.019443
      7          8           0       -0.007264    1.800153   -0.580981
      8          8           0       -4.774600   -0.948157    0.180270
      9          6           0        1.489256   -0.478023   -0.047936
     10          6           0        2.162049   -0.972459   -1.170071
     11          6           0        2.195445    0.337859    0.858851
     12          6           0        3.539259    0.626865    0.609553
     13          6           0        3.496924   -0.656948   -1.423409
     14          6           0        4.197994    0.144310   -0.524324
     15          1           0       -2.374846    2.711157   -1.025801
     16          1           0       -4.502208    1.491829   -0.669399
     17          1           0       -2.323198   -1.982955    0.572869
     18          1           0        1.617855   -1.614650   -1.855038
     19          1           0        4.077807    1.260177    1.312047
     20          1           0        3.988219   -1.041336   -2.314722
     21          1           0        5.241479    0.393853   -0.700978
     22          6           0        0.100012   -1.035651    0.246239
     23          8           0        0.137602   -2.223212    0.656001
     24          6           0        1.489940    0.941579    2.044273
     25          1           0        0.926200    0.189270    2.602990
     26          1           0        0.776182    1.683708    1.670379
     27          1           0        2.200601    1.427107    2.723142
 ---------------------------------------------------------------------

 SCF Done:  E(UB3LYP) =  -765.638615248     A.U. after   18 cycles

 The electronic state is 1-A.
 Alpha  occ. eigenvalues --  -19.07172 -19.03331 -19.01716 -10.22254 -10.19346
 Alpha  occ. eigenvalues --  -10.17457 -10.17164 -10.16804 -10.16487 -10.16426
 Alpha  occ. eigenvalues --  -10.16235 -10.16231 -10.14919 -10.14355 -10.13631
 Alpha  occ. eigenvalues --  -10.13432 -10.11789  -0.99418  -0.95218  -0.92920
 Alpha  occ. eigenvalues --   -0.84905  -0.78597  -0.76344  -0.74444  -0.71770
 Alpha  occ. eigenvalues --   -0.67570  -0.65785  -0.61890  -0.58618  -0.57497
 Alpha  occ. eigenvalues --   -0.54616  -0.51895  -0.47892  -0.45927  -0.44824
 Alpha  occ. eigenvalues --   -0.43493  -0.43284  -0.42139  -0.40595  -0.40262
 Alpha  occ. eigenvalues --   -0.39612  -0.38766  -0.37739  -0.37206  -0.36350
 Alpha  occ. eigenvalues --   -0.34972  -0.34487  -0.34164  -0.33413  -0.32549
 Alpha  occ. eigenvalues --   -0.32164  -0.31791  -0.25367  -0.23967  -0.23390
 Alpha  occ. eigenvalues --   -0.22283  -0.22021  -0.19977  -0.19643  -0.13032
 Alpha virt. eigenvalues --   -0.03489  -0.00418  -0.00035   0.00117   0.00909
 Alpha virt. eigenvalues --    0.01440   0.01914   0.02559   0.03496   0.03962
 Alpha virt. eigenvalues --    0.04301   0.04667   0.05401   0.05561   0.06212

  Beta  occ. eigenvalues --  -19.07172 -19.03331 -19.01716 -10.22254 -10.19346
  Beta  occ. eigenvalues --  -10.17457 -10.17164 -10.16804 -10.16487 -10.16426
  Beta  occ. eigenvalues --  -10.16235 -10.16231 -10.14919 -10.14355 -10.13631
  Beta  occ. eigenvalues --  -10.13432 -10.11789  -0.99418  -0.95218  -0.92920
  Beta  occ. eigenvalues --   -0.84905  -0.78597  -0.76344  -0.74444  -0.71770
  Beta  occ. eigenvalues --   -0.67570  -0.65785  -0.61890  -0.58618  -0.57497
  Beta  occ. eigenvalues --   -0.54616  -0.51895  -0.47892  -0.45927  -0.44824
  Beta  occ. eigenvalues --   -0.43493  -0.43284  -0.42139  -0.40595  -0.40262
  Beta  occ. eigenvalues --   -0.39612  -0.38766  -0.37739  -0.37206  -0.36350
  Beta  occ. eigenvalues --   -0.34972  -0.34487  -0.34164  -0.33413  -0.32549
  Beta  occ. eigenvalues --   -0.32164  -0.31791  -0.25367  -0.23967  -0.23390
  Beta  occ. eigenvalues --   -0.22283  -0.22021  -0.19977  -0.19643  -0.13032
  Beta virt. eigenvalues --   -0.03489  -0.00418  -0.00035   0.00117   0.00909
  Beta virt. eigenvalues --    0.01440   0.01914   0.02559   0.03496   0.03962
  Beta virt. eigenvalues --    0.04301   0.04667   0.05401   0.05561   0.06212

 Mulliken charges and spin densities:
               1          2
     1  C   -1.375834   0.000000
     2  C   -0.242063  -0.000000
     3  C   -0.049400   0.000000
     4  C   -0.498859  -0.000000
     5  C    0.088922  -0.000000
     6  C    1.331383  -0.000000
     7  O   -0.493640  -0.000000
     8  O   -0.726732   0.000000
     9  C    0.550411  -0.000000
    10  C   -0.106628  -0.000000
    11  C    0.713079   0.000000
    12  C   -0.269300   0.000000
    13  C   -0.557829   0.000000
    14  C   -0.213248   0.000000
    15  H    0.153688  -0.000000
    16  H    0.159048   0.000000
    17  H    0.149933   0.000000
    18  H    0.197110  -0.000000
    19  H    0.157130  -0.000000
    20  H    0.173833   0.000000
    21  H    0.177689  -0.000000
    22  C   -0.778809  -0.000000
    23  O   -0.412527  -0.000000
    24  C   -0.624483   0.000000
    25  H    0.154993  -0.000000
    26  H    0.190013   0.000000
    27  H    0.152119  -0.000000
 Sum of Mulliken charges =  -2.00000  -0.00000

 Dipole moment (field-independent basis, Debye):
    X=             18.0267    Y=              4.2192    Z=             -0.2267  Tot=             18.5153
 Quadrupole moment (field-independent basis, Debye-Ang):
   XX=           -200.1336   YY=           -135.0827   ZZ=           -108.1568
   XY=            -16.4337   XZ=              3.4423   YZ=             11.2163

 Normal termination of Gaussian 16 at Wed Jan 24 22:53:28 2024.
