 Q-Chem 5.4, Q-Chem, Inc., Pleasanton, CA (2021)
 Q-Chem 5.4.0 for Intel X86 EM64T Linux

User input:
--------------------------------------------------------------
$molecule
0 1
Br                -3.1225130000     -1.1508900000      0.0156470000
C                 -1.3858860000     -0.4191810000      0.0071530000
C                 -1.1307250000      0.9033170000      0.0090440000
Br                -2.4708740000      2.2280860000      0.0203270000
C                  0.2762040000      1.4318280000      0.0020650000
O                  0.5040470000      2.6166980000      0.0038200000
C                  1.3857900000      0.4191990000     -0.0071540000
C                  1.1306890000     -0.9033620000     -0.0090480000
Br                 2.4706940000     -2.2279030000     -0.0203070000
C                 -0.2761760000     -1.4316630000     -0.0020940000
O                 -0.5038790000     -2.6165790000     -0.0038300000
Br                 3.1226290000      1.1504500000     -0.0156210000
$end
$rem
MAX_SCF_CYCLES=200
BASIS  =  6-311++G(d,p)
GUI  =  2
JOB_TYPE  =  SP
METHOD  =  B3LYP
SOLVENT_METHOD = PCM
$end
$pcm
theory = CPCM
$end
$solvent
dielectric 37.219
opticaldielectric 1.43
$end

--------------------------------------------------------------

             Standard Nuclear Orientation (Angstroms)
    I     Atom           X                Y                Z
 ----------------------------------------------------------------
    1      Br     -3.1225130000    -1.1508900000     0.0156470000
    2      C      -1.3858860000    -0.4191810000     0.0071530000
    3      C      -1.1307250000     0.9033170000     0.0090440000
    4      Br     -2.4708740000     2.2280860000     0.0203270000
    5      C       0.2762040000     1.4318280000     0.0020650000
    6      O       0.5040470000     2.6166980000     0.0038200000
    7      C       1.3857900000     0.4191990000    -0.0071540000
    8      C       1.1306890000    -0.9033620000    -0.0090480000
    9      Br      2.4706940000    -2.2279030000    -0.0203070000
   10      C      -0.2761760000    -1.4316630000    -0.0020940000
   11      O      -0.5038790000    -2.6165790000    -0.0038300000
   12      Br      3.1226290000     1.1504500000    -0.0156210000
 ----------------------------------------------------------------

    8  -10675.7116168604      3.99e-06  Convergence criterion met
 Total energy in the final basis set =   -10675.7116168604

                    Orbital Energies (a.u.)
 --------------------------------------------------------------

 Alpha MOs
 -- Occupied --
********-482.8623-482.8622-482.8622 -62.5150 -62.5150 -62.5149 -62.5149
-56.3357 -56.3357 -56.3356 -56.3356 -56.3317 -56.3317 -56.3317 -56.3317
-56.3312 -56.3312 -56.3311 -56.3311 -19.1677 -19.1676 -10.3249 -10.3249
-10.2858 -10.2858 -10.2851 -10.2851  -8.7238  -8.7238  -8.7238  -8.7237
 -6.5560  -6.5560  -6.5560  -6.5560  -6.5425  -6.5425  -6.5424  -6.5424
 -6.5410  -6.5410  -6.5409  -6.5409  -2.6670  -2.6670  -2.6669  -2.6669
 -2.6631  -2.6630  -2.6629  -2.6629  -2.6620  -2.6620  -2.6618  -2.6618
 -2.6513  -2.6513  -2.6513  -2.6513  -2.6513  -2.6513  -2.6512  -2.6512
 -1.1079  -1.1060  -0.9203  -0.8909  -0.8324  -0.8321  -0.8047  -0.7488
 -0.7173  -0.6291  -0.6284  -0.5740  -0.5160  -0.4986  -0.4889  -0.4605
 -0.4584  -0.4555  -0.4531  -0.4274  -0.3990  -0.3755  -0.3380  -0.3358
 -0.3311  -0.3299  -0.3236  -0.3214  -0.3081  -0.2966  -0.2927  -0.2756

          Ground-State Mulliken Net Atomic Charges

     Atom                 Charge (a.u.)
  ----------------------------------------
      1 Br                   -0.045567
      2 C                     0.491356
      3 C                     0.499453
      4 Br                   -0.045433
      5 C                    -0.746359
      6 O                    -0.153402
      7 C                     0.491415
      8 C                     0.499287
      9 Br                   -0.045343
     10 C                    -0.746367
     11 O                    -0.153395
     12 Br                   -0.045644
  ----------------------------------------
  Sum of atomic charges =     0.000000

                    Cartesian Multipole Moments
 -----------------------------------------------------------------
    Charge (ESU x 10^10)
                 0.0000
    Dipole Moment (Debye)
         X       0.0005      Y      -0.0014      Z      -0.0000
       Tot       0.0015
    Quadrupole Moments (Debye-Ang)
        XX    -108.7685     XY      -4.6165     YY    -131.8109
        XZ      -0.0534     YZ      -0.0157     ZZ    -115.6136

 Total job time:  62.84s(wall), 143.39s(cpu)
        *  Thank you very much for using Q-Chem.  Have a nice day.  *
