 Q-Chem 5.4, Q-Chem, Inc., Pleasanton, CA (2021)
 Q-Chem 5.4.0 for Intel X86 EM64T Linux

User input:
--------------------------------------------------------------
$molecule
-1 2
C                 -2.5849110000     -0.6663070000     -0.2172430000
C                 -1.2439050000     -0.0059420000     -0.0324400000
C                 -1.1269060000      1.3267160000      0.2752490000
C                  0.1478940000      1.9875720000      0.4583360000
O                  0.2394810000      3.2186830000      0.7419370000
C                  1.3105360000      1.1411030000      0.2937610000
C                  1.2290190000     -0.1942830000     -0.0135740000
C                  2.4571730000     -1.0503870000     -0.1785630000
C                 -0.0627320000     -0.8431210000     -0.1942090000
O                 -0.1544200000     -2.0756240000     -0.4783910000
H                 -2.7145890000     -1.4961300000      0.4862810000
H                 -3.3987670000      0.0505610000     -0.0734570000
H                 -2.6719470000     -1.1059580000     -1.2170050000
H                 -2.0128730000      1.9468370000      0.3947800000
H                  2.2782950000      1.6200250000      0.4273870000
H                  3.3679380000     -0.4647100000     -0.0223240000
H                  2.4914320000     -1.5000930000     -1.1770500000
H                  2.4492810000     -1.8889430000      0.5265250000
$end
$rem
MAX_SCF_CYCLES=200
BASIS  =  6-311++G(d,p)
GUI  =  2
JOB_TYPE  =  SP
METHOD  =  B3LYP
SOLVENT_METHOD = PCM
$end
$pcm
theory = CPCM
$end
$solvent
dielectric 37.219
opticaldielectric 1.43
$end

--------------------------------------------------------------

             Standard Nuclear Orientation (Angstroms)
    I     Atom           X                Y                Z
 ----------------------------------------------------------------
    1      C      -2.5849110000    -0.6663070000    -0.2172430000
    2      C      -1.2439050000    -0.0059420000    -0.0324400000
    3      C      -1.1269060000     1.3267160000     0.2752490000
    4      C       0.1478940000     1.9875720000     0.4583360000
    5      O       0.2394810000     3.2186830000     0.7419370000
    6      C       1.3105360000     1.1411030000     0.2937610000
    7      C       1.2290190000    -0.1942830000    -0.0135740000
    8      C       2.4571730000    -1.0503870000    -0.1785630000
    9      C      -0.0627320000    -0.8431210000    -0.1942090000
   10      O      -0.1544200000    -2.0756240000    -0.4783910000
   11      H      -2.7145890000    -1.4961300000     0.4862810000
   12      H      -3.3987670000     0.0505610000    -0.0734570000
   13      H      -2.6719470000    -1.1059580000    -1.2170050000
   14      H      -2.0128730000     1.9468370000     0.3947800000
   15      H       2.2782950000     1.6200250000     0.4273870000
   16      H       3.3679380000    -0.4647100000    -0.0223240000
   17      H       2.4914320000    -1.5000930000    -1.1770500000
   18      H       2.4492810000    -1.8889430000     0.5265250000
 ----------------------------------------------------------------

    9    -460.3847806815      5.06e-06  Convergence criterion met
 Total energy in the final basis set =     -460.3847806815

                    Orbital Energies (a.u.)
 --------------------------------------------------------------

 Alpha MOs
 -- Occupied --
-19.0758 -19.0752 -10.2160 -10.2136 -10.1697 -10.1697 -10.1545 -10.1545
-10.1541 -10.1540  -0.9965  -0.9938  -0.8242  -0.7749  -0.7135  -0.6720
 -0.6543  -0.5657  -0.5501  -0.4822  -0.4611  -0.4285  -0.4252  -0.4024
 -0.3997  -0.3957  -0.3946  -0.3825  -0.3713  -0.3588  -0.3549  -0.3451
 -0.2752  -0.2430  -0.2427  -0.2354  -0.1590

 Beta MOs
 -- Occupied --
-19.0691 -19.0687 -10.2145 -10.2117 -10.1686 -10.1686 -10.1546 -10.1546
-10.1531 -10.1531  -0.9847  -0.9819  -0.8183  -0.7729  -0.7094  -0.6702
 -0.6457  -0.5621  -0.5459  -0.4802  -0.4566  -0.4205  -0.4190  -0.4011
 -0.3978  -0.3950  -0.3902  -0.3703  -0.3634  -0.3521  -0.3430  -0.3343
 -0.2443  -0.2365  -0.2356  -0.2295

          Ground-State Mulliken Net Atomic Charges

     Atom                 Charge (a.u.)    Spin (a.u.)
  --------------------------------------------------------
      1 C                    -0.415123       0.004943
      2 C                     1.235343       0.093659
      3 C                    -0.575757       0.052200
      4 C                    -0.270855       0.152046
      5 O                    -0.543752       0.227698
      6 C                    -0.575409       0.052136
      7 C                     1.238175       0.093780
      8 C                    -0.415517       0.004980
      9 C                    -1.487166       0.066588
     10 O                    -0.503346       0.248936
     11 H                     0.168791       0.004496
     12 H                     0.153397      -0.000392
     13 H                     0.168760       0.004494
     14 H                     0.165718      -0.007079
     15 H                     0.166144      -0.007081
     16 H                     0.153377      -0.000393
     17 H                     0.168619       0.004485
     18 H                     0.168601       0.004503
  --------------------------------------------------------
  Sum of atomic charges =    -1.000000

                    Cartesian Multipole Moments
 -----------------------------------------------------------------
    Charge (ESU x 10^10)
                -4.8032
    Dipole Moment (Debye)
         X      -0.2792      Y      -3.7676      Z      -0.8705
       Tot       3.8769
    Quadrupole Moments (Debye-Ang)
        XX     -58.7963     XY      -3.5130     YY    -105.6489
        XZ      -0.6837     YZ      -9.7360     ZZ     -65.6984

 Total job time:  22.11s(wall), 131.63s(cpu)
        *  Thank you very much for using Q-Chem.  Have a nice day.  *
