 Gaussian 16, Revision A.03,
 Gaussian 16:  ES64L-G16RevA.03 25-Dec-2016

 ----------------------------------------------------------------------
 #P UB3LYP/6-311++G(d,p) nosym opt freq SCRF=(PCM,Solvent=n,n-DiMethylF
 ormamide)
 ----------------------------------------------------------------------

 --------
 Oxidized
 --------
 Symbolic Z-matrix:
 Charge =  0 Multiplicity = 1

 SCF Done:  E(UB3LYP) =  -916.910278554     A.U. after   15 cycles
 SCF Done:  E(UB3LYP) =  -916.910458277     A.U. after   11 cycles
 SCF Done:  E(UB3LYP) =  -916.910492974     A.U. after   11 cycles
 SCF Done:  E(UB3LYP) =  -916.910494377     A.U. after   10 cycles
 SCF Done:  E(UB3LYP) =  -916.910495706     A.U. after    9 cycles
 Optimization completed.
    -- Stationary point found.
 Normal termination of Gaussian 16 at Sat Feb 10 22:19:07 2024.

 ----------------------------------------------------------------------
 #P Geom=AllCheck Guess=TCheck SCRF=Check GenChk UB3LYP/6-311++G(d,p) F
 req
 ----------------------------------------------------------------------

 Structure from the checkpoint file:  "221.chk"
 --------
 Oxidized
 --------
 Charge =  0 Multiplicity = 1

                          Input orientation:
 ---------------------------------------------------------------------
 Center     Atomic      Atomic             Coordinates (Angstroms)
 Number     Number       Type             X           Y           Z
 ---------------------------------------------------------------------
      1          6           0        4.999084   -2.491099    0.200820
      2          6           0        5.691365   -1.649755   -0.663302
      3          6           0        4.991335   -0.801923   -1.525809
      4          6           0        3.600826   -2.494666    0.212819
      5          6           0        2.895229   -1.640010   -0.656575
      6          6           0        3.600874   -0.797785   -1.521777
      7          6           0        2.885771   -3.405540    1.148286
      8          6           0        1.394295   -3.380836    1.131573
      9          6           0        0.688469   -2.527898    0.263956
     10          6           0        1.407692   -1.614370   -0.673503
     11          6           0        0.692061   -4.221885    1.994673
     12          6           0       -0.708928   -2.532124    0.275793
     13          6           0       -1.402841   -3.371672    1.136958
     14          8           0        3.495236   -4.148512    1.905621
     15          8           0        0.789478   -0.874655   -1.426633
     16          1           0        5.529377   -3.152670    0.873826
     17          1           0       -2.484323   -3.370818    1.141621
     18          1           0        3.046233   -0.146055   -2.184688
     19          1           0        1.237709   -4.876714    2.660730
     20          1           0       -1.240982   -1.871407   -0.396255
     21          6           0       -0.701908   -4.222793    2.002795
     22          1           0        5.531563   -0.146706   -2.198771
     23          6           0       -1.401131   -5.146298    2.949562
     24          8           0       -0.826889   -5.894125    3.713659
     25          8           0       -2.733710   -5.055721    2.859826
     26          6           0       -3.504084   -5.910116    3.735210
     27          1           0       -4.543848   -5.688638    3.510089
     28          1           0       -3.279544   -5.680748    4.776742
     29          1           0       -3.281340   -6.956957    3.529475
     30          1           0        6.774890   -1.652446   -0.666962
 ---------------------------------------------------------------------

 SCF Done:  E(UB3LYP) =  -916.910495706     A.U. after    1 cycles

 Alpha  occ. eigenvalues --  -19.18656 -19.13732 -19.13608 -19.13062 -10.32401
 Alpha  occ. eigenvalues --  -10.28938 -10.28863 -10.23114 -10.22044 -10.21984
 Alpha  occ. eigenvalues --  -10.21728 -10.21372 -10.21323 -10.21032 -10.20968
 Alpha  occ. eigenvalues --  -10.20579 -10.20219 -10.20183 -10.20140 -10.20124
 Alpha  occ. eigenvalues --   -1.12835  -1.07064  -1.06850  -1.04016  -0.90370
 Alpha  occ. eigenvalues --   -0.88966  -0.82631  -0.79319  -0.78402  -0.78211
 Alpha  occ. eigenvalues --   -0.74546  -0.69943  -0.67727  -0.65652  -0.62596
 Alpha  occ. eigenvalues --   -0.60159  -0.59228  -0.56737  -0.56405  -0.52823
 Alpha  occ. eigenvalues --   -0.50855  -0.50517  -0.50061  -0.49290  -0.48315
 Alpha  occ. eigenvalues --   -0.46590  -0.46140  -0.46114  -0.45964  -0.45404
 Alpha  occ. eigenvalues --   -0.44717  -0.43790  -0.42524  -0.42333  -0.41259
 Alpha  occ. eigenvalues --   -0.39473  -0.38963  -0.38366  -0.37418  -0.37277
 Alpha  occ. eigenvalues --   -0.36924  -0.32764  -0.30545  -0.29672  -0.29351
 Alpha  occ. eigenvalues --   -0.28828  -0.28297  -0.28200  -0.28169
 Alpha virt. eigenvalues --   -0.12696  -0.08718  -0.05966  -0.03465  -0.00883
 Alpha virt. eigenvalues --   -0.00232  -0.00191   0.00868   0.01169   0.01949
 Alpha virt. eigenvalues --    0.02640   0.02904   0.03422   0.03547   0.03830

  Beta  occ. eigenvalues --  -19.18656 -19.13732 -19.13608 -19.13062 -10.32401
  Beta  occ. eigenvalues --  -10.28938 -10.28863 -10.23114 -10.22044 -10.21984
  Beta  occ. eigenvalues --  -10.21728 -10.21372 -10.21323 -10.21032 -10.20968
  Beta  occ. eigenvalues --  -10.20579 -10.20219 -10.20183 -10.20140 -10.20124
  Beta  occ. eigenvalues --   -1.12835  -1.07064  -1.06850  -1.04016  -0.90370
  Beta  occ. eigenvalues --   -0.88966  -0.82631  -0.79319  -0.78402  -0.78211
  Beta  occ. eigenvalues --   -0.74546  -0.69943  -0.67727  -0.65652  -0.62596
  Beta  occ. eigenvalues --   -0.60159  -0.59228  -0.56737  -0.56405  -0.52823
  Beta  occ. eigenvalues --   -0.50855  -0.50517  -0.50061  -0.49290  -0.48315
  Beta  occ. eigenvalues --   -0.46590  -0.46140  -0.46114  -0.45964  -0.45404
  Beta  occ. eigenvalues --   -0.44717  -0.43790  -0.42524  -0.42333  -0.41259
  Beta  occ. eigenvalues --   -0.39473  -0.38963  -0.38366  -0.37418  -0.37277
  Beta  occ. eigenvalues --   -0.36924  -0.32764  -0.30545  -0.29672  -0.29351
  Beta  occ. eigenvalues --   -0.28828  -0.28297  -0.28200  -0.28169
  Beta virt. eigenvalues --   -0.12696  -0.08718  -0.05966  -0.03465  -0.00883
  Beta virt. eigenvalues --   -0.00232  -0.00191   0.00868   0.01169   0.01949
  Beta virt. eigenvalues --    0.02640   0.02904   0.03422   0.03547   0.03830

 Mulliken charges and spin densities:
               1          2
     1  C    0.109004   0.000000
     2  C   -0.402178  -0.000000
     3  C   -0.419714   0.000000
     4  C    0.429753  -0.000000
     5  C    0.330967   0.000000
     6  C    0.112664  -0.000000
     7  C   -0.720044   0.000000
     8  C    0.406951   0.000000
     9  C    0.305660  -0.000000
    10  C   -0.802002   0.000000
    11  C    0.047480  -0.000000
    12  C   -0.016280  -0.000000
    13  C   -0.609960   0.000000
    14  O   -0.263122   0.000000
    15  O   -0.257996  -0.000000
    16  H    0.185722   0.000000
    17  H    0.226461   0.000000
    18  H    0.188187  -0.000000
    19  H    0.183326  -0.000000
    20  H    0.198128   0.000000
    21  C    0.301773  -0.000000
    22  H    0.210277   0.000000
    23  C    0.163076   0.000000
    24  O   -0.317303  -0.000000
    25  O   -0.116922   0.000000
    26  C   -0.238668  -0.000000
    27  H    0.170302   0.000000
    28  H    0.191303  -0.000000
    29  H    0.191258  -0.000000
    30  H    0.211899  -0.000000
 Sum of Mulliken charges =  -0.00000   0.00000

 Dipole moment (field-independent basis, Debye):
    X=             -1.2512    Y=              1.5625    Z=             -1.6039  Tot=              2.5650
 Quadrupole moment (field-independent basis, Debye-Ang):
   XX=            -80.9846   YY=           -128.9550   ZZ=           -122.0168
   XY=             24.9603   XZ=            -22.7997   YZ=             10.3433

  Exact polarizability: 371.051  31.076 238.760 -33.043-110.362 243.939
 Approx polarizability: 411.785   2.464 285.984  -3.880-133.866 291.930

                      1                      2                      3
                      A                      A                      A
 Frequencies --     24.5173                34.7203                64.9935
 Red. masses --      6.0661                 7.4663                 5.7273
 Frc consts  --      0.0021                 0.0053                 0.0143
 IR Inten    --      8.9056                 0.0429                 4.4557

                      4                      5                      6
                      A                      A                      A
 Frequencies --    100.2088               108.9405               121.1621
 Red. masses --      5.1972                 4.3759                 2.6053
 Frc consts  --      0.0307                 0.0306                 0.0225
 IR Inten    --      1.7457                 0.0078                 1.6804

                      7                      8                      9
                      A                      A                      A
 Frequencies --    139.9968               154.2777               193.5920
 Red. masses --      1.5316                 3.7077                 5.2302
 Frc consts  --      0.0177                 0.0520                 0.1155
 IR Inten    --      1.5994                 7.6527                 2.3372

                     10                     11                     12
                      A                      A                      A
 Frequencies --    217.7208               242.8565               272.8015
 Red. masses --      5.1820                 7.7180                 6.0773
 Frc consts  --      0.1447                 0.2682                 0.2665
 IR Inten    --      1.7994                 0.8344                 1.0374

                     13                     14                     15
                      A                      A                      A
 Frequencies --    291.3973               332.8828               383.7900
 Red. masses --      6.3214                 5.2560                 9.7791
 Frc consts  --      0.3163                 0.3432                 0.8487
 IR Inten    --      6.8612                27.9439                33.3964

                     16                     17                     18
                      A                      A                      A
 Frequencies --    409.3113               410.4530               440.0724
 Red. masses --      3.3044                 8.3609                 3.6191
 Frc consts  --      0.3262                 0.8299                 0.4130
 IR Inten    --      0.3912                13.6977                 0.0934

                     19                     20                     21
                      A                      A                      A
 Frequencies --    444.7639               461.4617               493.1125
 Red. masses --      4.3917                 9.3517                 7.5783
 Frc consts  --      0.5118                 1.1733                 1.0857
 IR Inten    --      0.0004                 8.3989                 4.3296

                     22                     23                     24
                      A                      A                      A
 Frequencies --    503.3790               511.5773               644.1767
 Red. masses --      8.2320                 4.8140                 6.9302
 Frc consts  --      1.2290                 0.7423                 1.6944
 IR Inten    --     15.6444                 0.2825                21.8742

                     25                     26                     27
                      A                      A                      A
 Frequencies --    651.8395               659.0424               697.0994
 Red. masses --      6.6663                 4.8090                 6.8428
 Frc consts  --      1.6688                 1.2306                 1.9592
 IR Inten    --      2.1262                 0.3573                 1.5629

                     28                     29                     30
                      A                      A                      A
 Frequencies --    707.9088               722.2205               724.8241
 Red. masses --      7.1728                 2.6001                 3.8048
 Frc consts  --      2.1178                 0.7991                 1.1777
 IR Inten    --      3.6147               126.5672                55.7496

                     31                     32                     33
                      A                      A                      A
 Frequencies --    777.3987               794.7835               811.3816
 Red. masses --      2.3638                 6.1893                 3.8088
 Frc consts  --      0.8417                 2.3035                 1.4774
 IR Inten    --      2.5840                15.0192                 3.7318

                     34                     35                     36
                      A                      A                      A
 Frequencies --    818.1480               854.8968               885.7430
 Red. masses --      2.8058                 5.7818                 1.6063
 Frc consts  --      1.1065                 2.4897                 0.7425
 IR Inten    --     20.8401                10.5069                15.0162

                     37                     38                     39
                      A                      A                      A
 Frequencies --    916.2844               939.6435               949.8324
 Red. masses --      1.4467                 7.1205                 7.2679
 Frc consts  --      0.7157                 3.7042                 3.8632
 IR Inten    --      0.5923                88.0459               126.2817

                     40                     41                     42
                      A                      A                      A
 Frequencies --    967.5259              1003.5411              1006.5482
 Red. masses --      1.5078                 1.3864                 4.4501
 Frc consts  --      0.8316                 0.8226                 2.6564
 IR Inten    --      8.5952                 2.2173                 6.8316

                     43                     44                     45
                      A                      A                      A
 Frequencies --   1015.1480              1025.1668              1056.3370
 Red. masses --      1.3693                 1.3367                 1.9638
 Frc consts  --      0.8314                 0.8277                 1.2911
 IR Inten    --      0.7351                 0.0001                 2.2931

                     46                     47                     48
                      A                      A                      A
 Frequencies --   1102.0683              1113.6071              1140.4454
 Red. masses --      2.6010                 2.0992                 1.9833
 Frc consts  --      1.8613                 1.5338                 1.5198
 IR Inten    --      2.5148                 4.8066                30.4599

                     49                     50                     51
                      A                      A                      A
 Frequencies --   1168.1017              1173.4835              1181.9330
 Red. masses --      1.2766                 1.6681                 1.6790
 Frc consts  --      1.0263                 1.3534                 1.3820
 IR Inten    --      1.3352                39.0337               105.3313

                     52                     53                     54
                      A                      A                      A
 Frequencies --   1188.8081              1211.6031              1229.4127
 Red. masses --      1.8280                 1.6949                 1.7014
 Frc consts  --      1.5221                 1.4659                 1.5151
 IR Inten    --     63.5712                69.4353                31.0872

                     55                     56                     57
                      A                      A                      A
 Frequencies --   1255.1580              1282.5914              1308.5272
 Red. masses --      3.4958                 1.7862                 4.7433
 Frc consts  --      3.2448                 1.7312                 4.7852
 IR Inten    --   1567.5044               520.8218               126.9751

                     58                     59                     60
                      A                      A                      A
 Frequencies --   1314.6923              1353.3451              1364.8608
 Red. masses --      2.5021                 8.5393                 8.9868
 Frc consts  --      2.5480                 9.2149                 9.8635
 IR Inten    --     44.6629                76.8299                 4.9023

                     61                     62                     63
                      A                      A                      A
 Frequencies --   1438.1825              1469.0125              1475.4318
 Red. masses --      4.1029                 1.2235                 1.0444
 Frc consts  --      5.0000                 1.5557                 1.3395
 IR Inten    --      7.3384                30.6410                15.5999

                     64                     65                     66
                      A                      A                      A
 Frequencies --   1480.5107              1484.7823              1500.5544
 Red. masses --      2.4026                 1.0508                 2.6894
 Frc consts  --      3.1028                 1.3648                 3.5679
 IR Inten    --      4.1658                17.0173                37.2198

                     67                     68                     69
                      A                      A                      A
 Frequencies --   1512.4100              1598.7818              1611.8535
 Red. masses --      2.7847                 7.3620                 7.2765
 Frc consts  --      3.7529                11.0873                11.1385
 IR Inten    --     13.3207                13.1728                10.3816

                     70                     71                     72
                      A                      A                      A
 Frequencies --   1618.8612              1636.3611              1697.3209
 Red. masses --      5.9156                 6.2923                12.3781
 Frc consts  --      9.1341                 9.9271                21.0103
 IR Inten    --    311.0476                52.9517                39.1332

                     73                     74                     75
                      A                      A                      A
 Frequencies --   1706.1811              1734.5889              3058.1736
 Red. masses --     11.6396                11.5813                 1.0294
 Frc consts  --     19.9636                20.5306                 5.6725
 IR Inten    --    794.3622               548.3562                39.0824

                     76                     77                     78
                      A                      A                      A
 Frequencies --   3136.2592              3169.5374              3180.2846
 Red. masses --      1.1080                 1.1065                 1.0876
 Frc consts  --      6.4213                 6.5495                 6.4809
 IR Inten    --     23.0251                15.7622                 2.9527

                     79                     80                     81
                      A                      A                      A
 Frequencies --   3192.2724              3203.3372              3203.9969
 Red. masses --      1.0913                 1.0893                 1.0926
 Frc consts  --      6.5524                 6.5859                 6.6085
 IR Inten    --      9.2194                 1.4873                 2.8372

                     82                     83                     84
                      A                      A                      A
 Frequencies --   3207.0611              3215.4676              3218.4812
 Red. masses --      1.0957                 1.0905                 1.0944
 Frc consts  --      6.6398                 6.6431                 6.6792
 IR Inten    --     20.1882                 2.5310                 1.9003

 - Thermochemistry -
 -------------------
 Temperature   298.150 Kelvin.  Pressure   1.00000 Atm.
 Atom     1 has atomic number  6 and mass  12.00000

 Molecular mass:   266.05791 amu.
 Principal axes and moments of inertia in atomic units:
                           1         2         3
     Eigenvalues --  1910.53545********************
           X            0.76231   0.64720   0.00363
           Y            0.45068  -0.53486   0.71471
           Z           -0.46450   0.54320   0.69941
 This molecule is an asymmetric top.
 Rotational symmetry number  1.
 Warning -- assumption of classical behavior for rotation
           may cause significant error
 Rotational temperatures (Kelvin)      0.04533     0.00849     0.00716
 Rotational constants (GHZ):           0.94463     0.17685     0.14910
 Zero-point vibrational energy     580941.4 (Joules/Mol)
                                  138.84833 (Kcal/Mol)
 Warning -- explicit consideration of  23 degrees of freedom as
           vibrations may cause significant error
 Vibrational temperatures:     35.27    49.95    93.51   144.18   156.74
          (Kelvin)            174.33   201.42   221.97   278.54   313.25
                              349.42   392.50   419.26   478.94   552.19
                              588.91   590.55   633.17   639.92   663.94
                              709.48   724.25   736.05   926.83   937.85
                              948.22  1002.97  1018.52  1039.11  1042.86
                             1118.50  1143.52  1167.40  1177.13  1230.01
                             1274.39  1318.33  1351.94  1366.60  1392.05
                             1443.87  1448.20  1460.57  1474.99  1519.83
                             1585.63  1602.23  1640.85  1680.64  1688.38
                             1700.54  1710.43  1743.23  1768.85  1805.89
                             1845.36  1882.68  1891.55  1947.16  1963.73
                             2069.22  2113.58  2122.82  2130.12  2136.27
                             2158.96  2176.02  2300.29  2319.10  2329.18
                             2354.36  2442.07  2454.81  2495.69  4400.03
                             4512.38  4560.26  4575.72  4592.97  4608.89
                             4609.84  4614.25  4626.34  4630.68

 Zero-point correction=                           0.221269 (Hartree/Particle)
 Thermal correction to Energy=                    0.237274
 Thermal correction to Enthalpy=                  0.238218
 Thermal correction to Gibbs Free Energy=         0.176316
 Sum of electronic and zero-point Energies=           -916.689227
 Sum of electronic and thermal Energies=              -916.673222
 Sum of electronic and thermal Enthalpies=            -916.672278
 Sum of electronic and thermal Free Energies=         -916.734180

                     E (Thermal)             CV                S
                      KCal/Mol        Cal/Mol-Kelvin    Cal/Mol-Kelvin
 Total                  148.891             61.229            130.284
 Electronic               0.000              0.000              0.000
 Translational            0.889              2.981             42.635
 Rotational               0.889              2.981             33.822
 Vibrational            147.114             55.267             53.826
 Vibration     1          0.593              1.985              6.230
 Vibration     2          0.594              1.983              5.540
 Vibration     3          0.597              1.971              4.300
 Vibration     4          0.604              1.949              3.450
 Vibration     5          0.606              1.942              3.288
 Vibration     6          0.609              1.932              3.082
 Vibration     7          0.615              1.913              2.804
 Vibration     8          0.620              1.898              2.619
 Vibration     9          0.635              1.849              2.193
 Vibration    10          0.646              1.814              1.978
 Vibration    11          0.659              1.775              1.782
 Vibration    12          0.676              1.723              1.578
 Vibration    13          0.687              1.690              1.466
 Vibration    14          0.715              1.610              1.246
 Vibration    15          0.753              1.505              1.024
 Vibration    16          0.774              1.450              0.929
 Vibration    17          0.775              1.448              0.925
 Vibration    18          0.800              1.383              0.826
 Vibration    19          0.804              1.372              0.812
 Vibration    20          0.819              1.336              0.762
 Vibration    21          0.849              1.265              0.676
 Vibration    22          0.859              1.243              0.650
 Vibration    23          0.867              1.224              0.630

 Optimization completed.
    -- Stationary point found.
 Normal termination of Gaussian 16 at Sat Feb 10 23:02:38 2024.
