 Gaussian 16, Revision A.03,
 Gaussian 16:  ES64L-G16RevA.03 25-Dec-2016

 ----------------------------------------------------------------------
 #P UB3LYP/6-311++G(d,p) nosym opt freq SCRF=(PCM,Solvent=n,n-DiMethylF
 ormamide)
 ----------------------------------------------------------------------

 -------
 Reduced
 -------
 Symbolic Z-matrix:
 Charge = -2 Multiplicity = 1

 SCF Done:  E(UB3LYP) =  -1302.47318267     A.U. after   20 cycles
 SCF Done:  E(UB3LYP) =  -1302.47415770     A.U. after   15 cycles
 SCF Done:  E(UB3LYP) =  -1302.47429426     A.U. after   14 cycles
 SCF Done:  E(UB3LYP) =  -1302.47435305     A.U. after   13 cycles
 SCF Done:  E(UB3LYP) =  -1302.47435699     A.U. after   12 cycles
 SCF Done:  E(UB3LYP) =  -1302.47435808     A.U. after   12 cycles
 SCF Done:  E(UB3LYP) =  -1302.47435838     A.U. after   11 cycles
 SCF Done:  E(UB3LYP) =  -1302.47435848     A.U. after   11 cycles
 SCF Done:  E(UB3LYP) =  -1302.47435858     A.U. after   11 cycles
 SCF Done:  E(UB3LYP) =  -1302.47435880     A.U. after   12 cycles
 SCF Done:  E(UB3LYP) =  -1302.47435861     A.U. after   14 cycles
 SCF Done:  E(UB3LYP) =  -1302.47435931     A.U. after   13 cycles
 SCF Done:  E(UB3LYP) =  -1302.47435983     A.U. after   13 cycles
 SCF Done:  E(UB3LYP) =  -1302.47436027     A.U. after   12 cycles
 SCF Done:  E(UB3LYP) =  -1302.47436073     A.U. after   11 cycles
 SCF Done:  E(UB3LYP) =  -1302.47436076     A.U. after   13 cycles
 SCF Done:  E(UB3LYP) =  -1302.47436114     A.U. after   10 cycles
 Optimization completed.
    -- Stationary point found.
 Normal termination of Gaussian 16 at Sat Feb 10 20:22:33 2024.

 ----------------------------------------------------------------------
 #P Geom=AllCheck Guess=TCheck SCRF=Check GenChk UB3LYP/6-311++G(d,p) F
 req
 ----------------------------------------------------------------------

 Structure from the checkpoint file:  "135-an.chk"
 -------
 Reduced
 -------
 Charge = -2 Multiplicity = 1

                          Input orientation:
 ---------------------------------------------------------------------
 Center     Atomic      Atomic             Coordinates (Angstroms)
 Number     Number       Type             X           Y           Z
 ---------------------------------------------------------------------
      1          6           0        5.568442   -4.606449   -1.015480
      2          6           0        6.465351   -4.101913   -1.971919
      3          6           0        6.165288   -2.814769   -2.569902
      4          6           0        4.384806   -3.947664   -0.578048
      5          6           0        4.118098   -2.643003   -1.224759
      6          6           0        5.012535   -2.145192   -2.178499
      7          6           0        3.462117   -4.457891    0.425037
      8          6           0        2.311239   -3.629916    0.695600
      9          6           0        2.060876   -2.360712    0.048626
     10          6           0        2.958610   -1.827778   -0.924420
     11          6           0        1.358897   -4.077683    1.658461
     12          6           0        0.234451   -3.354139    1.978259
     13          6           0       -0.008922   -2.104261    1.337702
     14          6           0        0.884928   -1.635799    0.406118
     15          6           0        7.663529   -4.763613   -2.408947
     16          6           0        8.490171   -4.206271   -3.346505
     17          6           0        8.189582   -2.937422   -3.931353
     18          6           0        7.058758   -2.272049   -3.547003
     19          8           0        3.623368   -5.573380    1.059929
     20          8           0        2.759554   -0.685941   -1.511914
     21         17           0        6.015674   -6.210939   -0.360020
     22          1           0        4.770531   -1.185754   -2.621473
     23          1           0        1.556996   -5.028722    2.138559
     24          1           0       -0.467678   -3.730506    2.716009
     25          1           0       -0.895469   -1.529328    1.587508
     26          1           0        0.719523   -0.686635   -0.091203
     27          1           0        7.916630   -5.724716   -1.983960
     28          1           0        9.387551   -4.734748   -3.650461
     29          1           0        8.857031   -2.512612   -4.672869
     30          1           0        6.812235   -1.307145   -3.979971
 ---------------------------------------------------------------------

 SCF Done:  E(UB3LYP) =  -1302.47436114     A.U. after    2 cycles

 Alpha  occ. eigenvalues -- -101.52909 -19.02217 -19.01623 -10.21773 -10.18212
 Alpha  occ. eigenvalues --  -10.17725 -10.17389 -10.16815 -10.16762 -10.16615
 Alpha  occ. eigenvalues --  -10.16533 -10.16359 -10.16147 -10.15120 -10.15072
 Alpha  occ. eigenvalues --  -10.15000 -10.14977 -10.14835 -10.14699 -10.13916
 Alpha  occ. eigenvalues --  -10.13844  -9.44416  -7.20839  -7.19958  -7.19835
 Alpha  occ. eigenvalues --   -0.93748  -0.93321  -0.87230  -0.83369  -0.82629
 Alpha  occ. eigenvalues --   -0.80119  -0.75492  -0.74804  -0.72450  -0.71537
 Alpha  occ. eigenvalues --   -0.70295  -0.64065  -0.63229  -0.60107  -0.58582
 Alpha  occ. eigenvalues --   -0.56260  -0.53580  -0.52791  -0.50294  -0.48251
 Alpha  occ. eigenvalues --   -0.47642  -0.44737  -0.43332  -0.42962  -0.42797
 Alpha  occ. eigenvalues --   -0.41063  -0.40688  -0.39885  -0.39846  -0.38313
 Alpha  occ. eigenvalues --   -0.37979  -0.36971  -0.36471  -0.35155  -0.34695
 Alpha  occ. eigenvalues --   -0.34400  -0.32784  -0.32356  -0.31985  -0.31493
 Alpha  occ. eigenvalues --   -0.30597  -0.29181  -0.28883  -0.26725  -0.23121
 Alpha  occ. eigenvalues --   -0.22757  -0.22079  -0.20613  -0.20262  -0.19036
 Alpha  occ. eigenvalues --   -0.10671
 Alpha virt. eigenvalues --   -0.05594  -0.00940  -0.00509  -0.00082   0.00442
 Alpha virt. eigenvalues --    0.01204   0.01794   0.02207   0.02687   0.02954
 Alpha virt. eigenvalues --    0.03809   0.04218   0.04707   0.05176   0.05305

  Beta  occ. eigenvalues -- -101.52909 -19.02217 -19.01623 -10.21773 -10.18212
  Beta  occ. eigenvalues --  -10.17725 -10.17389 -10.16815 -10.16762 -10.16615
  Beta  occ. eigenvalues --  -10.16533 -10.16359 -10.16147 -10.15120 -10.15072
  Beta  occ. eigenvalues --  -10.15000 -10.14977 -10.14835 -10.14699 -10.13916
  Beta  occ. eigenvalues --  -10.13844  -9.44416  -7.20839  -7.19958  -7.19835
  Beta  occ. eigenvalues --   -0.93748  -0.93321  -0.87230  -0.83369  -0.82629
  Beta  occ. eigenvalues --   -0.80119  -0.75492  -0.74804  -0.72450  -0.71537
  Beta  occ. eigenvalues --   -0.70295  -0.64065  -0.63229  -0.60107  -0.58582
  Beta  occ. eigenvalues --   -0.56260  -0.53580  -0.52791  -0.50294  -0.48251
  Beta  occ. eigenvalues --   -0.47642  -0.44737  -0.43332  -0.42962  -0.42797
  Beta  occ. eigenvalues --   -0.41063  -0.40688  -0.39885  -0.39846  -0.38313
  Beta  occ. eigenvalues --   -0.37979  -0.36971  -0.36471  -0.35155  -0.34695
  Beta  occ. eigenvalues --   -0.34400  -0.32784  -0.32356  -0.31985  -0.31493
  Beta  occ. eigenvalues --   -0.30597  -0.29181  -0.28883  -0.26725  -0.23121
  Beta  occ. eigenvalues --   -0.22757  -0.22079  -0.20613  -0.20262  -0.19036
  Beta  occ. eigenvalues --   -0.10671
  Beta virt. eigenvalues --   -0.05594  -0.00940  -0.00509  -0.00082   0.00442
  Beta virt. eigenvalues --    0.01204   0.01794   0.02207   0.02687   0.02954
  Beta virt. eigenvalues --    0.03809   0.04218   0.04707   0.05176   0.05305

 Mulliken charges and spin densities:
               1          2
     1  C    0.413843  -0.000000
     2  C    0.350271  -0.000000
     3  C    1.069854   0.000000
     4  C    0.162770  -0.000000
     5  C    0.726856   0.000000
     6  C    0.042505   0.000000
     7  C   -1.884643   0.000000
     8  C   -0.165112   0.000000
     9  C    0.508078  -0.000000
    10  C   -0.607267  -0.000000
    11  C    0.047415  -0.000000
    12  C   -0.477981   0.000000
    13  C   -0.494457   0.000000
    14  C    0.043628  -0.000000
    15  C   -1.182924   0.000000
    16  C   -0.681998   0.000000
    17  C   -0.324541   0.000000
    18  C   -0.262462   0.000000
    19  O   -0.539601  -0.000000
    20  O   -0.640128   0.000000
    21  Cl   0.490726   0.000000
    22  H    0.120554  -0.000000
    23  H    0.150490  -0.000000
    24  H    0.159639   0.000000
    25  H    0.160965  -0.000000
    26  H    0.144597   0.000000
    27  H    0.157030   0.000000
    28  H    0.184970  -0.000000
    29  H    0.172881  -0.000000
    30  H    0.154042  -0.000000
 Sum of Mulliken charges =  -2.00000   0.00000

 Dipole moment (field-independent basis, Debye):
    X=            -33.6714    Y=             32.5611    Z=              2.8872  Tot=             46.9289
 Quadrupole moment (field-independent basis, Debye-Ang):
   XX=           -276.8548   YY=           -292.8304   ZZ=           -156.0200
   XY=            127.9239   XZ=             13.3837   YZ=              6.6163

  Exact polarizability: 680.731-119.050 454.924-275.119 -87.745 438.041
 Approx polarizability: 736.410-133.340 544.965-288.574-120.638 492.148

                      1                      2                      3
                      A                      A                      A
 Frequencies --     24.0826                31.7871                83.1272
 Red. masses --      7.9692                 9.5236                 4.4846
 Frc consts  --      0.0027                 0.0057                 0.0183
 IR Inten    --     17.3263                 0.5141                 2.8856

                      4                      5                      6
                      A                      A                      A
 Frequencies --    112.4200               131.9368               157.6764
 Red. masses --      4.2518                 6.5738                 6.6346
 Frc consts  --      0.0317                 0.0674                 0.0972
 IR Inten    --      0.1342                 4.0297                31.1472

                      7                      8                      9
                      A                      A                      A
 Frequencies --    179.9175               237.1819               270.1778
 Red. masses --      6.5914                11.1197                 5.1712
 Frc consts  --      0.1257                 0.3686                 0.2224
 IR Inten    --      3.3505                 1.8944                 3.0844

                     10                     11                     12
                      A                      A                      A
 Frequencies --    272.7813               291.9376               306.5498
 Red. masses --      6.9565                 5.8978                 7.9209
 Frc consts  --      0.3050                 0.2962                 0.4386
 IR Inten    --      1.6243                 0.3703                 1.8428

                     13                     14                     15
                      A                      A                      A
 Frequencies --    322.9920               374.6090               399.2582
 Red. masses --     12.1491                10.8533                 8.2772
 Frc consts  --      0.7468                 0.8974                 0.7774
 IR Inten    --      2.1268                 7.7047                 6.7851

                     16                     17                     18
                      A                      A                      A
 Frequencies --    404.6111               423.0296               468.6609
 Red. masses --      7.2022                 3.3434                 2.9998
 Frc consts  --      0.6947                 0.3525                 0.3882
 IR Inten    --      0.2048                 0.1649                38.5266

                     19                     20                     21
                      A                      A                      A
 Frequencies --    485.8782               490.3940               515.5909
 Red. masses --      7.8000                10.3691                 4.1394
 Frc consts  --      1.0849                 1.4692                 0.6483
 IR Inten    --     22.8230                10.3325                 0.1548

                     22                     23                     24
                      A                      A                      A
 Frequencies --    539.8553               577.5722               586.2453
 Red. masses --      3.7562                 7.7998                 7.4114
 Frc consts  --      0.6450                 1.5330                 1.5008
 IR Inten    --      3.1402                21.3014                 9.8886

                     25                     26                     27
                      A                      A                      A
 Frequencies --    593.6631               644.8460               668.0198
 Red. masses --      4.5016                 6.6716                 6.3578
 Frc consts  --      0.9348                 1.6345                 1.6716
 IR Inten    --      0.1160                 5.6031                91.6297

                     28                     29                     30
                      A                      A                      A
 Frequencies --    699.4781               706.4868               722.4053
 Red. masses --      2.3480                 4.9281                 7.3391
 Frc consts  --      0.6768                 1.4492                 2.2566
 IR Inten    --     62.6029                 8.4480                89.1694

                     31                     32                     33
                      A                      A                      A
 Frequencies --    739.4765               744.0636               754.7605
 Red. masses --      7.1677                 1.6857                 2.4806
 Frc consts  --      2.3093                 0.5499                 0.8326
 IR Inten    --     95.9492               100.3549                45.0466

                     34                     35                     36
                      A                      A                      A
 Frequencies --    776.8853               807.1533               819.1386
 Red. masses --      2.1006                 3.0800                 6.4563
 Frc consts  --      0.7470                 1.1823                 2.5524
 IR Inten    --     27.6616                 3.8177               122.1512

                     37                     38                     39
                      A                      A                      A
 Frequencies --    840.6773               853.9486               862.8998
 Red. masses --      1.4728                 1.9221                 6.9176
 Frc consts  --      0.6133                 0.8258                 3.0348
 IR Inten    --      1.5018                 0.2147                35.0129

                     40                     41                     42
                      A                      A                      A
 Frequencies --    924.8175               947.6593               969.5757
 Red. masses --      1.4647                 5.3387                 7.7846
 Frc consts  --      0.7381                 2.8248                 4.3117
 IR Inten    --     27.7322               116.5471                10.6830

                     43                     44                     45
                      A                      A                      A
 Frequencies --    971.4881               977.1863               982.7902
 Red. masses --      1.3575                 1.3549                 1.2715
 Frc consts  --      0.7549                 0.7622                 0.7236
 IR Inten    --      5.3087                 3.7539                 0.0986

                     46                     47                     48
                      A                      A                      A
 Frequencies --    983.3803              1014.1318              1023.9257
 Red. masses --      1.2711                 2.2221                 2.1507
 Frc consts  --      0.7242                 1.3465                 1.3285
 IR Inten    --      0.4382               335.5996                61.3703

                     49                     50                     51
                      A                      A                      A
 Frequencies --   1081.7754              1099.6500              1112.9396
 Red. masses --      4.9682                 3.3192                 2.0322
 Frc consts  --      3.4255                 2.3648                 1.4831
 IR Inten    --    623.7283              1364.4288               752.5586

                     52                     53                     54
                      A                      A                      A
 Frequencies --   1148.6153              1160.2159              1168.9008
 Red. masses --      1.9235                 1.3551                 1.7350
 Frc consts  --      1.4952                 1.0747                 1.3967
 IR Inten    --    756.4577                72.2962               734.6716

                     55                     56                     57
                      A                      A                      A
 Frequencies --   1177.8609              1202.5475              1221.5380
 Red. masses --      1.3413                 1.9918                 3.1282
 Frc consts  --      1.0964                 1.6971                 2.7502
 IR Inten    --    680.5256               134.3167               369.3675

                     58                     59                     60
                      A                      A                      A
 Frequencies --   1259.5833              1277.8009              1302.2838
 Red. masses --      2.1219                 2.8788                 3.3179
 Frc consts  --      1.9835                 2.7694                 3.3153
 IR Inten    --    328.1546               904.8387              1442.3722

                     61                     62                     63
                      A                      A                      A
 Frequencies --   1335.2799              1346.8716              1369.1265
 Red. masses --      3.2985                 6.6874                 3.0163
 Frc consts  --      3.4651                 7.1476                 3.3313
 IR Inten    --    279.3582               487.9608                28.5083

                     64                     65                     66
                      A                      A                      A
 Frequencies --   1391.4194              1419.0991              1452.7137
 Red. masses --      2.9700                 4.9770                 2.8337
 Frc consts  --      3.3878                 5.9053                 3.5235
 IR Inten    --    698.5207               475.0669               209.6534

                     67                     68                     69
                      A                      A                      A
 Frequencies --   1458.1321              1476.1932              1483.4472
 Red. masses --      3.4883                 3.9524                 2.6619
 Frc consts  --      4.3697                 5.0745                 3.4513
 IR Inten    --      2.1401                19.5625                 6.9227

                     70                     71                     72
                      A                      A                      A
 Frequencies --   1503.0077              1534.4064              1561.9840
 Red. masses --      4.0569                 6.7035                 7.1259
 Frc consts  --      5.3997                 9.2989                10.2433
 IR Inten    --      5.7181                47.5657               141.9762

                     73                     74                     75
                      A                      A                      A
 Frequencies --   1575.4614              1609.3913              1632.4534
 Red. masses --      6.7781                 5.2331                 5.2553
 Frc consts  --      9.9123                 7.9861                 8.2514
 IR Inten    --     15.1282                19.7734                38.8104

                     76                     77                     78
                      A                      A                      A
 Frequencies --   3140.1188              3150.0777              3155.3648
 Red. masses --      1.0848                 1.0862                 1.0892
 Frc consts  --      6.3020                 6.3502                 6.3892
 IR Inten    --     34.2993                 7.1253                33.2813

                     79                     80                     81
                      A                      A                      A
 Frequencies --   3160.8117              3172.5105              3173.5397
 Red. masses --      1.0892                 1.0888                 1.0919
 Frc consts  --      6.4113                 6.4566                 6.4791
 IR Inten    --     47.1173                21.8037                42.9064

                     82                     83                     84
                      A                      A                      A
 Frequencies --   3178.5573              3178.7665              3208.7682
 Red. masses --      1.0947                 1.0940                 1.0914
 Frc consts  --      6.5164                 6.5128                 6.6206
 IR Inten    --    149.7219                14.4835                27.7988

 - Thermochemistry -
 -------------------
 Temperature   298.150 Kelvin.  Pressure   1.00000 Atm.
 Atom     1 has atomic number  6 and mass  12.00000

 Molecular mass:   292.02911 amu.
 Principal axes and moments of inertia in atomic units:
                           1         2         3
     Eigenvalues --  3047.987258998.68591**********
           X            0.84994  -0.11114   0.51502
           Y           -0.16439   0.87276   0.45963
           Z           -0.50057  -0.47533   0.72353
 This molecule is an asymmetric top.
 Rotational symmetry number  1.
 Warning -- assumption of classical behavior for rotation
           may cause significant error
 Rotational temperatures (Kelvin)      0.02842     0.00963     0.00719
 Rotational constants (GHZ):           0.59211     0.20056     0.14982
 Zero-point vibrational energy     553861.1 (Joules/Mol)
                                  132.37598 (Kcal/Mol)
 Warning -- explicit consideration of  25 degrees of freedom as
           vibrations may cause significant error
 Vibrational temperatures:     34.65    45.73   119.60   161.75   189.83
          (Kelvin)            226.86   258.86   341.25   388.73   392.47
                              420.03   441.06   464.71   538.98   574.44
                              582.15   608.65   674.30   699.07   705.57
                              741.82   776.73   831.00   843.48   854.15
                              927.79   961.13  1006.39  1016.48  1039.38
                             1063.94  1070.54  1085.93  1117.76  1161.31
                             1178.56  1209.55  1228.64  1241.52  1330.61
                             1363.47  1395.00  1397.75  1405.95  1414.02
                             1414.86  1459.11  1473.20  1556.43  1582.15
                             1601.27  1652.60  1669.29  1681.79  1694.68
                             1730.20  1757.52  1812.26  1838.47  1873.70
                             1921.17  1937.85  1969.87  2001.94  2041.77
                             2090.13  2097.93  2123.91  2134.35  2162.49
                             2207.67  2247.35  2266.74  2315.56  2348.74
                             4517.93  4532.26  4539.87  4547.70  4564.54
                             4566.02  4573.24  4573.54  4616.70

 Zero-point correction=                           0.210955 (Hartree/Particle)
 Thermal correction to Energy=                    0.226424
 Thermal correction to Enthalpy=                  0.227368
 Thermal correction to Gibbs Free Energy=         0.167108
 Sum of electronic and zero-point Energies=          -1302.263407
 Sum of electronic and thermal Energies=             -1302.247938
 Sum of electronic and thermal Enthalpies=           -1302.246993
 Sum of electronic and thermal Free Energies=        -1302.307253

                     E (Thermal)             CV                S
                      KCal/Mol        Cal/Mol-Kelvin    Cal/Mol-Kelvin
 Total                  142.083             62.733            126.827
 Electronic               0.000              0.000              0.000
 Translational            0.889              2.981             42.912
 Rotational               0.889              2.981             34.157
 Vibrational            140.305             56.771             49.758
 Vibration     1          0.593              1.985              6.265
 Vibration     2          0.594              1.983              5.715
 Vibration     3          0.600              1.961              3.816
 Vibration     4          0.607              1.939              3.227
 Vibration     5          0.612              1.921              2.918
 Vibration     6          0.621              1.894              2.577
 Vibration     7          0.629              1.867              2.329
 Vibration     8          0.656              1.784              1.824
 Vibration     9          0.674              1.728              1.595
 Vibration    10          0.676              1.724              1.579
 Vibration    11          0.687              1.689              1.463
 Vibration    12          0.697              1.661              1.381
 Vibration    13          0.708              1.629              1.295
 Vibration    14          0.746              1.524              1.061
 Vibration    15          0.765              1.472              0.965
 Vibration    16          0.770              1.460              0.946
 Vibration    17          0.785              1.420              0.882
 Vibration    18          0.826              1.320              0.741
 Vibration    19          0.842              1.281              0.694
 Vibration    20          0.846              1.271              0.683
 Vibration    21          0.871              1.215              0.620
 Vibration    22          0.895              1.162              0.566
 Vibration    23          0.934              1.080              0.490
 Vibration    24          0.943              1.061              0.474
 Vibration    25          0.951              1.045              0.461

                           ! Non-Optimized Parameters !
 Normal termination of Gaussian 16 at Sat Feb 10 21:45:23 2024.
