 Q-Chem 5.4, Q-Chem, Inc., Pleasanton, CA (2021)
 Q-Chem 5.4.0 for Intel X86 EM64T Linux

User input:
--------------------------------------------------------------
$molecule
-2 1
C                  2.8974570000      0.2627530000     -0.0818090000
C                  1.3957590000      0.1340250000     -0.0438020000
C                  0.7859610000     -0.9687950000      0.5757820000
C                 -0.6242900000     -1.1765340000      0.6616190000
O                 -1.1771340000     -2.2108890000      1.2431810000
C                 -1.3957580000     -0.1340400000      0.0438090000
C                 -0.7859530000      0.9687940000     -0.5757820000
C                  0.6242840000      1.1765350000     -0.6616200000
O                  1.1771470000      2.2108790000     -1.2431730000
C                 -2.8974550000     -0.2627480000      0.0818050000
H                  3.3800720000     -0.5880400000      0.4188810000
H                  3.2374120000      1.1933330000      0.4001050000
H                  3.2737980000      0.3220300000     -1.1155600000
H                  1.4164750000     -1.7365670000      1.0322850000
H                 -1.4164850000      1.7365500000     -1.0322880000
H                 -3.2738230000     -0.3219680000      1.1155540000
H                 -3.3800470000      0.5880310000     -0.4189290000
H                 -3.2374230000     -1.1933490000     -0.4000600000
$end
$rem
MAX_SCF_CYCLES=200
BASIS  =  6-311++G(d,p)
GUI  =  2
JOB_TYPE  =  SP
METHOD  =  B3LYP
SOLVENT_METHOD = COSMO
$end
$solvent
dielectric 37.219
opticaldielectric 1.43
$end

--------------------------------------------------------------

             Standard Nuclear Orientation (Angstroms)
    I     Atom           X                Y                Z
 ----------------------------------------------------------------
    1      C       2.6671656109    -1.1649928958     0.0000362722
    2      C       1.2890004408    -0.5536230695    -0.0000761910
    3      C       0.1438786457    -1.3664243738    -0.0000555417
    4      C      -1.1988097739    -0.8800920098     0.0000164804
    5      O      -2.2562235601    -1.6518544078     0.0000241884
    6      C      -1.2890084804     0.5536129812     0.0000749472
    7      C      -0.1438729919     1.3664245765     0.0000550630
    8      C       1.1988042534     0.8801009280    -0.0000165390
    9      O       2.2562279391     1.6518418482    -0.0000223222
   10      C      -2.6671617418     1.1650023013    -0.0000371032
   11      H       2.6128989041    -2.2624953174    -0.0000118837
   12      H       3.2544266475    -0.8420202908     0.8744519704
   13      H       3.2546680110    -0.8419378350    -0.8741855524
   14      H       0.2645456268    -2.4530964567    -0.0000891608
   15      H      -0.2645619000     2.4530946246     0.0000784808
   16      H      -3.2546629383     0.8420041520     0.8742119542
   17      H      -2.6128709869     2.2625026421    -0.0000345364
   18      H      -3.2544541734     0.8419983302    -0.8744205288
 ----------------------------------------------------------------

   11    -460.1833883388      5.62e-06  Convergence criterion met
 Total energy in the final basis set =     -460.1833883388
    5    -460.4921325229      7.49e-06  Convergence criterion met
 Total energy in the final basis set =     -460.4921325229

                    Orbital Energies (a.u.)
 --------------------------------------------------------------

 Alpha MOs
 -- Occupied --
-19.0170 -19.0170 -10.1630 -10.1630 -10.1377 -10.1377 -10.1264 -10.1264
-10.1177 -10.1177  -0.9247  -0.9214  -0.7820  -0.7387  -0.6799  -0.6549
 -0.6030  -0.5486  -0.4997  -0.4418  -0.4175  -0.3967  -0.3937  -0.3839
 -0.3742  -0.3583  -0.3548  -0.3379  -0.3295  -0.3160  -0.3064  -0.3052
 -0.2237  -0.2006  -0.1981  -0.1946  -0.1190

          Ground-State Mulliken Net Atomic Charges

     Atom                 Charge (a.u.)
  ----------------------------------------
      1 C                    -0.462944
      2 C                     1.020115
      3 C                    -0.622919
      4 C                    -0.674230
      5 O                    -0.796196
      6 C                     1.021585
      7 C                    -0.623580
      8 C                    -0.673226
      9 O                    -0.796218
     10 C                    -0.463144
     11 H                     0.136558
     12 H                     0.144820
     13 H                     0.144906
     14 H                     0.109112
     15 H                     0.109040
     16 H                     0.144828
     17 H                     0.136537
     18 H                     0.144956
  ----------------------------------------
  Sum of atomic charges =    -2.000000

                    Cartesian Multipole Moments
 -----------------------------------------------------------------
    Charge (ESU x 10^10)
                -9.6064
    Dipole Moment (Debye)
         X       0.0002      Y       0.0006      Z       0.0026
       Tot       0.0027
    Quadrupole Moments (Debye-Ang)
        XX    -112.6528     XY     -31.1932     YY     -93.1171
        XZ       0.0013     YZ       0.0002     ZZ     -69.2504

 Total job time:  20.46s(wall), 146.43s(cpu)
        *  Thank you very much for using Q-Chem.  Have a nice day.  *
