 Gaussian 16, Revision A.03,
 Gaussian 16:  ES64L-G16RevA.03 25-Dec-2016

 --------------------------------------
 #P UB3LYP/6-311++G(d,p) nosym opt freq
 --------------------------------------

 -------
 Reduced
 -------
 Symbolic Z-matrix:
 Charge = -2 Multiplicity = 1

 SCF Done:  E(UB3LYP) =  -460.183128557     A.U. after   36 cycles
 SCF Done:  E(UB3LYP) =  -460.183392103     A.U. after   32 cycles
 SCF Done:  E(UB3LYP) =  -460.183408575     A.U. after   30 cycles
 SCF Done:  E(UB3LYP) =  -460.183426390     A.U. after   28 cycles
 SCF Done:  E(UB3LYP) =  -460.183427565     A.U. after   27 cycles
 SCF Done:  E(UB3LYP) =  -460.183428316     A.U. after   25 cycles
 SCF Done:  E(UB3LYP) =  -460.183428956     A.U. after   28 cycles
 SCF Done:  E(UB3LYP) =  -460.183430574     A.U. after   29 cycles
 SCF Done:  E(UB3LYP) =  -460.183431631     A.U. after   28 cycles
 SCF Done:  E(UB3LYP) =  -460.183432166     A.U. after   29 cycles
 SCF Done:  E(UB3LYP) =  -460.183432346     A.U. after   26 cycles
 SCF Done:  E(UB3LYP) =  -460.183432485     A.U. after   25 cycles
 SCF Done:  E(UB3LYP) =  -460.183432637     A.U. after   25 cycles
 SCF Done:  E(UB3LYP) =  -460.183432815     A.U. after   25 cycles
 SCF Done:  E(UB3LYP) =  -460.183433036     A.U. after   28 cycles
 SCF Done:  E(UB3LYP) =  -460.183433301     A.U. after   55 cycles
 SCF Done:  E(UB3LYP) =  -460.183433523     A.U. after   24 cycles
 SCF Done:  E(UB3LYP) =  -460.183433540     A.U. after   23 cycles
 Optimization completed.
    -- Stationary point found.
 Normal termination of Gaussian 16 at Sat Jan  6 06:43:45 2024.

 ----------------------------------------------------------------------
 #P Geom=AllCheck Guess=TCheck SCRF=Check GenChk UB3LYP/6-311++G(d,p) F
 req
 ----------------------------------------------------------------------

 Structure from the checkpoint file:  "038-an.chk"
 -------
 Reduced
 -------
 Charge = -2 Multiplicity = 1

                          Input orientation:
 ---------------------------------------------------------------------
 Center     Atomic      Atomic             Coordinates (Angstroms)
 Number     Number       Type             X           Y           Z
 ---------------------------------------------------------------------
      1          6           0        2.897457    0.262753   -0.081809
      2          6           0        1.395759    0.134025   -0.043802
      3          6           0        0.785961   -0.968795    0.575782
      4          6           0       -0.624290   -1.176534    0.661619
      5          8           0       -1.177134   -2.210889    1.243181
      6          6           0       -1.395758   -0.134040    0.043809
      7          6           0       -0.785953    0.968794   -0.575782
      8          6           0        0.624284    1.176535   -0.661620
      9          8           0        1.177147    2.210879   -1.243173
     10          6           0       -2.897455   -0.262748    0.081805
     11          1           0        3.380072   -0.588040    0.418881
     12          1           0        3.237412    1.193333    0.400105
     13          1           0        3.273798    0.322030   -1.115560
     14          1           0        1.416475   -1.736567    1.032285
     15          1           0       -1.416485    1.736550   -1.032288
     16          1           0       -3.273823   -0.321968    1.115554
     17          1           0       -3.380047    0.588031   -0.418929
     18          1           0       -3.237423   -1.193349   -0.400060
 ---------------------------------------------------------------------

 SCF Done:  E(UB3LYP) =  -460.183433540     A.U. after    1 cycles

 Alpha  occ. eigenvalues --  -18.72905 -18.72905  -9.89233  -9.89233  -9.88458
 Alpha  occ. eigenvalues --   -9.88457  -9.85495  -9.85494  -9.84460  -9.84459
 Alpha  occ. eigenvalues --   -0.63600  -0.63184  -0.50881  -0.47744  -0.42386
 Alpha  occ. eigenvalues --   -0.38167  -0.33862  -0.27662  -0.23119  -0.17526
 Alpha  occ. eigenvalues --   -0.14411  -0.13836  -0.13376  -0.12740  -0.12114
 Alpha  occ. eigenvalues --   -0.09866  -0.07859  -0.06412  -0.05285  -0.03973
 Alpha  occ. eigenvalues --   -0.03144  -0.01567   0.06518   0.07229   0.09354
 Alpha  occ. eigenvalues --    0.09469   0.16723
 Alpha virt. eigenvalues --    0.18650   0.18650   0.21119   0.21639   0.22229
 Alpha virt. eigenvalues --    0.23138   0.23265   0.24342   0.27316   0.28605
 Alpha virt. eigenvalues --    0.29102   0.29803   0.30627   0.31117   0.31772

  Beta  occ. eigenvalues --  -18.72905 -18.72905  -9.89233  -9.89233  -9.88458
  Beta  occ. eigenvalues --   -9.88457  -9.85495  -9.85494  -9.84460  -9.84459
  Beta  occ. eigenvalues --   -0.63600  -0.63184  -0.50881  -0.47744  -0.42386
  Beta  occ. eigenvalues --   -0.38167  -0.33862  -0.27662  -0.23119  -0.17526
  Beta  occ. eigenvalues --   -0.14411  -0.13836  -0.13376  -0.12740  -0.12114
  Beta  occ. eigenvalues --   -0.09866  -0.07859  -0.06412  -0.05285  -0.03973
  Beta  occ. eigenvalues --   -0.03144  -0.01567   0.06518   0.07229   0.09354
  Beta  occ. eigenvalues --    0.09469   0.16723
  Beta virt. eigenvalues --    0.18650   0.18650   0.21119   0.21639   0.22229
  Beta virt. eigenvalues --    0.23138   0.23265   0.24342   0.27316   0.28605
  Beta virt. eigenvalues --    0.29102   0.29803   0.30627   0.31117   0.31772

 Mulliken charges and spin densities:
               1          2
     1  C   -0.526272  -0.000000
     2  C    1.632193  -0.000000
     3  C   -0.429676   0.000000
     4  C   -1.309394  -0.000000
     5  O   -0.592033  -0.000000
     6  C    1.632259  -0.000000
     7  C   -0.429644   0.000000
     8  C   -1.309332  -0.000000
     9  O   -0.592029  -0.000000
    10  C   -0.526286   0.000000
    11  H    0.085566  -0.000000
    12  H    0.077127  -0.000000
    13  H    0.077056   0.000000
    14  H   -0.014632  -0.000000
    15  H   -0.014638  -0.000000
    16  H    0.077043   0.000000
    17  H    0.085570  -0.000000
    18  H    0.077125  -0.000000
 Sum of Mulliken charges =  -2.00000   0.00000

 Dipole moment (field-independent basis, Debye):
    X=              0.0002    Y=              0.0001    Z=             -0.0000  Tot=              0.0002
 Quadrupole moment (field-independent basis, Debye-Ang):
   XX=            -98.1425   YY=           -110.1309   ZZ=            -84.2924
   XY=            -19.5769   XZ=             10.6428   YZ=             21.2794

  Exact polarizability: 382.471  59.580  41.057 -14.333-250.309-253.068
 Approx polarizability: 400.354  37.986 257.004 -17.833 -17.448 234.694

                      1                      2                      3
                      A                      A                      A
 Frequencies --     35.1119                73.0732               109.0571
 Red. masses --      1.0153                 1.0322                 3.9225
 Frc consts  --      0.0007                 0.0032                 0.0275
 IR Inten    --     11.9371                 0.0000                12.9855

                      4                      5                      6
                      A                      A                      A
 Frequencies --    164.0997               243.9836               278.3230
 Red. masses --      5.5676                 3.4405                 2.6037
 Frc consts  --      0.0883                 0.1207                 0.1188
 IR Inten    --      0.0054                 0.0000                 6.4084

                      7                      8                      9
                      A                      A                      A
 Frequencies --    281.9913               300.0969               355.4434
 Red. masses --      3.5677                 6.7388                 9.7697
 Frc consts  --      0.1672                 0.3576                 0.7272
 IR Inten    --      0.0000                 0.0000                 0.3543

                     10                     11                     12
                      A                      A                      A
 Frequencies --    432.0838               434.2253               506.9072
 Red. masses --      3.0663                 5.8323                 7.9692
 Frc consts  --      0.3373                 0.6479                 1.2065
 IR Inten    --      4.2290                 0.0000                 0.0000

                     13                     14                     15
                      A                      A                      A
 Frequencies --    613.3318               666.6429               692.2236
 Red. masses --      3.5983                 2.9081                 6.8011
 Frc consts  --      0.7975                 0.7615                 1.9201
 IR Inten    --      0.0000               285.4221                 0.0000

                     16                     17                     18
                      A                      A                      A
 Frequencies --    700.2827               731.5433               807.0188
 Red. masses --      5.2800                 6.3999                 1.2221
 Frc consts  --      1.5256                 2.0179                 0.4690
 IR Inten    --     63.6046                 0.0000                 0.0000

                     19                     20                     21
                      A                      A                      A
 Frequencies --    821.7862               838.1346               980.4362
 Red. masses --      1.6848                 2.7908                 1.6473
 Frc consts  --      0.6704                 1.1551                 0.9329
 IR Inten    --      9.3238                45.7686               166.8644

                     22                     23                     24
                      A                      A                      A
 Frequencies --   1006.4077              1021.4621              1034.8762
 Red. masses --      1.4273                 1.3827                 1.4746
 Frc consts  --      0.8518                 0.8500                 0.9304
 IR Inten    --      0.0000                 0.0000                53.1200

                     25                     26                     27
                      A                      A                      A
 Frequencies --   1111.6262              1142.0900              1185.5530
 Red. masses --      5.6388                 2.3920                 4.9305
 Frc consts  --      4.1054                 1.8383                 4.0830
 IR Inten    --      0.0000                66.5654               245.0960

                     28                     29                     30
                      A                      A                      A
 Frequencies --   1226.2983              1276.6907              1336.0732
 Red. masses --      1.3112                 3.2939                 6.4387
 Frc consts  --      1.1618                 3.1633                 6.7718
 IR Inten    --      0.0000               175.5366                 0.0000

                     31                     32                     33
                      A                      A                      A
 Frequencies --   1356.7533              1373.5629              1402.5710
 Red. masses --      1.4515                 1.3634                 4.3468
 Frc consts  --      1.5742                 1.5156                 5.0381
 IR Inten    --     72.6380                 0.0000               611.5621

                     34                     35                     36
                      A                      A                      A
 Frequencies --   1456.8524              1461.6673              1463.3651
 Red. masses --      1.0484                 2.7279                 1.0483
 Frc consts  --      1.3111                 3.4338                 1.3226
 IR Inten    --      0.0000                 0.0027              1139.6440

                     37                     38                     39
                      A                      A                      A
 Frequencies --   1467.2376              1482.2927              1487.5833
 Red. masses --      3.3185                 1.4753                 1.1258
 Frc consts  --      4.2092                 1.9099                 1.4678
 IR Inten    --    461.1253                 0.0001                41.5123

                     40                     41                     42
                      A                      A                      A
 Frequencies --   1599.4659              2931.7955              2938.1837
 Red. masses --      5.8806                 1.0353                 1.0353
 Frc consts  --      8.8638                 5.2433                 5.2660
 IR Inten    --      0.0000              1116.2841                 0.0017

                     43                     44                     45
                      A                      A                      A
 Frequencies --   3003.3900              3005.3532              3005.3691
 Red. masses --      1.0998                 1.0980                 1.0972
 Frc consts  --      5.8448                 5.8432                 5.8391
 IR Inten    --      0.0158                 3.6094               126.9151

                     46                     47                     48
                      A                      A                      A
 Frequencies --   3008.8413              3052.8353              3057.4979
 Red. masses --      1.0994                 1.0855                 1.0862
 Frc consts  --      5.8639                 5.9607                 5.9825
 IR Inten    --   4166.1408               273.9970                 0.0000

 - Thermochemistry -
 -------------------
 Temperature   298.150 Kelvin.  Pressure   1.00000 Atm.
 Atom     1 has atomic number  6 and mass  12.00000

 Molecular mass:   136.05243 amu.
 Principal axes and moments of inertia in atomic units:
                           1         2         3
     Eigenvalues --   773.993511679.789602431.77356
           X            0.82582  -0.56356  -0.02071
           Y            0.49718   0.71024   0.49837
           Z           -0.26615  -0.42186   0.86672
 This molecule is an asymmetric top.
 Rotational symmetry number  1.
 Warning -- assumption of classical behavior for rotation
           may cause significant error
 Rotational temperatures (Kelvin)      0.11191     0.05156     0.03562
 Rotational constants (GHZ):           2.33173     1.07439     0.74215
 Zero-point vibrational energy     352668.0 (Joules/Mol)
                                   84.28968 (Kcal/Mol)
 Warning -- explicit consideration of  13 degrees of freedom as
           vibrations may cause significant error
 Vibrational temperatures:     50.52   105.14   156.91   236.10   351.04
          (Kelvin)            400.44   405.72   431.77   511.40   621.67
                              624.75   729.33   882.45   959.15   995.96
                             1007.55  1052.53  1161.12  1182.37  1205.89
                             1410.63  1448.00  1469.66  1488.96  1599.38
                             1643.21  1705.75  1764.37  1836.87  1922.31
                             1952.07  1976.25  2017.99  2096.09  2103.01
                             2105.46  2111.03  2132.69  2140.30  2301.27
                             4218.20  4227.39  4321.21  4324.03  4324.06
                             4329.05  4392.35  4399.06

 Zero-point correction=                           0.134324 (Hartree/Particle)
 Thermal correction to Energy=                    0.144213
 Thermal correction to Enthalpy=                  0.145157
 Thermal correction to Gibbs Free Energy=         0.098464
 Sum of electronic and zero-point Energies=           -460.049109
 Sum of electronic and thermal Energies=              -460.039221
 Sum of electronic and thermal Enthalpies=            -460.038277
 Sum of electronic and thermal Free Energies=         -460.084969

                     E (Thermal)             CV                S
                      KCal/Mol        Cal/Mol-Kelvin    Cal/Mol-Kelvin
 Total                   90.495             35.958             98.274
 Electronic               0.000              0.000              0.000
 Translational            0.889              2.981             40.636
 Rotational               0.889              2.981             29.537
 Vibrational             88.717             29.996             28.101
 Vibration     1          0.594              1.982              5.517
 Vibration     2          0.599              1.967              4.069
 Vibration     3          0.606              1.942              3.286
 Vibration     4          0.623              1.887              2.502
 Vibration     5          0.659              1.773              1.774
 Vibration     6          0.679              1.714              1.544
 Vibration     7          0.681              1.707              1.522
 Vibration     8          0.693              1.674              1.416
 Vibration     9          0.731              1.564              1.142
 Vibration    10          0.793              1.400              0.852
 Vibration    11          0.795              1.396              0.845
 Vibration    12          0.862              1.235              0.641
 Vibration    13          0.973              1.004              0.427

 Optimization completed.
    -- Stationary point found.
 Normal termination of Gaussian 16 at Sat Jan  6 06:56:13 2024.
