 Q-Chem 5.4, Q-Chem, Inc., Pleasanton, CA (2021)
 Q-Chem 5.4.0 for Intel X86 EM64T Linux

User input:
--------------------------------------------------------------
$molecule
0 1
C                  4.9040900000     -1.2250550000     -0.0226950000
C                  3.5337900000     -1.0406420000     -0.6000080000
O                  3.2534540000     -0.6938800000     -1.7112030000
O                  2.5746560000     -1.3467540000      0.3505380000
C                  1.2523370000     -1.0581010000      0.0758220000
C                  0.4226530000     -2.1454920000     -0.1779180000
C                 -0.9295120000     -1.9515980000     -0.3929180000
C                 -1.4657690000     -0.6686250000     -0.3538240000
O                 -2.8098370000     -0.5563930000     -0.6511240000
C                 -3.6958050000     -0.2686000000      0.3730960000
C                 -5.0525300000      0.0255550000     -0.1906900000
O                 -3.3741290000     -0.2779200000      1.5264050000
C                 -0.6524990000      0.4461160000     -0.0993340000
C                 -1.2217680000      1.8309910000     -0.0759580000
O                 -2.4024060000      2.0749570000     -0.2691220000
C                 -0.2966400000      2.9507160000      0.2014450000
C                  1.0031770000      2.7600100000      0.4426410000
C                  1.6237950000      1.4181430000      0.4146910000
O                  2.8221950000      1.3176620000      0.6256920000
C                  0.7383820000      0.2467720000      0.1209590000
H                  5.6408110000     -1.2157570000     -0.8232470000
H                  5.0939720000     -0.3954520000      0.6628680000
H                  4.9643710000     -2.1534230000      0.5471700000
H                  0.8580420000     -3.1366170000     -0.2005220000
H                 -1.5906060000     -2.7847480000     -0.5959380000
H                 -5.3156370000     -0.6942480000     -0.9671510000
H                 -5.0181960000      1.0175700000     -0.6478940000
H                 -5.7893990000      0.0155960000      0.6097170000
H                 -0.7548880000      3.9334170000      0.2081750000
H                  1.6838970000      3.5758000000      0.6590690000
$end

$rem
BASIS  =  6-311++G(d,p)
GUI  =  2
JOB_TYPE  =  SP
METHOD  =  B3LYP
SCF_CONVERGENCE  = 8
SOLVENT_METHOD = sm12
$end

$smx
solvent dimethylformamide
charges CM5
$end

--------------------------------------------------------------

             Standard Nuclear Orientation (Angstroms)
    I     Atom           X                Y                Z
 ----------------------------------------------------------------
    1      C       4.9040900000    -1.2250550000    -0.0226950000
    2      C       3.5337900000    -1.0406420000    -0.6000080000
    3      O       3.2534540000    -0.6938800000    -1.7112030000
    4      O       2.5746560000    -1.3467540000     0.3505380000
    5      C       1.2523370000    -1.0581010000     0.0758220000
    6      C       0.4226530000    -2.1454920000    -0.1779180000
    7      C      -0.9295120000    -1.9515980000    -0.3929180000
    8      C      -1.4657690000    -0.6686250000    -0.3538240000
    9      O      -2.8098370000    -0.5563930000    -0.6511240000
   10      C      -3.6958050000    -0.2686000000     0.3730960000
   11      C      -5.0525300000     0.0255550000    -0.1906900000
   12      O      -3.3741290000    -0.2779200000     1.5264050000
   13      C      -0.6524990000     0.4461160000    -0.0993340000
   14      C      -1.2217680000     1.8309910000    -0.0759580000
   15      O      -2.4024060000     2.0749570000    -0.2691220000
   16      C      -0.2966400000     2.9507160000     0.2014450000
   17      C       1.0031770000     2.7600100000     0.4426410000
   18      C       1.6237950000     1.4181430000     0.4146910000
   19      O       2.8221950000     1.3176620000     0.6256920000
   20      C       0.7383820000     0.2467720000     0.1209590000
   21      H       5.6408110000    -1.2157570000    -0.8232470000
   22      H       5.0939720000    -0.3954520000     0.6628680000
   23      H       4.9643710000    -2.1534230000     0.5471700000
   24      H       0.8580420000    -3.1366170000    -0.2005220000
   25      H      -1.5906060000    -2.7847480000    -0.5959380000
   26      H      -5.3156370000    -0.6942480000    -0.9671510000
   27      H      -5.0181960000     1.0175700000    -0.6478940000
   28      H      -5.7893990000     0.0155960000     0.6097170000
   29      H      -0.7548880000     3.9334170000     0.2081750000
   30      H       1.6838970000     3.5758000000     0.6590690000
 ----------------------------------------------------------------

   15    -991.1340745642      5.49e-09  Convergence criterion met
 Total energy in the final basis set =     -991.1605025429

                    Orbital Energies (a.u.)
 --------------------------------------------------------------

 Alpha MOs
 -- Occupied --
-19.1856 -19.1855 -19.1376 -19.1376 -19.1271 -19.1271 -10.3191 -10.3191
-10.2901 -10.2901 -10.2708 -10.2708 -10.2260 -10.2255 -10.2125 -10.2116
-10.2092 -10.2086 -10.1771 -10.1771  -1.1291  -1.1287  -1.0717  -1.0699
 -1.0473  -1.0467  -0.9002  -0.8478  -0.8045  -0.7915  -0.7664  -0.7432
 -0.7093  -0.6745  -0.6642  -0.6388  -0.6150  -0.5571  -0.5489  -0.5422
 -0.5146  -0.5044  -0.5020  -0.4982  -0.4981  -0.4903  -0.4824  -0.4606
 -0.4587  -0.4563  -0.4545  -0.4330  -0.4316  -0.4245  -0.4207  -0.4140
 -0.4074  -0.4054  -0.3945  -0.3874  -0.3868  -0.3746  -0.3407  -0.3376
 -0.3100  -0.3003  -0.2994  -0.2919  -0.2889  -0.2761  -0.2702

          Ground-State Mulliken Net Atomic Charges

     Atom                 Charge (a.u.)
  ----------------------------------------
      1 C                    -0.175677
      2 C                    -0.336671
      3 O                    -0.284289
      4 O                     0.024188
      5 C                    -0.757704
      6 C                     0.833304
      7 C                     0.832963
      8 C                    -0.759428
      9 O                     0.023760
     10 C                    -0.335321
     11 C                    -0.176856
     12 O                    -0.284380
     13 C                    -0.225477
     14 C                    -0.731378
     15 O                    -0.277169
     16 C                     0.640604
     17 C                     0.638982
     18 C                    -0.729457
     19 O                    -0.276566
     20 C                    -0.229468
     21 H                     0.194319
     22 H                     0.210631
     23 H                     0.226717
     24 H                     0.327007
     25 H                     0.327175
     26 H                     0.226635
     27 H                     0.210646
     28 H                     0.194319
     29 H                     0.334324
     30 H                     0.334270
  ----------------------------------------
  Sum of atomic charges =     0.000000

                    Cartesian Multipole Moments
 -----------------------------------------------------------------
    Charge (ESU x 10^10)
                 0.0000
    Dipole Moment (Debye)
         X      -0.1788      Y      -1.4695      Z      -0.1819
       Tot       1.4914
    Quadrupole Moments (Debye-Ang)
        XX    -104.4028     XY      -0.3384     YY     -96.2615
        XZ      11.0741     YZ       2.4092     ZZ    -126.0710

 Total job time:  739.15s(wall), 5708.50s(cpu)
        *  Thank you very much for using Q-Chem.  Have a nice day.  *
