 Gaussian 16, Revision A.03,
 Gaussian 16:  ES64L-G16RevA.03 25-Dec-2016

 ----------------------------------------------------------------
 #P UB3LYP/6-311++G(d,p) SCRF=(PCM,Solvent=n,n-DiMethylFormamide)
 ----------------------------------------------------------------

 -------
 Reduced
 -------
 Symbolic Z-matrix:
 Charge = -4 Multiplicity = 1

                         Standard orientation:
 ---------------------------------------------------------------------
 Center     Atomic      Atomic             Coordinates (Angstroms)
 Number     Number       Type             X           Y           Z
 ---------------------------------------------------------------------
      1          8           0       -6.018479   -0.344109    1.239690
      2         16           0       -5.306304   -0.848248    0.014915
      3          8           0       -5.041514   -2.319158    0.071212
      4          8           0       -6.029854   -0.442854   -1.239096
      5          6           0       -3.689951   -0.004565   -0.022937
      6          6           0       -3.678885    1.420049   -0.053053
      7          6           0       -2.477562    2.092505   -0.039689
      8          6           0       -1.221800    1.422130   -0.005204
      9          6           0        0.000035    2.197994    0.042088
     10          8           0        0.000051    3.488070    0.094066
     11          6           0        1.221849    1.422120   -0.005833
     12          6           0        2.477579    2.092519   -0.041311
     13          6           0        3.678911    1.420080   -0.054945
     14          6           0        3.689944   -0.004507   -0.024129
     15          6           0        2.492007   -0.692846   -0.017057
     16          6           0        1.233442   -0.024834   -0.023046
     17          6           0       -0.000018   -0.808925   -0.029272
     18          8           0       -0.000041   -2.085120   -0.025871
     19          6           0       -1.233458   -0.024844   -0.022669
     20          6           0       -2.491997   -0.692873   -0.016611
     21         16           0        5.306278   -0.848249    0.015314
     22          8           0        6.015422   -0.347979    1.243407
     23          8           0        5.041483   -2.319341    0.066407
     24          8           0        6.032901   -0.438946   -1.235636
     25          1           0       -4.618428    1.964428   -0.088990
     26          1           0       -2.450286    3.179243   -0.063899
     27          1           0        2.450304    3.179251   -0.066110
     28          1           0        4.618387    1.964549   -0.091963
     29          1           0        2.484727   -1.776005   -0.002073
     30          1           0       -2.484641   -1.776035   -0.002069
 ---------------------------------------------------------------------

 SCF Done:  E(UB3LYP) =  -1936.12559383     A.U. after   18 cycles

 The electronic state is 1-A.
 Alpha  occ. eigenvalues --  -89.02925 -89.02925 -19.07612 -19.07612 -19.07378
 Alpha  occ. eigenvalues --  -19.07378 -19.07372 -19.07371 -19.02368 -19.01676
 Alpha  occ. eigenvalues --  -10.18186 -10.17311 -10.17274 -10.17273 -10.15620
 Alpha  occ. eigenvalues --  -10.15620 -10.15458 -10.15457 -10.14916 -10.14916
 Alpha  occ. eigenvalues --  -10.14161 -10.14160 -10.13835 -10.13834  -8.08798
 Alpha  occ. eigenvalues --   -8.08798  -6.05087  -6.05087  -6.05071  -6.05071
 Alpha  occ. eigenvalues --   -6.04941  -6.04941  -1.08646  -1.08645  -0.95280
 Alpha  occ. eigenvalues --   -0.95280  -0.94777  -0.94776  -0.94509  -0.93252
 Alpha  occ. eigenvalues --   -0.83252  -0.82762  -0.75983  -0.72978  -0.72823
 Alpha  occ. eigenvalues --   -0.71701  -0.64904  -0.62670  -0.61860  -0.57343
 Alpha  occ. eigenvalues --   -0.57260  -0.55063  -0.52739  -0.49974  -0.49865
 Alpha  occ. eigenvalues --   -0.46756  -0.45686  -0.44639  -0.43646  -0.43610
 Alpha  occ. eigenvalues --   -0.43600  -0.42656  -0.42602  -0.40577  -0.40395
 Alpha  occ. eigenvalues --   -0.39493  -0.38426  -0.38156  -0.37151  -0.35795
 Alpha  occ. eigenvalues --   -0.34895  -0.34409  -0.32583  -0.32246  -0.32084
 Alpha  occ. eigenvalues --   -0.31733  -0.31727  -0.31576  -0.31354  -0.30549
 Alpha  occ. eigenvalues --   -0.28182  -0.27807  -0.27784  -0.27576  -0.27315
 Alpha  occ. eigenvalues --   -0.27287  -0.23926  -0.23924  -0.23726  -0.22868
 Alpha  occ. eigenvalues --   -0.22274  -0.21574  -0.20277  -0.19490  -0.10639
 Alpha virt. eigenvalues --   -0.03038  -0.00815   0.00481   0.01304   0.01680
 Alpha virt. eigenvalues --    0.01987   0.02909   0.03237   0.04767   0.04893
 Alpha virt. eigenvalues --    0.04932   0.05473   0.05487   0.05596   0.06349

  Beta  occ. eigenvalues --  -89.02925 -89.02925 -19.07612 -19.07612 -19.07378
  Beta  occ. eigenvalues --  -19.07378 -19.07372 -19.07371 -19.02368 -19.01676
  Beta  occ. eigenvalues --  -10.18186 -10.17311 -10.17274 -10.17273 -10.15620
  Beta  occ. eigenvalues --  -10.15620 -10.15458 -10.15457 -10.14916 -10.14916
  Beta  occ. eigenvalues --  -10.14161 -10.14160 -10.13835 -10.13834  -8.08798
  Beta  occ. eigenvalues --   -8.08798  -6.05087  -6.05087  -6.05071  -6.05071
  Beta  occ. eigenvalues --   -6.04941  -6.04941  -1.08646  -1.08645  -0.95280
  Beta  occ. eigenvalues --   -0.95280  -0.94777  -0.94776  -0.94509  -0.93252
  Beta  occ. eigenvalues --   -0.83252  -0.82762  -0.75983  -0.72978  -0.72823
  Beta  occ. eigenvalues --   -0.71701  -0.64904  -0.62670  -0.61860  -0.57343
  Beta  occ. eigenvalues --   -0.57260  -0.55063  -0.52739  -0.49974  -0.49865
  Beta  occ. eigenvalues --   -0.46756  -0.45686  -0.44639  -0.43646  -0.43610
  Beta  occ. eigenvalues --   -0.43600  -0.42656  -0.42602  -0.40577  -0.40395
  Beta  occ. eigenvalues --   -0.39493  -0.38426  -0.38156  -0.37151  -0.35795
  Beta  occ. eigenvalues --   -0.34895  -0.34409  -0.32583  -0.32246  -0.32084
  Beta  occ. eigenvalues --   -0.31733  -0.31727  -0.31576  -0.31354  -0.30549
  Beta  occ. eigenvalues --   -0.28182  -0.27807  -0.27784  -0.27576  -0.27315
  Beta  occ. eigenvalues --   -0.27287  -0.23926  -0.23924  -0.23726  -0.22868
  Beta  occ. eigenvalues --   -0.22274  -0.21574  -0.20277  -0.19490  -0.10639
  Beta virt. eigenvalues --   -0.03038  -0.00815   0.00481   0.01304   0.01680
  Beta virt. eigenvalues --    0.01987   0.02909   0.03237   0.04767   0.04893
  Beta virt. eigenvalues --    0.04932   0.05473   0.05487   0.05596   0.06349

 Mulliken charges and spin densities:
               1          2
     1  O   -0.400972  -0.000000
     2  S    0.818433  -0.000000
     3  O   -0.435551  -0.000000
     4  O   -0.400905  -0.000000
     5  C   -0.986307  -0.000000
     6  C   -0.591195   0.000000
     7  C   -0.252993  -0.000000
     8  C    0.535954  -0.000000
     9  C   -0.501419   0.000000
    10  O   -0.650706   0.000000
    11  C    0.537025   0.000000
    12  C   -0.252976   0.000000
    13  C   -0.591521   0.000000
    14  C   -0.985416  -0.000000
    15  C    0.095881   0.000000
    16  C    0.422556   0.000000
    17  C   -0.916643  -0.000000
    18  O   -0.607795   0.000000
    19  C    0.421750  -0.000000
    20  C    0.095983   0.000000
    21  S    0.818000  -0.000000
    22  O   -0.400585  -0.000000
    23  O   -0.435640   0.000000
    24  O   -0.401568  -0.000000
    25  H    0.195523   0.000000
    26  H    0.146879  -0.000000
    27  H    0.146907   0.000000
    28  H    0.195528   0.000000
    29  H    0.190893  -0.000000
    30  H    0.190879   0.000000
 Sum of Mulliken charges =  -4.00000  -0.00000

 Dipole moment (field-independent basis, Debye):
    X=             -0.0001    Y=              5.9168    Z=             -0.5163  Tot=              5.9393
 Quadrupole moment (field-independent basis, Debye-Ang):
   XX=           -565.1385   YY=           -246.5017   ZZ=           -185.0896
   XY=              0.0034   XZ=             -0.0276   YZ=             -1.5325

 Normal termination of Gaussian 16 at Tue Jan 16 20:50:11 2024.
