 Q-Chem 5.4, Q-Chem, Inc., Pleasanton, CA (2021)
 Q-Chem 5.4.0 for Intel X86 EM64T Linux

User input:
--------------------------------------------------------------
$molecule
-4 1
O                 -6.0500460000      0.3344170000     -1.2397150000
S                 -5.4038040000      0.5893170000      0.0940100000
O                 -5.3015790000      2.0472590000      0.4115250000
O                 -6.0850520000     -0.1893260000      1.1848940000
C                 -3.7049180000     -0.0628450000     -0.0255820000
C                 -3.5378930000     -1.4407570000     -0.3480980000
C                 -2.2700360000     -1.9588390000     -0.4883900000
C                 -1.0951750000     -1.1731180000     -0.3155480000
C                  0.2045830000     -1.7801520000     -0.5135880000
O                  0.3463020000     -3.0092400000     -0.8827180000
C                  1.3337060000     -0.9169530000     -0.2359670000
C                  2.6551630000     -1.4395170000     -0.3266920000
C                  3.7754460000     -0.6695070000     -0.1084980000
C                  3.6303930000      0.7108710000      0.2140470000
C                  2.3642660000      1.2496920000      0.3385820000
C                  1.1865080000      0.4730510000      0.1386370000
C                 -0.1254930000      1.0970190000      0.2985640000
O                 -0.2654090000      2.3265400000      0.6106320000
C                 -1.2654870000      0.2144040000      0.0585530000
C                 -2.5896290000      0.7270620000      0.1770930000
S                  5.1446670000      1.7025600000      0.4365800000
O                  5.9107500000      1.6012920000     -0.8534700000
O                  4.7204590000      3.1038320000      0.7420660000
O                  5.9052750000      1.0730230000      1.5703980000
H                 -4.4122660000     -2.0723680000     -0.4781790000
H                 -2.1239100000     -3.0082840000     -0.7326080000
H                  2.7470640000     -2.4948250000     -0.5721010000
H                  4.7687450000     -1.1043860000     -0.1768320000
H                  2.2383600000      2.2954890000      0.5914960000
H                 -2.7009900000      1.7742870000      0.4309100000
$end
$rem
MAX_SCF_CYCLES=200
BASIS  =  6-311++G(d,p)
GUI  =  2
JOB_TYPE  =  SP
METHOD  =  B3LYP
SOLVENT_METHOD = PCM
$end
$pcm
theory = CPCM
$end
$solvent
dielectric 37.219
opticaldielectric 1.43
$end

--------------------------------------------------------------

             Standard Nuclear Orientation (Angstroms)
    I     Atom           X                Y                Z
 ----------------------------------------------------------------
    1      O      -6.0500460000     0.3344170000    -1.2397150000
    2      S      -5.4038040000     0.5893170000     0.0940100000
    3      O      -5.3015790000     2.0472590000     0.4115250000
    4      O      -6.0850520000    -0.1893260000     1.1848940000
    5      C      -3.7049180000    -0.0628450000    -0.0255820000
    6      C      -3.5378930000    -1.4407570000    -0.3480980000
    7      C      -2.2700360000    -1.9588390000    -0.4883900000
    8      C      -1.0951750000    -1.1731180000    -0.3155480000
    9      C       0.2045830000    -1.7801520000    -0.5135880000
   10      O       0.3463020000    -3.0092400000    -0.8827180000
   11      C       1.3337060000    -0.9169530000    -0.2359670000
   12      C       2.6551630000    -1.4395170000    -0.3266920000
   13      C       3.7754460000    -0.6695070000    -0.1084980000
   14      C       3.6303930000     0.7108710000     0.2140470000
   15      C       2.3642660000     1.2496920000     0.3385820000
   16      C       1.1865080000     0.4730510000     0.1386370000
   17      C      -0.1254930000     1.0970190000     0.2985640000
   18      O      -0.2654090000     2.3265400000     0.6106320000
   19      C      -1.2654870000     0.2144040000     0.0585530000
   20      C      -2.5896290000     0.7270620000     0.1770930000
   21      S       5.1446670000     1.7025600000     0.4365800000
   22      O       5.9107500000     1.6012920000    -0.8534700000
   23      O       4.7204590000     3.1038320000     0.7420660000
   24      O       5.9052750000     1.0730230000     1.5703980000
   25      H      -4.4122660000    -2.0723680000    -0.4781790000
   26      H      -2.1239100000    -3.0082840000    -0.7326080000
   27      H       2.7470640000    -2.4948250000    -0.5721010000
   28      H       4.7687450000    -1.1043860000    -0.1768320000
   29      H       2.2383600000     2.2954890000     0.5914960000
   30      H      -2.7009900000     1.7742870000     0.4309100000
 ----------------------------------------------------------------

    9   -1936.1394842946      5.47e-06  Convergence criterion met
 Total energy in the final basis set =    -1936.1394842946

                    Orbital Energies (a.u.)
 --------------------------------------------------------------

 Alpha MOs
 -- Occupied --
-89.0346 -89.0346 -19.0815 -19.0815 -19.0792 -19.0792 -19.0791 -19.0790
-19.0293 -19.0221 -10.1866 -10.1775 -10.1764 -10.1764 -10.1598 -10.1598
-10.1569 -10.1569 -10.1517 -10.1517 -10.1455 -10.1455 -10.1421 -10.1421
 -8.0933  -8.0933  -6.0562  -6.0562  -6.0561  -6.0561  -6.0548  -6.0547
 -1.0920  -1.0919  -0.9584  -0.9584  -0.9534  -0.9534  -0.9509  -0.9382
 -0.8361  -0.8310  -0.7637  -0.7332  -0.7315  -0.7205  -0.6533  -0.6305
 -0.6228  -0.5770  -0.5768  -0.5544  -0.5309  -0.5041  -0.5030  -0.4718
 -0.4612  -0.4509  -0.4418  -0.4418  -0.4411  -0.4313  -0.4305  -0.4087
 -0.4069  -0.3987  -0.3881  -0.3856  -0.3763  -0.3631  -0.3525  -0.3480
 -0.3311  -0.3265  -0.3260  -0.3231  -0.3230  -0.3206  -0.3185  -0.3097
 -0.2872  -0.2836  -0.2835  -0.2808  -0.2783  -0.2782  -0.2451  -0.2451
 -0.2405  -0.2324  -0.2277  -0.2194  -0.2089  -0.2008  -0.1111

          Ground-State Mulliken Net Atomic Charges

     Atom                 Charge (a.u.)
  ----------------------------------------
      1 O                    -0.407964
      2 S                     0.850759
      3 O                    -0.447388
      4 O                    -0.407202
      5 C                    -1.012390
      6 C                    -0.617443
      7 C                    -0.246036
      8 C                     0.527679
      9 C                    -0.408490
     10 O                    -0.675173
     11 C                     0.531544
     12 C                    -0.247105
     13 C                    -0.610937
     14 C                    -1.017944
     15 C                     0.085651
     16 C                     0.422690
     17 C                    -0.902061
     18 O                    -0.628489
     19 C                     0.416126
     20 C                     0.090250
     21 S                     0.850606
     22 O                    -0.408352
     23 O                    -0.447025
     24 O                    -0.408375
     25 H                     0.215569
     26 H                     0.151097
     27 H                     0.151558
     28 H                     0.215921
     29 H                     0.191805
     30 H                     0.191092
  ----------------------------------------
  Sum of atomic charges =    -4.000028

                    Cartesian Multipole Moments
 -----------------------------------------------------------------
    Charge (ESU x 10^10)
               -19.2130
    Dipole Moment (Debye)
         X       1.3721      Y     -12.2843      Z      -2.3360
       Tot      12.5795
    Quadrupole Moments (Debye-Ang)
        XX    -560.5609     XY     -32.4189     YY    -251.2977
        XZ     -10.1969     YZ     -18.5019     ZZ    -190.0572

 Total job time:  78.22s(wall), 576.30s(cpu)
        *  Thank you very much for using Q-Chem.  Have a nice day.  *
