 Gaussian 16, Revision A.03,
 Gaussian 16:  ES64L-G16RevA.03 25-Dec-2016

 --------------------------------------
 #P UB3LYP/6-311++G(d,p) nosym opt freq
 --------------------------------------

 -------
 Reduced
 -------
 Symbolic Z-matrix:
 Charge = -4 Multiplicity = 1

 SCF Done:  E(UB3LYP) =  -1935.32625945     A.U. after   72 cycles
 Optimization completed.
    -- Stationary point found.
 Normal termination of Gaussian 16 at Mon Jan  8 16:57:36 2024.

 ----------------------------------------------------------------------
 #P Geom=AllCheck Guess=TCheck SCRF=Check GenChk UB3LYP/6-311++G(d,p) F
 req
 ----------------------------------------------------------------------

 Structure from the checkpoint file:  "226-an.chk"
 -------
 Reduced
 -------
 Charge = -4 Multiplicity = 1

                          Input orientation:
 ---------------------------------------------------------------------
 Center     Atomic      Atomic             Coordinates (Angstroms)
 Number     Number       Type             X           Y           Z
 ---------------------------------------------------------------------
      1          8           0       -6.050046    0.334417   -1.239715
      2         16           0       -5.403804    0.589317    0.094010
      3          8           0       -5.301579    2.047259    0.411525
      4          8           0       -6.085052   -0.189326    1.184894
      5          6           0       -3.704918   -0.062845   -0.025582
      6          6           0       -3.537893   -1.440757   -0.348098
      7          6           0       -2.270036   -1.958839   -0.488390
      8          6           0       -1.095175   -1.173118   -0.315548
      9          6           0        0.204583   -1.780152   -0.513588
     10          8           0        0.346302   -3.009240   -0.882718
     11          6           0        1.333706   -0.916953   -0.235967
     12          6           0        2.655163   -1.439517   -0.326692
     13          6           0        3.775446   -0.669507   -0.108498
     14          6           0        3.630393    0.710871    0.214047
     15          6           0        2.364266    1.249692    0.338582
     16          6           0        1.186508    0.473051    0.138637
     17          6           0       -0.125493    1.097019    0.298564
     18          8           0       -0.265409    2.326540    0.610632
     19          6           0       -1.265487    0.214404    0.058553
     20          6           0       -2.589629    0.727062    0.177093
     21         16           0        5.144667    1.702560    0.436580
     22          8           0        5.910750    1.601292   -0.853470
     23          8           0        4.720459    3.103832    0.742066
     24          8           0        5.905275    1.073023    1.570398
     25          1           0       -4.412266   -2.072368   -0.478179
     26          1           0       -2.123910   -3.008284   -0.732608
     27          1           0        2.747064   -2.494825   -0.572101
     28          1           0        4.768745   -1.104386   -0.176832
     29          1           0        2.238360    2.295489    0.591496
     30          1           0       -2.700990    1.774287    0.430910
 ---------------------------------------------------------------------

 SCF Done:  E(UB3LYP) =  -1935.32625945     A.U. after    4 cycles

 Alpha  occ. eigenvalues --  -88.64529 -88.64526 -18.69090 -18.69087 -18.68993
 Alpha  occ. eigenvalues --  -18.68989 -18.68965 -18.68962 -18.64400 -18.64175
 Alpha  occ. eigenvalues --   -9.80458  -9.79691  -9.79220  -9.79218  -9.78021
 Alpha  occ. eigenvalues --   -9.78019  -9.77434  -9.77433  -9.77292  -9.77290
 Alpha  occ. eigenvalues --   -9.76300  -9.76299  -9.76137  -9.76136  -7.70385
 Alpha  occ. eigenvalues --   -7.70382  -5.66672  -5.66669  -5.66659  -5.66656
 Alpha  occ. eigenvalues --   -5.66534  -5.66531  -0.70108  -0.70105  -0.56701
 Alpha  occ. eigenvalues --   -0.56698  -0.56270  -0.56267  -0.56257  -0.55354
 Alpha  occ. eigenvalues --   -0.45290  -0.44797  -0.38059  -0.35012  -0.34921
 Alpha  occ. eigenvalues --   -0.33761  -0.26911  -0.24705  -0.23791  -0.19345
 Alpha  occ. eigenvalues --   -0.19210  -0.17060  -0.14813  -0.11872  -0.11733
 Alpha  occ. eigenvalues --   -0.08574  -0.07577  -0.06543  -0.05602  -0.05146
 Alpha  occ. eigenvalues --   -0.05138  -0.04472  -0.04228  -0.02681  -0.02601
 Alpha  occ. eigenvalues --   -0.01444  -0.00469   0.00025   0.00989   0.02278
 Alpha  occ. eigenvalues --    0.03216   0.03598   0.05655   0.05729   0.06312
 Alpha  occ. eigenvalues --    0.06814   0.06852   0.06866   0.07112   0.07461
 Alpha  occ. eigenvalues --    0.10283   0.10674   0.10793   0.10863   0.11017
 Alpha  occ. eigenvalues --    0.11135   0.14365   0.14673   0.14676   0.15302
 Alpha  occ. eigenvalues --    0.16064   0.16538   0.18033   0.18653   0.27777
 Alpha virt. eigenvalues --    0.29683   0.29787   0.32301   0.33574   0.34765
 Alpha virt. eigenvalues --    0.35078   0.35703   0.36828   0.37123   0.37928
 Alpha virt. eigenvalues --    0.38486   0.38608   0.39475   0.39509   0.40203

  Beta  occ. eigenvalues --  -88.64529 -88.64526 -18.69090 -18.69087 -18.68993
  Beta  occ. eigenvalues --  -18.68989 -18.68965 -18.68962 -18.64400 -18.64175
  Beta  occ. eigenvalues --   -9.80458  -9.79691  -9.79220  -9.79218  -9.78021
  Beta  occ. eigenvalues --   -9.78019  -9.77434  -9.77433  -9.77292  -9.77290
  Beta  occ. eigenvalues --   -9.76300  -9.76299  -9.76137  -9.76136  -7.70385
  Beta  occ. eigenvalues --   -7.70382  -5.66672  -5.66669  -5.66659  -5.66656
  Beta  occ. eigenvalues --   -5.66534  -5.66531  -0.70108  -0.70105  -0.56701
  Beta  occ. eigenvalues --   -0.56698  -0.56270  -0.56267  -0.56257  -0.55354
  Beta  occ. eigenvalues --   -0.45290  -0.44797  -0.38059  -0.35012  -0.34921
  Beta  occ. eigenvalues --   -0.33761  -0.26911  -0.24705  -0.23791  -0.19345
  Beta  occ. eigenvalues --   -0.19210  -0.17060  -0.14813  -0.11872  -0.11733
  Beta  occ. eigenvalues --   -0.08574  -0.07577  -0.06543  -0.05602  -0.05146
  Beta  occ. eigenvalues --   -0.05138  -0.04472  -0.04228  -0.02681  -0.02601
  Beta  occ. eigenvalues --   -0.01444  -0.00469   0.00025   0.00989   0.02278
  Beta  occ. eigenvalues --    0.03216   0.03598   0.05655   0.05729   0.06312
  Beta  occ. eigenvalues --    0.06814   0.06852   0.06866   0.07112   0.07461
  Beta  occ. eigenvalues --    0.10283   0.10674   0.10793   0.10863   0.11017
  Beta  occ. eigenvalues --    0.11135   0.14365   0.14673   0.14676   0.15302
  Beta  occ. eigenvalues --    0.16064   0.16538   0.18033   0.18653   0.27777
  Beta virt. eigenvalues --    0.29683   0.29787   0.32301   0.33574   0.34765
  Beta virt. eigenvalues --    0.35078   0.35703   0.36828   0.37123   0.37928
  Beta virt. eigenvalues --    0.38486   0.38608   0.39475   0.39509   0.40203

 Mulliken charges and spin densities:
               1          2
     1  O   -0.371851   0.000000
     2  S    0.873492   0.000000
     3  O   -0.401269  -0.000000
     4  O   -0.375055  -0.000000
     5  C   -0.645112   0.000000
     6  C   -0.380691   0.000000
     7  C    0.137594   0.000000
     8  C    0.856218  -0.000000
     9  C   -0.816182   0.000000
    10  O   -0.521363   0.000000
    11  C    0.858186  -0.000000
    12  C    0.138548  -0.000000
    13  C   -0.378281   0.000000
    14  C   -0.641589   0.000000
    15  C    0.039187   0.000000
    16  C    0.269799  -0.000000
    17  C   -1.031359   0.000000
    18  O   -0.462923   0.000000
    19  C    0.269235  -0.000000
    20  C    0.039879   0.000000
    21  S    0.874499   0.000000
    22  O   -0.371274  -0.000000
    23  O   -0.401371  -0.000000
    24  O   -0.375783  -0.000000
    25  H   -0.362246  -0.000000
    26  H   -0.425261  -0.000000
    27  H   -0.428029  -0.000000
    28  H   -0.366706  -0.000000
    29  H    0.199835   0.000000
    30  H    0.199873  -0.000000
 Sum of Mulliken charges =  -4.00000  -0.00000

 Dipole moment (field-independent basis, Debye):
    X=              0.5749    Y=             -5.0339    Z=             -1.9567  Tot=              5.4313
 Quadrupole moment (field-independent basis, Debye-Ang):
   XX=           -597.4338   YY=           -276.5620   ZZ=           -195.5014
   XY=            -33.6085   XZ=            -11.2814   YZ=            -17.9672

  Exact polarizability:********1816.5651548.129 577.782 216.981 240.734
 Approx polarizability:3093.378 120.6061849.737  71.004 187.072 330.547

                      1                      2                      3
                      A                      A                      A
 Frequencies --     15.1828                16.5069                35.2425
 Red. masses --     15.6384                15.0151                11.5576
 Frc consts  --      0.0021                 0.0024                 0.0085
 IR Inten    --     69.2275                 6.3592                12.8283

                      4                      5                      6
                      A                      A                      A
 Frequencies --     47.2778                73.8623                93.1308
 Red. masses --      6.4371                14.6450                 9.3955
 Frc consts  --      0.0085                 0.0471                 0.0480
 IR Inten    --   1946.8936                 5.8385                60.0498

                      7                      8                      9
                      A                      A                      A
 Frequencies --    103.5505               145.9053               158.1852
 Red. masses --     10.4664                 5.6004                 5.9286
 Frc consts  --      0.0661                 0.0702                 0.0874
 IR Inten    --   5480.1050                22.8061                17.3067

                     10                     11                     12
                      A                      A                      A
 Frequencies --    178.6938               180.0590               222.2280
 Red. masses --     15.8048                12.4203                 9.7652
 Frc consts  --      0.2973                 0.2373                 0.2841
 IR Inten    --      0.3718                20.7946                 2.7061

                     13                     14                     15
                      A                      A                      A
 Frequencies --    234.2395               239.1382               264.5423
 Red. masses --      8.2670                12.4201                13.1201
 Frc consts  --      0.2672                 0.4185                 0.5410
 IR Inten    --    236.3489                 0.0057               559.7608

                     16                     17                     18
                      A                      A                      A
 Frequencies --    322.1296               342.8114               364.5375
 Red. masses --      8.2940                 7.1520                10.0120
 Frc consts  --      0.5071                 0.4952                 0.7839
 IR Inten    --      2.4587              1066.3638              7264.9094

                     19                     20                     21
                      A                      A                      A
 Frequencies --    370.9572               372.9591               403.2535
 Red. masses --      7.5565                 7.8402                 9.1136
 Frc consts  --      0.6127                 0.6425                 0.8732
 IR Inten    --     24.9563               171.2348              1542.5578

                     22                     23                     24
                      A                      A                      A
 Frequencies --    425.5400               429.7134               458.1275
 Red. masses --      3.7594                 7.9458                 4.0606
 Frc consts  --      0.4011                 0.8645                 0.5021
 IR Inten    --     59.9826                12.9358              1517.4290

                     25                     26                     27
                      A                      A                      A
 Frequencies --    467.7357               490.9115               493.4552
 Red. masses --      6.3876                 7.3600                 9.1539
 Frc consts  --      0.8234                 1.0450                 1.3133
 IR Inten    --    472.5931                72.1034               289.0741

                     28                     29                     30
                      A                      A                      A
 Frequencies --    515.6975               517.1661               520.1975
 Red. masses --     14.6652                13.2848                12.8227
 Frc consts  --      2.2979                 2.0935                 2.0444
 IR Inten    --      6.8829                25.7849              1467.0893

                     31                     32                     33
                      A                      A                      A
 Frequencies --    565.2833               603.4312               603.8487
 Red. masses --      7.7097                11.3122                13.7409
 Frc consts  --      1.4515                 2.4269                 2.9520
 IR Inten    --     29.9603               444.7379               344.2090

                     34                     35                     36
                      A                      A                      A
 Frequencies --    634.8734               648.0658               668.8606
 Red. masses --      3.9796                 7.9114                 8.1414
 Frc consts  --      0.9451                 1.9577                 2.1460
 IR Inten    --     18.2933               244.8638               210.9429

                     37                     38                     39
                      A                      A                      A
 Frequencies --    694.1451               703.0480               714.0281
 Red. masses --      6.7008                 5.2785                 8.0635
 Frc consts  --      1.9023                 1.5372                 2.4222
 IR Inten    --     24.5232              2810.3326               734.5793

                     40                     41                     42
                      A                      A                      A
 Frequencies --    730.2767               803.9472               824.1300
 Red. masses --      5.7708                 3.2608                 1.4341
 Frc consts  --      1.8133                 1.2417                 0.5739
 IR Inten    --      2.6681               109.2929             24454.6216

                     43                     44                     45
                      A                      A                      A
 Frequencies --    834.9684               847.2338               919.8154
 Red. masses --      7.0969                 2.0267                 6.3214
 Frc consts  --      2.9151                 0.8571                 3.1511
 IR Inten    --    156.0051                57.8232                 5.0005

                     46                     47                     48
                      A                      A                      A
 Frequencies --    926.5763               943.8312               951.9405
 Red. masses --      8.4640                13.7115                 1.3473
 Frc consts  --      4.2814                 7.1965                 0.7193
 IR Inten    --   5185.9566              1234.4600              1324.1635

                     49                     50                     51
                      A                      A                      A
 Frequencies --    955.3996               978.9092               980.0892
 Red. masses --      1.3508                 1.5638                 1.3687
 Frc consts  --      0.7264                 0.8829                 0.7746
 IR Inten    --     32.6932                75.7813               205.7705

                     52                     53                     54
                      A                      A                      A
 Frequencies --    986.5591              1041.5318              1045.2273
 Red. masses --      3.5495                 2.3501                 2.4119
 Frc consts  --      2.0355                 1.5020                 1.5525
 IR Inten    --   2238.0483              1326.0284             13094.6390

                     55                     56                     57
                      A                      A                      A
 Frequencies --   1069.3438              1086.5814              1086.8499
 Red. masses --      1.9810                16.6578                20.0669
 Frc consts  --      1.3346                11.5876                13.9659
 IR Inten    --  49292.2491               394.7874               670.9900

                     58                     59                     60
                      A                      A                      A
 Frequencies --   1097.2369              1120.0363              1120.0924
 Red. masses --      3.4624                 4.3609                 5.3245
 Frc consts  --      2.4560                 3.2232                 3.9358
 IR Inten    --     68.4766               140.2993               191.1840

                     61                     62                     63
                      A                      A                      A
 Frequencies --   1152.9363              1160.1643              1177.9675
 Red. masses --      3.5343                 8.4478                 1.6817
 Frc consts  --      2.7680                 6.6993                 1.3749
 IR Inten    --   1168.6773              1784.6760               297.2019

                     64                     65                     66
                      A                      A                      A
 Frequencies --   1187.0223              1233.2754              1296.8753
 Red. masses --      1.8860                 1.8380                 2.0431
 Frc consts  --      1.5657                 1.6471                 2.0245
 IR Inten    --  14365.9097                 2.9785             13102.2081

                     67                     68                     69
                      A                      A                      A
 Frequencies --   1302.3914              1333.3325              1345.1656
 Red. masses --      9.0804                 7.2849                 3.5698
 Frc consts  --      9.0749                 7.6304                 3.8058
 IR Inten    --   2614.9175              4615.6602               173.6118

                     70                     71                     72
                      A                      A                      A
 Frequencies --   1398.3929              1428.6189              1460.1934
 Red. masses --      7.5801                 3.3383                 3.0168
 Frc consts  --      8.7335                 4.0142                 3.7898
 IR Inten    --   2695.2211              1093.6890               138.7167

                     73                     74                     75
                      A                      A                      A
 Frequencies --   1461.9509              1477.6611              1501.7796
 Red. masses --      4.8012                 6.0912                 5.8870
 Frc consts  --      6.0460                 7.8361                 7.8228
 IR Inten    --    896.0361              2501.0638             11141.6817

                     76                     77                     78
                      A                      A                      A
 Frequencies --   1520.8818              1566.5120              1577.7584
 Red. masses --      7.6359                 6.4319                 6.3095
 Frc consts  --     10.4064                 9.2994                 9.2539
 IR Inten    --   2628.7497             17406.0278               395.2896

                     79                     80                     81
                      A                      A                      A
 Frequencies --   3119.6039              3122.6369              3134.3545
 Red. masses --      1.0876                 1.0854                 1.0936
 Frc consts  --      6.2360                 6.2355                 6.3302
 IR Inten    --  52618.6733                79.6889             37271.7767

                     82                     83                     84
                      A                      A                      A
 Frequencies --   3150.4725              3193.7532              3194.1172
 Red. masses --      1.0932                 1.0882                 1.0883
 Frc consts  --      6.3928                 6.5398                 6.5421
 IR Inten    --    339.0416                 0.3754                 5.6507

 - Thermochemistry -
 -------------------
 Temperature   298.150 Kelvin.  Pressure   1.00000 Atm.
 Atom     1 has atomic number  8 and mass  15.99491

 Molecular mass:   365.95041 amu.
 Principal axes and moments of inertia in atomic units:
                           1         2         3
     Eigenvalues --  3231.31122********************
           X            0.99396  -0.10964  -0.00507
           Y            0.10489   0.96250  -0.25020
           Z            0.03231   0.24815   0.96818
 This molecule is an asymmetric top.
 Rotational symmetry number  1.
 Warning -- assumption of classical behavior for rotation
           may cause significant error
 Rotational temperatures (Kelvin)      0.02680     0.00396     0.00355
 Rotational constants (GHZ):           0.55852     0.08255     0.07400
 Zero-point vibrational energy     467661.6 (Joules/Mol)
                                  111.77381 (Kcal/Mol)
 Warning -- explicit consideration of  33 degrees of freedom as
           vibrations may cause significant error
 Vibrational temperatures:     21.84    23.75    50.71    68.02   106.27
          (Kelvin)            133.99   148.99   209.93   227.59   257.10
                              259.06   319.74   337.02   344.07   380.62
                              463.47   493.23   524.49   533.72   536.60
                              580.19   612.26   618.26   659.14   672.97
                              706.31   709.97   741.97   744.09   748.45
                              813.32   868.20   868.80   913.44   932.42
                              962.34   998.72  1011.53  1027.33  1050.71
                             1156.70  1185.74  1201.33  1218.98  1323.41
                             1333.14  1357.96  1369.63  1374.61  1408.43
                             1410.13  1419.44  1498.53  1503.85  1538.55
                             1563.35  1563.73  1578.68  1611.48  1611.56
                             1658.82  1669.22  1694.83  1707.86  1774.41
                             1865.91  1873.85  1918.37  1935.39  2011.98
                             2055.46  2100.89  2103.42  2126.02  2160.73
                             2188.21  2253.86  2270.04  4488.41  4492.78
                             4509.64  4532.83  4595.10  4595.62

 Zero-point correction=                           0.178123 (Hartree/Particle)
 Thermal correction to Energy=                    0.197831
 Thermal correction to Enthalpy=                  0.198775
 Thermal correction to Gibbs Free Energy=         0.126699
 Sum of electronic and zero-point Energies=          -1935.148137
 Sum of electronic and thermal Energies=             -1935.128428
 Sum of electronic and thermal Enthalpies=           -1935.127484
 Sum of electronic and thermal Free Energies=        -1935.199560

                     E (Thermal)             CV                S
                      KCal/Mol        Cal/Mol-Kelvin    Cal/Mol-Kelvin
 Total                  124.141             75.112            151.697
 Electronic               0.000              0.000              0.000
 Translational            0.889              2.981             43.585
 Rotational               0.889              2.981             35.798
 Vibrational            122.363             69.150             72.314
 Vibration     1          0.593              1.986              7.181
 Vibration     2          0.593              1.986              7.015
 Vibration     3          0.594              1.982              5.510
 Vibration     4          0.595              1.979              4.928
 Vibration     5          0.599              1.966              4.048
 Vibration     6          0.602              1.954              3.593
 Vibration     7          0.605              1.946              3.386
 Vibration     8          0.617              1.907              2.725
 Vibration     9          0.621              1.893              2.571
 Vibration    10          0.629              1.869              2.342
 Vibration    11          0.629              1.867              2.328
 Vibration    12          0.648              1.807              1.941
 Vibration    13          0.654              1.788              1.846
 Vibration    14          0.657              1.781              1.809
 Vibration    15          0.671              1.738              1.632
 Vibration    16          0.707              1.631              1.299
 Vibration    17          0.722              1.590              1.199
 Vibration    18          0.738              1.545              1.103
 Vibration    19          0.743              1.532              1.076
 Vibration    20          0.744              1.528              1.068
 Vibration    21          0.769              1.463              0.951
 Vibration    22          0.787              1.415              0.873
 Vibration    23          0.791              1.406              0.860
 Vibration    24          0.816              1.343              0.772
 Vibration    25          0.825              1.322              0.744
 Vibration    26          0.847              1.270              0.681
 Vibration    27          0.849              1.265              0.675
 Vibration    28          0.871              1.215              0.620
 Vibration    29          0.872              1.212              0.617
 Vibration    30          0.875              1.205              0.610
 Vibration    31          0.921              1.106              0.513
 Vibration    32          0.962              1.025              0.444
 Vibration    33          0.962              1.024              0.443

                           ! Non-Optimized Parameters !
 Normal termination of Gaussian 16 at Mon Jan  8 18:10:32 2024.
