 Gaussian 16, Revision A.03,
 Gaussian 16:  ES64L-G16RevA.03 25-Dec-2016

 ----------------------------------------------
 #P UB3LYP/6-311++G(d,p) nosym opt freq SCF=YQC
 ----------------------------------------------

 -------
 Reduced
 -------
 Symbolic Z-matrix:
 Charge = -2 Multiplicity = 1

 SCF Done:  E(UB3LYP) =  -989.826956929     a.u. after   10 cycles
 SCF Done:  E(UB3LYP) =  -989.824317716     A.U. after   33 cycles
 SCF Done:  E(UB3LYP) =  -989.836901025     a.u. after   65 cycles
 SCF Done:  E(UB3LYP) =  -989.890276516     a.u. after   27 cycles
 SCF Done:  E(UB3LYP) =  -989.890601621     A.U. after   33 cycles
 SCF Done:  E(UB3LYP) =  -989.890601621     a.u. after    1 cycles
 SCF Done:  E(UB3LYP) =  -989.939367108     a.u. after   36 cycles
 SCF Done:  E(UB3LYP) =  -989.940516268     A.U. after   27 cycles
 SCF Done:  E(UB3LYP) =  -989.951369033     a.u. after   26 cycles
 SCF Done:  E(UB3LYP) =  -989.951394862     A.U. after   14 cycles
 SCF Done:  E(UB3LYP) =  -989.959012777     a.u. after    1 cycles
 SCF Done:  E(UB3LYP) =  -989.959040749     A.U. after   13 cycles
 SCF Done:  E(UB3LYP) =  -989.959004573     a.u. after    1 cycles
 SCF Done:  E(UB3LYP) =  -989.959045598     A.U. after   12 cycles
 SCF Done:  E(UB3LYP) =  -989.959033155     a.u. after    1 cycles
 SCF Done:  E(UB3LYP) =  -989.959049059     A.U. after   11 cycles
 SCF Done:  E(UB3LYP) =  -989.959046398     a.u. after    1 cycles
 SCF Done:  E(UB3LYP) =  -989.959049700     A.U. after   13 cycles
 Optimization completed.
    -- Stationary point found.
 Normal termination of Gaussian 16 at Fri Dec 22 07:13:25 2023.

 ----------------------------------------------------------------------
 #P Geom=AllCheck Guess=TCheck SCRF=Check GenChk UB3LYP/6-311++G(d,p) F
 req
 ----------------------------------------------------------------------

 Structure from the checkpoint file:  "204-an.chk"
 -------
 Reduced
 -------
 Charge = -2 Multiplicity = 1

                          Input orientation:
 ---------------------------------------------------------------------
 Center     Atomic      Atomic             Coordinates (Angstroms)
 Number     Number       Type             X           Y           Z
 ---------------------------------------------------------------------
      1          8           0        4.870340   -0.934024    0.017066
      2          6           0        3.639669   -0.274288    0.057908
      3          6           0        3.580776    1.134444    0.125484
      4          6           0        2.346337    1.758472    0.164720
      5          6           0        1.134808    1.027023    0.139396
      6          6           0       -0.142741    1.743611    0.183875
      7          8           0       -0.160876    3.010777    0.244914
      8          6           0       -1.335118    0.902891    0.152896
      9          6           0       -2.659042    1.447272    0.189465
     10          8           0       -2.841035    2.826216    0.257137
     11          6           0       -3.780477    0.643814    0.159573
     12          6           0       -3.668980   -0.774805    0.090055
     13          6           0       -2.431089   -1.362920    0.052272
     14          8           0       -2.333368   -2.725571   -0.014596
     15          6           0       -1.226440   -0.558181    0.082072
     16          6           0        0.029841   -1.200058    0.041949
     17          8           0        0.152967   -2.557791   -0.023507
     18          6           0        1.199088   -0.403233    0.070774
     19          6           0        2.486058   -1.027668    0.031077
     20          8           0        2.601465   -2.390377   -0.034151
     21          1           0        4.625626   -1.870839   -0.024579
     22          1           0        4.507745    1.701282    0.145072
     23          1           0        2.263264    2.838329    0.216822
     24          1           0       -3.796133    2.952937    0.265886
     25          1           0       -4.768068    1.106156    0.190316
     26          1           0       -4.554214   -1.403795    0.066378
     27          1           0       -1.333977   -2.910706   -0.030379
     28          1           0        1.593576   -2.698968   -0.041038
 ---------------------------------------------------------------------

 SCF Done:  E(UB3LYP) =  -989.959049700     a.u. after    1 cycles
 SCF Done:  E(UB3LYP) =  -989.959049700     A.U. after    1 cycles

 Alpha  occ. eigenvalues --  -18.92138 -18.90914 -18.88037 -18.87052 -18.82063
 Alpha  occ. eigenvalues --  -18.78422  -9.98375  -9.97785  -9.97585  -9.97412
 Alpha  occ. eigenvalues --   -9.95467  -9.94760  -9.93006  -9.92357  -9.91927
 Alpha  occ. eigenvalues --   -9.91927  -9.91816  -9.91759  -9.91430  -9.90785
 Alpha  occ. eigenvalues --   -0.82892  -0.81604  -0.79005  -0.78306  -0.71105
 Alpha  occ. eigenvalues --   -0.70805  -0.60025  -0.58679  -0.53145  -0.49037
 Alpha  occ. eigenvalues --   -0.48427  -0.47918  -0.41814  -0.39307  -0.38888
 Alpha  occ. eigenvalues --   -0.34844  -0.33082  -0.30370  -0.30084  -0.27551
 Alpha  occ. eigenvalues --   -0.26835  -0.23563  -0.22834  -0.22204  -0.21015
 Alpha  occ. eigenvalues --   -0.19784  -0.18802  -0.17955  -0.17003  -0.16765
 Alpha  occ. eigenvalues --   -0.16165  -0.14713  -0.14349  -0.13686  -0.12902
 Alpha  occ. eigenvalues --   -0.12868  -0.12639  -0.11010  -0.10898  -0.10501
 Alpha  occ. eigenvalues --   -0.08408  -0.08218  -0.06408  -0.05141  -0.00408
 Alpha  occ. eigenvalues --   -0.00204   0.01265   0.03384   0.03923   0.04459
 Alpha  occ. eigenvalues --    0.12097
 Alpha virt. eigenvalues --    0.15738   0.17168   0.17785   0.18408   0.20221
 Alpha virt. eigenvalues --    0.21150   0.21403   0.21600   0.22649   0.24418
 Alpha virt. eigenvalues --    0.25076   0.25424   0.26319   0.26340   0.26676

  Beta  occ. eigenvalues --  -18.92138 -18.90914 -18.88037 -18.87052 -18.82063
  Beta  occ. eigenvalues --  -18.78422  -9.98375  -9.97785  -9.97585  -9.97412
  Beta  occ. eigenvalues --   -9.95467  -9.94760  -9.93006  -9.92357  -9.91927
  Beta  occ. eigenvalues --   -9.91927  -9.91816  -9.91759  -9.91430  -9.90785
  Beta  occ. eigenvalues --   -0.82892  -0.81604  -0.79005  -0.78306  -0.71105
  Beta  occ. eigenvalues --   -0.70805  -0.60025  -0.58679  -0.53145  -0.49037
  Beta  occ. eigenvalues --   -0.48427  -0.47918  -0.41814  -0.39307  -0.38888
  Beta  occ. eigenvalues --   -0.34844  -0.33082  -0.30370  -0.30084  -0.27551
  Beta  occ. eigenvalues --   -0.26835  -0.23563  -0.22834  -0.22204  -0.21015
  Beta  occ. eigenvalues --   -0.19784  -0.18802  -0.17955  -0.17003  -0.16765
  Beta  occ. eigenvalues --   -0.16165  -0.14713  -0.14349  -0.13686  -0.12902
  Beta  occ. eigenvalues --   -0.12868  -0.12639  -0.11010  -0.10898  -0.10501
  Beta  occ. eigenvalues --   -0.08408  -0.08218  -0.06408  -0.05141  -0.00408
  Beta  occ. eigenvalues --   -0.00204   0.01265   0.03384   0.03923   0.04459
  Beta  occ. eigenvalues --    0.12097
  Beta virt. eigenvalues --    0.15738   0.17168   0.17785   0.18408   0.20221
  Beta virt. eigenvalues --    0.21150   0.21403   0.21600   0.22649   0.24418
  Beta virt. eigenvalues --    0.25076   0.25424   0.26319   0.26340   0.26676

 Mulliken charges and spin densities:
               1          2
     1  O   -0.340442  -0.000000
     2  C   -0.366746   0.000000
     3  C   -0.004066  -0.000000
     4  C    0.000124   0.000000
     5  C    0.330011  -0.000000
     6  C   -0.589127  -0.000000
     7  O   -0.460547   0.000000
     8  C    0.156159  -0.000000
     9  C   -0.265135   0.000000
    10  O   -0.199769   0.000000
    11  C   -0.271906   0.000000
    12  C   -0.133351   0.000000
    13  C   -0.327080  -0.000000
    14  O   -0.454730   0.000000
    15  C    0.629241  -0.000000
    16  C   -0.423903  -0.000000
    17  O   -0.734636   0.000000
    18  C    0.466483  -0.000000
    19  C   -0.178732   0.000000
    20  O   -0.587063  -0.000000
    21  H    0.259925   0.000000
    22  H    0.110906   0.000000
    23  H    0.127844   0.000000
    24  H    0.204046   0.000000
    25  H    0.029188  -0.000000
    26  H    0.089051   0.000000
    27  H    0.415106  -0.000000
    28  H    0.519149   0.000000
 Sum of Mulliken charges =  -2.00000   0.00000

 Dipole moment (field-independent basis, Debye):
    X=             -1.6686    Y=             -0.5120    Z=             -0.9694  Tot=              1.9965
 Quadrupole moment (field-independent basis, Debye-Ang):
   XX=           -186.2103   YY=           -178.3778   ZZ=           -127.0630
   XY=             -3.3661   XZ=              0.1521   YZ=             -2.5177

  Exact polarizability: 405.246  -0.392 246.365  -2.068   6.045 118.397
 Approx polarizability: 684.612  -0.102 461.578  -3.766  13.397 181.035

 ******    1 imaginary frequencies (negative Signs) ******

                      1                      2                      3
                      A                      A                      A
 Frequencies --    -35.4502                48.1521                60.2723
 Red. masses --      1.1710                 7.3204                 5.8384
 Frc consts  --      0.0009                 0.0100                 0.0125
 IR Inten    --     49.0422                 0.1214                 0.7919

                      4                      5                      6
                      A                      A                      A
 Frequencies --    100.6331               116.9213               130.6125
 Red. masses --      8.0151                 9.2157                 9.4949
 Frc consts  --      0.0478                 0.0742                 0.0954
 IR Inten    --      0.0066                 0.5838                 0.2614

                      7                      8                      9
                      A                      A                      A
 Frequencies --    190.3239               202.6018               266.3558
 Red. masses --      6.8706                 7.3196                 5.3660
 Frc consts  --      0.1466                 0.1770                 0.2243
 IR Inten    --      8.9496                 0.9167                 1.2463

                     10                     11                     12
                      A                      A                      A
 Frequencies --    269.0866               312.6964               325.7904
 Red. masses --      7.1639                 5.5892                 8.5352
 Frc consts  --      0.3056                 0.3220                 0.5338
 IR Inten    --     17.3454                 3.9120                 2.9413

                     13                     14                     15
                      A                      A                      A
 Frequencies --    340.6897               352.0842               360.1987
 Red. masses --      5.5047                10.3421                 6.8338
 Frc consts  --      0.3764                 0.7554                 0.5224
 IR Inten    --      8.5161                 1.8060                 3.1601

                     16                     17                     18
                      A                      A                      A
 Frequencies --    377.2877               406.8906               431.7940
 Red. masses --      6.8808                 6.6320                 8.5566
 Frc consts  --      0.5771                 0.6469                 0.9400
 IR Inten    --      5.6395                38.6429                74.0259

                     19                     20                     21
                      A                      A                      A
 Frequencies --    453.7185               456.4598               475.5759
 Red. masses --      1.5329                10.0901                 9.2465
 Frc consts  --      0.1859                 1.2387                 1.2322
 IR Inten    --     62.8463                 8.0120                 2.2206

                     22                     23                     24
                      A                      A                      A
 Frequencies --    491.1161               502.3975               532.0760
 Red. masses --      8.1579                 2.7017                 7.7603
 Frc consts  --      1.1593                 0.4018                 1.2944
 IR Inten    --      9.8595                12.5721                 5.4819

                     25                     26                     27
                      A                      A                      A
 Frequencies --    543.3909               576.6419               583.9551
 Red. masses --      3.6600                 5.3331                 2.6102
 Frc consts  --      0.6367                 1.0448                 0.5244
 IR Inten    --      2.3541                27.7635                57.2678

                     28                     29                     30
                      A                      A                      A
 Frequencies --    619.1307               627.6655               653.6453
 Red. masses --      3.5296                 6.4608                 2.1774
 Frc consts  --      0.7971                 1.4997                 0.5481
 IR Inten    --     13.1651                37.9221                 9.5406

                     31                     32                     33
                      A                      A                      A
 Frequencies --    702.2933               704.2767               725.6309
 Red. masses --      6.1404                 3.7254                 2.6921
 Frc consts  --      1.7844                 1.0887                 0.8352
 IR Inten    --     22.1235                 4.2522                15.8795

                     34                     35                     36
                      A                      A                      A
 Frequencies --    736.2638               736.9058               766.2180
 Red. masses --      7.0503                 2.3708                 2.0099
 Frc consts  --      2.2518                 0.7585                 0.6952
 IR Inten    --     43.0972                22.4776                26.6212

                     37                     38                     39
                      A                      A                      A
 Frequencies --    794.1279               795.6300               845.5326
 Red. masses --      9.1757                 6.6647                 9.0704
 Frc consts  --      3.4093                 2.4857                 3.8206
 IR Inten    --    184.8730                 0.0857                17.9452

                     40                     41                     42
                      A                      A                      A
 Frequencies --    905.3535               922.1181               954.4823
 Red. masses --      7.2639                 1.2516                 1.0532
 Frc consts  --      3.5080                 0.6270                 0.5653
 IR Inten    --    104.0358                 2.0136                80.6795

                     43                     44                     45
                      A                      A                      A
 Frequencies --    977.3081              1019.2963              1060.4256
 Red. masses --      6.5558                 3.3503                 2.1762
 Frc consts  --      3.6893                 2.0508                 1.4418
 IR Inten    --     81.7291                54.3051               182.5033

                     46                     47                     48
                      A                      A                      A
 Frequencies --   1072.7852              1117.6714              1148.1859
 Red. masses --      1.0442                 2.2891                 1.7274
 Frc consts  --      0.7080                 1.6848                 1.3417
 IR Inten    --     40.3464                28.8172                 0.4080

                     49                     50                     51
                      A                      A                      A
 Frequencies --   1158.3307              1202.8917              1214.6783
 Red. masses --      3.5233                 3.5767                 2.1345
 Frc consts  --      2.7852                 3.0492                 1.8556
 IR Inten    --     77.1847                47.3892               505.2534

                     52                     53                     54
                      A                      A                      A
 Frequencies --   1216.4132              1229.8157              1260.4648
 Red. masses --      1.8686                 2.8488                 2.9318
 Frc consts  --      1.6290                 2.5386                 2.7444
 IR Inten    --     14.4267                22.4065               233.6445

                     55                     56                     57
                      A                      A                      A
 Frequencies --   1280.7099              1305.5652              1354.2758
 Red. masses --      5.0522                 3.2549                 3.1798
 Frc consts  --      4.8824                 3.2688                 3.4361
 IR Inten    --     69.8231                37.6335               133.0008

                     58                     59                     60
                      A                      A                      A
 Frequencies --   1360.4791              1388.6086              1408.0271
 Red. masses --      3.6731                 4.8593                 3.6257
 Frc consts  --      4.0056                 5.5206                 4.2351
 IR Inten    --     52.9165                13.6441               207.9782

                     61                     62                     63
                      A                      A                      A
 Frequencies --   1441.0537              1475.0291              1495.3774
 Red. masses --      2.9978                 2.7833                 3.4140
 Frc consts  --      3.6679                 3.5679                 4.4979
 IR Inten    --    318.3614               197.3553                21.9321

                     64                     65                     66
                      A                      A                      A
 Frequencies --   1520.9003              1554.1389              1564.5509
 Red. masses --      7.4399                 3.2611                 3.6774
 Frc consts  --     10.1396                 4.6409                 5.3037
 IR Inten    --    762.8883               466.5911               320.8356

                     67                     68                     69
                      A                      A                      A
 Frequencies --   1570.8163              1601.2862              1631.2776
 Red. masses --      3.5318                 4.1426                 3.5618
 Frc consts  --      5.1345                 6.2583                 5.5845
 IR Inten    --    177.8589                34.1939                73.5412

                     70                     71                     72
                      A                      A                      A
 Frequencies --   1698.0896              2253.8278              2796.0010
 Red. masses --      1.8180                 1.0826                 1.0775
 Frc consts  --      3.0886                 3.2400                 4.9628
 IR Inten    --     12.3949               820.6987               327.3008

                     73                     74                     75
                      A                      A                      A
 Frequencies --   3078.3812              3134.1955              3142.7310
 Red. masses --      1.0861                 1.0870                 1.0902
 Frc consts  --      6.0638                 6.2910                 6.3443
 IR Inten    --     89.3344                45.4521                75.5721

                     76                     77                     78
                      A                      A                      A
 Frequencies --   3173.9533              3723.2359              3790.1576
 Red. masses --      1.0909                 1.0647                 1.0649
 Frc consts  --      6.4750                 8.6958                 9.0127
 IR Inten    --     31.0808                39.3007                 1.3062

 - Thermochemistry -
 -------------------
 Temperature   298.150 Kelvin.  Pressure   1.00000 Atm.
 Atom     1 has atomic number  8 and mass  15.99491

 Molecular mass:   272.03209 amu.
 Principal axes and moments of inertia in atomic units:
                           1         2         3
     Eigenvalues --  2950.001106620.610069570.61037
           X            0.98656   0.16325   0.00768
           Y           -0.16270   0.98552  -0.04782
           Z           -0.01537   0.04593   0.99883
 This molecule is an asymmetric top.
 Rotational symmetry number  1.
 Warning -- assumption of classical behavior for rotation
           may cause significant error
 Rotational temperatures (Kelvin)      0.02936     0.01308     0.00905
 Rotational constants (GHZ):           0.61178     0.27259     0.18857
    1 imaginary frequencies ignored.
 Zero-point vibrational energy     495361.2 (Joules/Mol)
                                  118.39418 (Kcal/Mol)
 Warning -- explicit consideration of  27 degrees of freedom as
           vibrations may cause significant error
 Vibrational temperatures:     69.28    86.72   144.79   168.22   187.92
          (Kelvin)            273.83   291.50   383.23   387.16   449.90
                              468.74   490.18   506.57   518.25   542.83
                              585.42   621.26   652.80   656.74   684.25
                              706.61   722.84   765.54   781.82   829.66
                              840.18   890.79   903.07   940.45  1010.44
                             1013.30  1044.02  1059.32  1060.24  1102.42
                             1142.57  1144.73  1216.53  1302.60  1326.72
                             1373.29  1406.13  1466.54  1525.72  1543.50
                             1608.08  1651.98  1666.58  1730.69  1747.65
                             1750.15  1769.43  1813.53  1842.66  1878.42
                             1948.50  1957.43  1997.90  2025.84  2073.35
                             2122.24  2151.51  2188.24  2236.06  2251.04
                             2260.05  2303.89  2347.04  2443.17  3242.76
                             4022.82  4429.10  4509.41  4521.69  4566.61
                             5356.91  5453.19

 Zero-point correction=                           0.188673 (Hartree/Particle)
 Thermal correction to Energy=                    0.203850
 Thermal correction to Enthalpy=                  0.204794
 Thermal correction to Gibbs Free Energy=         0.146770
 Sum of electronic and zero-point Energies=           -989.770377
 Sum of electronic and thermal Energies=              -989.755200
 Sum of electronic and thermal Enthalpies=            -989.754256
 Sum of electronic and thermal Free Energies=         -989.812280

                     E (Thermal)             CV                S
                      KCal/Mol        Cal/Mol-Kelvin    Cal/Mol-Kelvin
 Total                  127.918             61.541            122.122
 Electronic               0.000              0.000              0.000
 Translational            0.889              2.981             42.701
 Rotational               0.889              2.981             33.591
 Vibrational            126.140             55.580             45.830
 Vibration     1          0.595              1.978              4.892
 Vibration     2          0.597              1.973              4.448
 Vibration     3          0.604              1.949              3.442
 Vibration     4          0.608              1.935              3.151
 Vibration     5          0.612              1.923              2.937
 Vibration     6          0.634              1.853              2.225
 Vibration     7          0.639              1.836              2.109
 Vibration     8          0.672              1.735              1.620
 Vibration     9          0.673              1.730              1.602
 Vibration    10          0.701              1.649              1.348
 Vibration    11          0.710              1.624              1.281
 Vibration    12          0.720              1.594              1.209
 Vibration    13          0.729              1.571              1.157
 Vibration    14          0.735              1.554              1.121
 Vibration    15          0.748              1.519              1.050
 Vibration    16          0.772              1.455              0.938
 Vibration    17          0.793              1.401              0.853
 Vibration    18          0.812              1.353              0.785
 Vibration    19          0.815              1.347              0.776
 Vibration    20          0.832              1.304              0.722
 Vibration    21          0.847              1.270              0.681
 Vibration    22          0.858              1.245              0.652
 Vibration    23          0.887              1.179              0.583
 Vibration    24          0.899              1.154              0.558
 Vibration    25          0.933              1.082              0.492
 Vibration    26          0.941              1.066              0.478
 Vibration    27          0.979              0.991              0.418

                           ! Non-Optimized Parameters !
 Normal termination of Gaussian 16 at Fri Dec 22 08:22:56 2023.
