 Gaussian 16, Revision A.03,
 Gaussian 16:  ES64L-G16RevA.03 25-Dec-2016

 --------------------------------------
 #P UB3LYP/6-311++G(d,p) nosym opt freq
 --------------------------------------

 --------
 Oxidized
 --------
 Symbolic Z-matrix:
 Charge = -1 Multiplicity = 1

 SCF Done:  E(UB3LYP) =  -1158.63116707     A.U. after   19 cycles
 SCF Done:  E(UB3LYP) =  -1158.63698972     A.U. after   14 cycles
 SCF Done:  E(UB3LYP) =  -1158.63747847     A.U. after   14 cycles
 SCF Done:  E(UB3LYP) =  -1158.63754174     A.U. after   13 cycles
 SCF Done:  E(UB3LYP) =  -1158.63756512     A.U. after   12 cycles
 SCF Done:  E(UB3LYP) =  -1158.63756650     A.U. after   11 cycles
 SCF Done:  E(UB3LYP) =  -1158.63756710     A.U. after   11 cycles
 SCF Done:  E(UB3LYP) =  -1158.63756727     A.U. after   10 cycles
 SCF Done:  E(UB3LYP) =  -1158.63756735     A.U. after   10 cycles
 SCF Done:  E(UB3LYP) =  -1158.63756746     A.U. after   10 cycles
 SCF Done:  E(UB3LYP) =  -1158.63756751     A.U. after   10 cycles
 Optimization completed.
    -- Stationary point found.
 Normal termination of Gaussian 16 at Thu Dec 28 20:07:32 2023.

 ----------------------------------------------------------------------
 #P Geom=AllCheck Guess=TCheck SCRF=Check GenChk UB3LYP/6-311++G(d,p) F
 req
 ----------------------------------------------------------------------

 Structure from the checkpoint file:  "315.chk"
 --------
 Oxidized
 --------
 Charge = -1 Multiplicity = 1

                          Input orientation:
 ---------------------------------------------------------------------
 Center     Atomic      Atomic             Coordinates (Angstroms)
 Number     Number       Type             X           Y           Z
 ---------------------------------------------------------------------
      1          6           0       -5.046151   -0.093526   -3.958853
      2          6           0       -4.480947   -0.068041   -5.229351
      3          6           0       -3.092658    0.001356   -5.378885
      4          6           0       -4.230272   -0.049954   -2.825324
      5          6           0       -2.838562    0.019530   -2.976908
      6          6           0       -2.274678    0.044954   -4.255453
      7          6           0       -4.871299   -0.079002   -1.459004
      8          6           0       -3.951073   -0.030208   -0.283450
      9          6           0       -2.616553    0.036089   -0.454207
     10          6           0       -1.958924    0.066202   -1.768231
     11          8           0       -6.079795   -0.139409   -1.362496
     12          8           0       -0.739152    0.126929   -1.876726
     13         16           0       -4.634363   -0.059823    1.429942
     14          8           0       -5.479322    1.152382    1.484417
     15          8           0       -5.355588   -1.349136    1.491136
     16          8           0       -3.418722    0.002571    2.276283
     17          1           0       -6.118780   -0.147101   -3.816601
     18          1           0       -5.119424   -0.102129   -6.105887
     19          1           0       -2.653749    0.021155   -6.370843
     20          1           0       -1.195896    0.098878   -4.341077
     21          1           0       -1.972003    0.070253    0.417467
 ---------------------------------------------------------------------

 SCF Done:  E(UB3LYP) =  -1158.63756751     A.U. after    1 cycles

 Alpha  occ. eigenvalues --  -88.90386 -19.02941 -19.02436 -18.94497 -18.94497
 Alpha  occ. eigenvalues --  -18.94413 -10.17787 -10.17647 -10.11695 -10.11639
 Alpha  occ. eigenvalues --  -10.11523 -10.11471 -10.11152 -10.10943 -10.10562
 Alpha  occ. eigenvalues --  -10.09079  -7.96200  -5.92483  -5.92431  -5.92423
 Alpha  occ. eigenvalues --   -0.96762  -0.95904  -0.95630  -0.82911  -0.82802
 Alpha  occ. eigenvalues --   -0.80008  -0.73546  -0.68933  -0.68174  -0.59739
 Alpha  occ. eigenvalues --   -0.56019  -0.54690  -0.50042  -0.46431  -0.44182
 Alpha  occ. eigenvalues --   -0.42101  -0.40351  -0.38247  -0.36498  -0.35940
 Alpha  occ. eigenvalues --   -0.35384  -0.34976  -0.33811  -0.32183  -0.31098
 Alpha  occ. eigenvalues --   -0.30325  -0.30139  -0.29041  -0.28915  -0.28061
 Alpha  occ. eigenvalues --   -0.20179  -0.19312  -0.19100  -0.18792  -0.18581
 Alpha  occ. eigenvalues --   -0.18524  -0.17300  -0.15287  -0.14426  -0.13936
 Alpha  occ. eigenvalues --   -0.10530
 Alpha virt. eigenvalues --   -0.02088   0.03427   0.05569   0.06045   0.07765
 Alpha virt. eigenvalues --    0.09364   0.11442   0.12117   0.12179   0.12752
 Alpha virt. eigenvalues --    0.13098   0.14925   0.15586   0.15856   0.16035

  Beta  occ. eigenvalues --  -88.90386 -19.02941 -19.02436 -18.94497 -18.94497
  Beta  occ. eigenvalues --  -18.94413 -10.17787 -10.17647 -10.11695 -10.11639
  Beta  occ. eigenvalues --  -10.11523 -10.11471 -10.11152 -10.10943 -10.10562
  Beta  occ. eigenvalues --  -10.09079  -7.96200  -5.92483  -5.92431  -5.92423
  Beta  occ. eigenvalues --   -0.96762  -0.95904  -0.95630  -0.82911  -0.82802
  Beta  occ. eigenvalues --   -0.80008  -0.73546  -0.68933  -0.68174  -0.59739
  Beta  occ. eigenvalues --   -0.56019  -0.54690  -0.50042  -0.46431  -0.44182
  Beta  occ. eigenvalues --   -0.42101  -0.40351  -0.38247  -0.36498  -0.35940
  Beta  occ. eigenvalues --   -0.35384  -0.34976  -0.33811  -0.32183  -0.31098
  Beta  occ. eigenvalues --   -0.30325  -0.30139  -0.29041  -0.28915  -0.28061
  Beta  occ. eigenvalues --   -0.20179  -0.19312  -0.19100  -0.18792  -0.18581
  Beta  occ. eigenvalues --   -0.18524  -0.17300  -0.15287  -0.14426  -0.13936
  Beta  occ. eigenvalues --   -0.10530
  Beta virt. eigenvalues --   -0.02088   0.03427   0.05569   0.06045   0.07765
  Beta virt. eigenvalues --    0.09364   0.11442   0.12117   0.12179   0.12752
  Beta virt. eigenvalues --    0.13098   0.14925   0.15586   0.15856   0.16035

 Mulliken charges and spin densities:
               1          2
     1  C    0.152388  -0.000000
     2  C   -0.334100  -0.000000
     3  C   -0.307361   0.000000
     4  C    0.076849  -0.000000
     5  C    0.506901   0.000000
     6  C    0.132508   0.000000
     7  C   -0.569632   0.000000
     8  C   -0.321836  -0.000000
     9  C    0.035322   0.000000
    10  C   -0.600982  -0.000000
    11  O   -0.151965  -0.000000
    12  O   -0.262020   0.000000
    13  S    0.550813  -0.000000
    14  O   -0.264041  -0.000000
    15  O   -0.263717  -0.000000
    16  O   -0.299526  -0.000000
    17  H    0.169673   0.000000
    18  H    0.153170  -0.000000
    19  H    0.153515   0.000000
    20  H    0.164978  -0.000000
    21  H    0.279066   0.000000
 Sum of Mulliken charges =  -1.00000  -0.00000

 Dipole moment (field-independent basis, Debye):
    X=             21.3950    Y=              0.2427    Z=             -7.1626  Tot=             22.5634
 Quadrupole moment (field-independent basis, Debye-Ang):
   XX=           -220.1720   YY=           -108.8584   ZZ=           -110.9140
   XY=             -1.8712   XZ=             37.6370   YZ=              0.6698

  Exact polarizability: 183.592   4.583  91.429 -17.153  -0.580 210.259
 Approx polarizability: 372.643  11.075 150.609 -26.825  -1.032 283.088

                      1                      2                      3
                      A                      A                      A
 Frequencies --     27.8927                52.8930               111.9123
 Red. masses --     10.1921                12.4092                 5.3981
 Frc consts  --      0.0047                 0.0205                 0.0398
 IR Inten    --      0.1647                 1.0888                 1.5378

                      4                      5                      6
                      A                      A                      A
 Frequencies --    120.5893               131.0963               178.7983
 Red. masses --      8.9213                10.2278                 6.8356
 Frc consts  --      0.0764                 0.1036                 0.1288
 IR Inten    --      4.7759                 1.7225                 0.3650

                      7                      8                      9
                      A                      A                      A
 Frequencies --    214.8778               222.8610               268.1520
 Red. masses --      6.1969                11.9962                 7.3786
 Frc consts  --      0.1686                 0.3510                 0.3126
 IR Inten    --      1.5458                 3.2373                 0.2728

                     10                     11                     12
                      A                      A                      A
 Frequencies --    297.4547               376.5454               389.9198
 Red. masses --     13.4341                10.9105                 5.2832
 Frc consts  --      0.7003                 0.9114                 0.4733
 IR Inten    --      1.1227                14.0711                 0.6913

                     13                     14                     15
                      A                      A                      A
 Frequencies --    431.4017               458.7081               471.4916
 Red. masses --      4.3254                10.0561                 5.0039
 Frc consts  --      0.4743                 1.2467                 0.6554
 IR Inten    --      3.2871                 2.3218                 2.7883

                     16                     17                     18
                      A                      A                      A
 Frequencies --    478.2497               490.5657               521.7003
 Red. masses --      9.7675                16.4021                 9.0645
 Frc consts  --      1.3163                 2.3257                 1.4536
 IR Inten    --      2.5201                14.1634                10.3610

                     19                     20                     21
                      A                      A                      A
 Frequencies --    576.9670               624.9401               672.7522
 Red. masses --     10.0688                10.5524                 6.2122
 Frc consts  --      1.9748                 2.4282                 1.6565
 IR Inten    --    130.0885                79.2599                 5.1848

                     22                     23                     24
                      A                      A                      A
 Frequencies --    681.6118               713.5883               715.6184
 Red. masses --      4.0542                 3.0964                 6.6649
 Frc consts  --      1.1098                 0.9290                 2.0110
 IR Inten    --      5.7431                48.5763                 1.0332

                     25                     26                     27
                      A                      A                      A
 Frequencies --    778.4129               790.3577               810.9985
 Red. masses --      5.5192                 1.6297                 5.4150
 Frc consts  --      1.9704                 0.5998                 2.0984
 IR Inten    --      4.9060                27.3467                 2.1029

                     28                     29                     30
                      A                      A                      A
 Frequencies --    825.4154               902.9966               932.8985
 Red. masses --      8.2515                 1.3420                 1.3833
 Frc consts  --      3.3123                 0.6447                 0.7093
 IR Inten    --      1.1084                 0.0338                14.4968

                     31                     32                     33
                      A                      A                      A
 Frequencies --    982.8487               990.5565              1001.3084
 Red. masses --     15.3204                 1.3779                 1.2960
 Frc consts  --      8.7196                 0.7966                 0.7656
 IR Inten    --    169.0196                 1.1465                 0.0106

                     34                     35                     36
                      A                      A                      A
 Frequencies --   1042.6631              1074.7058              1096.9294
 Red. masses --      3.0801                 3.1472                 3.0827
 Frc consts  --      1.9729                 2.1417                 2.1854
 IR Inten    --     42.8492                20.9220                22.3346

                     37                     38                     39
                      A                      A                      A
 Frequencies --   1129.6394              1175.6566              1180.9530
 Red. masses --      1.7893                 1.1467                12.0030
 Frc consts  --      1.3452                 0.9338                 9.8629
 IR Inten    --      2.9294                21.0304               247.5901

                     40                     41                     42
                      A                      A                      A
 Frequencies --   1187.0205              1218.8606              1264.7407
 Red. masses --     20.4125                 2.3002                 2.0460
 Frc consts  --     16.9458                 2.0134                 1.9283
 IR Inten    --    284.6530                83.9877                87.2819

                     43                     44                     45
                      A                      A                      A
 Frequencies --   1309.5442              1329.7121              1352.6320
 Red. masses --      2.7958                 2.2933                 7.5389
 Frc consts  --      2.8248                 2.3890                 8.1267
 IR Inten    --    172.1541                17.0058                 7.2088

                     46                     47                     48
                      A                      A                      A
 Frequencies --   1478.0986              1501.5025              1608.4013
 Red. masses --      2.3846                 2.6064                 7.0827
 Frc consts  --      3.0696                 3.4622                10.7953
 IR Inten    --      0.8187                 1.8808                28.0774

                     49                     50                     51
                      A                      A                      A
 Frequencies --   1630.1750              1634.3222              1698.9712
 Red. masses --      6.5180                 8.0890                11.1252
 Frc consts  --     10.2054                12.7297                18.9203
 IR Inten    --     59.7296                63.2300               287.8825

                     52                     53                     54
                      A                      A                      A
 Frequencies --   1736.2843              3154.7012              3171.5196
 Red. masses --     12.8195                 1.0860                 1.0919
 Frc consts  --     22.7700                 6.3678                 6.4711
 IR Inten    --    185.4818                 7.1560                27.0697

                     55                     56                     57
                      A                      A                      A
 Frequencies --   3184.8937              3191.7326              3195.1626
 Red. masses --      1.0902                 1.0924                 1.0935
 Frc consts  --      6.5152                 6.5564                 6.5772
 IR Inten    --      4.9020                 6.0250                14.6332

 - Thermochemistry -
 -------------------
 Temperature   298.150 Kelvin.  Pressure   1.00000 Atm.
 Atom     1 has atomic number  6 and mass  12.00000

 Molecular mass:   236.98577 amu.
 Principal axes and moments of inertia in atomic units:
                           1         2         3
     Eigenvalues --  1753.030495475.831076870.55799
           X           -0.24069   0.96931  -0.05000
           Y           -0.00974   0.04910   0.99875
           Z            0.97055   0.24087  -0.00238
 This molecule is an asymmetric top.
 Rotational symmetry number  1.
 Warning -- assumption of classical behavior for rotation
           may cause significant error
 Rotational temperatures (Kelvin)      0.04941     0.01582     0.01261
 Rotational constants (GHZ):           1.02950     0.32958     0.26268
 Zero-point vibrational energy     351673.4 (Joules/Mol)
                                   84.05196 (Kcal/Mol)
 Warning -- explicit consideration of  19 degrees of freedom as
           vibrations may cause significant error
 Vibrational temperatures:     40.13    76.10   161.02   173.50   188.62
          (Kelvin)            257.25   309.16   320.65   385.81   427.97
                              541.76   561.01   620.69   659.98   678.37
                              688.09   705.81   750.61   830.13   899.15
                              967.94   980.69  1026.69  1029.62  1119.96
                             1137.15  1166.85  1187.59  1299.21  1342.23
                             1414.10  1425.19  1440.66  1500.16  1546.26
                             1578.24  1625.30  1691.51  1699.13  1707.86
                             1753.67  1819.68  1884.14  1913.16  1946.14
                             2126.65  2160.33  2314.13  2345.46  2351.43
                             2444.44  2498.13  4538.91  4563.11  4582.35
                             4592.19  4597.13

 Zero-point correction=                           0.133945 (Hartree/Particle)
 Thermal correction to Energy=                    0.146780
 Thermal correction to Enthalpy=                  0.147724
 Thermal correction to Gibbs Free Energy=         0.093257
 Sum of electronic and zero-point Energies=          -1158.503622
 Sum of electronic and thermal Energies=             -1158.490788
 Sum of electronic and thermal Enthalpies=           -1158.489844
 Sum of electronic and thermal Free Energies=        -1158.544311

                     E (Thermal)             CV                S
                      KCal/Mol        Cal/Mol-Kelvin    Cal/Mol-Kelvin
 Total                   92.106             48.534            114.636
 Electronic               0.000              0.000              0.000
 Translational            0.889              2.981             42.290
 Rotational               0.889              2.981             32.556
 Vibrational             90.328             42.573             39.790
 Vibration     1          0.593              1.984              5.974
 Vibration     2          0.596              1.976              4.706
 Vibration     3          0.607              1.940              3.235
 Vibration     4          0.609              1.932              3.091
 Vibration     5          0.612              1.922              2.930
 Vibration     6          0.629              1.868              2.341
 Vibration     7          0.645              1.818              2.002
 Vibration     8          0.649              1.806              1.936
 Vibration     9          0.673              1.732              1.608
 Vibration    10          0.691              1.678              1.431
 Vibration    11          0.747              1.520              1.053
 Vibration    12          0.758              1.492              1.000
 Vibration    13          0.792              1.402              0.854
 Vibration    14          0.817              1.342              0.770
 Vibration    15          0.828              1.313              0.733
 Vibration    16          0.835              1.298              0.715
 Vibration    17          0.846              1.271              0.682
 Vibration    18          0.877              1.202              0.606
 Vibration    19          0.933              1.081              0.491

                           ! Non-Optimized Parameters !
 Normal termination of Gaussian 16 at Thu Dec 28 20:23:18 2023.
