 Q-Chem 5.4, Q-Chem, Inc., Pleasanton, CA (2021)
 Q-Chem 5.4.0 for Intel X86 EM64T Linux

User input:
--------------------------------------------------------------
$molecule
-2 1
C                 -0.3460170000      3.7997990000     -0.1498220000
C                 -1.5568550000      3.1935790000     -0.4219100000
C                 -1.5937440000      1.8384720000     -0.8340190000
C                  0.8788170000      3.0960630000     -0.2725480000
C                  0.8426150000      1.7172940000     -0.6940510000
C                 -0.4080840000      1.1311600000     -0.9625320000
C                  2.1295050000      3.7350160000      0.0151880000
C                  3.2981520000      2.9234350000     -0.1443420000
C                  3.3059900000      1.5914400000     -0.5427960000
C                  2.0672960000      0.9206250000     -0.8462360000
O                  2.2895200000      4.9620810000      0.4023750000
O                  2.0302600000     -0.2972040000     -1.2192490000
H                 -0.2940640000      4.8364140000      0.1675280000
H                 -2.4827060000      3.7561190000     -0.3203870000
H                 -2.5454600000      1.3586010000     -1.0492970000
H                 -0.4026690000      0.0926230000     -1.2780450000
O                  4.4607240000      3.5967650000      0.1492170000
C                  4.5957770000      0.8190520000     -0.6606990000
C                  5.1973090000      0.8153220000     -2.0810560000
C                  6.4937450000      0.0017250000     -2.1854480000
C                  7.1215640000     -0.0083340000     -3.5856920000
C                  8.4233920000     -0.8153220000     -3.6794910000
H                  4.0905540000      4.4798560000      0.3936620000
H                  4.3938070000     -0.2198790000     -0.3755980000
H                  5.3366670000      1.2316760000      0.0340910000
H                  5.3893830000      1.8503850000     -2.3895170000
H                  4.4487920000      0.4084000000     -2.7695920000
H                  6.2933860000     -1.0328160000     -1.8745160000
H                  7.2270840000      0.3976240000     -1.4683710000
H                  7.3155860000      1.0259580000     -3.9003280000
H                  6.3940970000     -0.4106570000     -4.3030970000
H                  8.2291650000     -1.8503220000     -3.3672540000
H                  9.1480970000     -0.4145750000     -2.9577410000
C                  9.0592150000     -0.8230240000     -5.0761980000
H                  9.2511890000      0.2117720000     -5.3901940000
H                  8.3380140000     -1.2282170000     -5.7985100000
C                 10.3638560000     -1.6256660000     -5.1614050000
H                 10.1739930000     -2.6610390000     -4.8487660000
H                 11.0862280000     -1.2214550000     -4.4398570000
C                 11.0017830000     -1.6334870000     -6.5569980000
C                 12.3035050000     -2.4371060000     -6.6364470000
H                 11.1939670000     -0.5993510000     -6.8705800000
H                 10.2811090000     -2.0373480000     -7.2796270000
H                 13.0647110000     -2.0362660000     -5.9570980000
H                 12.7307620000     -2.4222920000     -7.6448040000
H                 12.1438230000     -3.4879880000     -6.3685860000
$end
$rem
MAX_SCF_CYCLES=200
BASIS  =  6-311++G(d,p)
GUI  =  2
JOB_TYPE  =  SP
THRESH = 14
SCF_CONVERGENCE = 6
METHOD  =  B3LYP
SOLVENT_METHOD = COSMO
$end
$solvent
dielectric 37.219
opticaldielectric 1.43
$end

--------------------------------------------------------------

             Standard Nuclear Orientation (Angstroms)
    I     Atom           X                Y                Z
 ----------------------------------------------------------------
    1      C       5.8022473133    -0.1720390834    -0.8679205514
    2      C       6.4653472384     1.0361008975    -0.9593508872
    3      C       5.8273084459     2.2281093702    -0.5356388292
    4      C       4.4828950595    -0.2559128626    -0.3552811305
    5      C       3.8316656296     0.9570789648     0.0742888583
    6      C       4.5365161292     2.1701964346    -0.0325515811
    7      C       3.8054903646    -1.5159972705    -0.2626335217
    8      C       2.4776109317    -1.4748771899     0.2711217610
    9      C       1.8168962390    -0.3294768874     0.7007168567
   10      C       2.4660763555     0.9541601994     0.6154383172
   11      O       4.2847271753    -2.6688126367    -0.6127133673
   12      O       1.8947349565     2.0285580408     0.9934014382
   13      H       6.2716317657    -1.0974430538    -1.1861759870
   14      H       7.4774969902     1.0732614481    -1.3570067921
   15      H       6.3466664691     3.1807875209    -0.6067424401
   16      H       4.0198474524     3.0655654713     0.2983632755
   17      O       1.8879420882    -2.7156469018     0.3336118200
   18      C       0.4211389175    -0.3990661757     1.2673328427
   19      C      -0.6910452889    -0.1483826742     0.2283560671
   20      C      -2.1013655432    -0.1963377143     0.8302540357
   21      C      -3.2288569979     0.0368964879    -0.1842931374
   22      C      -4.6366600080    -0.0231086232     0.4233861344
   23      H       2.6189072093    -3.2716364826    -0.0313463679
   24      H       0.3352539809     0.3666014117     2.0469667357
   25      H       0.2588645335    -1.3813245937     1.7264026917
   26      H      -0.6084846897    -0.8965001930    -0.5697040494
   27      H      -0.5177045754     0.8312139416    -0.2302161779
   28      H      -2.1758261123     0.5548375324     1.6285577940
   29      H      -2.2538209259    -1.1710705258     1.3154084788
   30      H      -3.1508537058    -0.7092130576    -0.9865626201
   31      H      -3.0837179400     1.0133889982    -0.6650623103
   32      H      -4.7157872339     0.7245996436     1.2240810210
   33      H      -4.7782098074    -0.9986948142     0.9080651991
   34      C      -5.7683804299     0.2026678365    -0.5882237356
   35      H      -5.6882265608    -0.5429761701    -1.3906205446
   36      H      -5.6315765143     1.1799062683    -1.0702368176
   37      C      -7.1732199757     0.1344784836     0.0244414375
   38      H      -7.2559128219     0.8799652291     0.8264387926
   39      H      -7.3116766864    -0.8423508521     0.5065965406
   40      C      -8.3062396805     0.3587693571    -0.9858316937
   41      C      -9.7065327194     0.2905582211    -0.3684805358
   42      H      -8.2263191201    -0.3866629099    -1.7874856505
   43      H      -8.1695260769     1.3348630919    -1.4687579869
   44      H      -9.8965261027    -0.6876281914     0.0883303666
   45      H     -10.4899627277     0.4554396438    -1.1158782723
   46      H      -9.8391224450     1.0493759963     0.4114017522
 ----------------------------------------------------------------

   51    -964.4448739516      4.82e-07  Convergence criterion met
 Total energy in the final basis set =     -964.4448739516
    8    -964.6996577833      3.02e-07  Convergence criterion met
 Total energy in the final basis set =     -964.6996577833

                    Orbital Energies (a.u.)
 --------------------------------------------------------------

 Alpha MOs
 -- Occupied --
-19.1137 -19.0306 -19.0215 -10.1773 -10.1748 -10.1636 -10.1567 -10.1540
-10.1536 -10.1528 -10.1513 -10.1505 -10.1487 -10.1480 -10.1449 -10.1444
-10.1440 -10.1434 -10.1396 -10.1369 -10.1327 -10.1243  -1.0285  -0.9452
 -0.9375  -0.8249  -0.8028  -0.7865  -0.7696  -0.7479  -0.7222  -0.7211
 -0.6931  -0.6597  -0.6327  -0.6116  -0.5860  -0.5767  -0.5688  -0.5631
 -0.5525  -0.5355  -0.5035  -0.4760  -0.4716  -0.4587  -0.4479  -0.4334
 -0.4269  -0.4241  -0.4206  -0.4112  -0.4008  -0.4000  -0.3950  -0.3852
 -0.3830  -0.3734  -0.3681  -0.3591  -0.3569  -0.3519  -0.3473  -0.3433
 -0.3357  -0.3308  -0.3233  -0.3199  -0.3164  -0.3148  -0.3124  -0.3105
 -0.3074  -0.3035  -0.3000  -0.2904  -0.2311  -0.2275  -0.2193  -0.1997
 -0.1933  -0.1096

          Ground-State Mulliken Net Atomic Charges

     Atom                 Charge (a.u.)
  ----------------------------------------
      1 C                    -0.098487
      2 C                    -0.398226
      3 C                    -0.532448
      4 C                     0.478883
      5 C                    -0.142401
      6 C                     0.010404
      7 C                    -0.905247
      8 C                    -0.667268
      9 C                     1.997743
     10 C                    -0.708768
     11 O                    -0.771185
     12 O                    -0.677941
     13 H                     0.155720
     14 H                     0.176890
     15 H                     0.170523
     16 H                     0.154582
     17 O                    -0.355007
     18 C                    -0.310292
     19 C                    -0.781312
     20 C                    -0.236604
     21 C                     0.012998
     22 C                     0.011257
     23 H                     0.292984
     24 H                     0.174439
     25 H                     0.203039
     26 H                     0.160728
     27 H                     0.181666
     28 H                     0.117130
     29 H                     0.111026
     30 H                     0.127587
     31 H                     0.127346
     32 H                     0.135103
     33 H                     0.133718
     34 C                    -0.194914
     35 H                     0.131865
     36 H                     0.132292
     37 C                    -0.398626
     38 H                     0.128340
     39 H                     0.128347
     40 C                    -0.275237
     41 C                    -0.717309
     42 H                     0.136179
     43 H                     0.135986
     44 H                     0.145836
     45 H                     0.152909
     46 H                     0.145753
  ----------------------------------------
  Sum of atomic charges =    -2.000000

                    Cartesian Multipole Moments
 -----------------------------------------------------------------
    Charge (ESU x 10^10)
                -9.6064
    Dipole Moment (Debye)
         X     -30.6086      Y       2.3607      Z      -1.5791
       Tot      30.7401
    Quadrupole Moments (Debye-Ang)
        XX    -267.6017     XY      19.1170     YY    -187.7579
        XZ       4.5694     YZ      -9.6870     ZZ    -153.5187

 Total job time:  788.62s(wall), 6187.80s(cpu)
        *  Thank you very much for using Q-Chem.  Have a nice day.  *
