 Q-Chem 5.4, Q-Chem, Inc., Pleasanton, CA (2021)
 Q-Chem 5.4.0 for Intel X86 EM64T Linux

User input:
--------------------------------------------------------------
$molecule
-2 1
C                  2.9832400000     -1.0980550000     -0.1543260000
C                  1.6504130000     -0.4079710000     -0.0031000000
C                  1.5766390000      0.9315490000      0.3814550000
C                  0.3557550000      1.6630690000      0.5256290000
O                  0.3200400000      2.9037210000      0.9206650000
C                 -0.8296660000      0.8997670000      0.2185160000
C                 -0.7711780000     -0.4524720000     -0.1651650000
C                 -2.0347590000     -1.2138780000     -0.4958450000
C                  0.4703340000     -1.1692760000     -0.3075700000
O                  0.5353810000     -2.4123910000     -0.6944120000
C                 -2.1565980000      1.6108390000      0.3496430000
H                  3.1142990000     -1.5010270000     -1.1723840000
H                  3.8152480000     -0.4118020000      0.0508760000
H                  3.0699970000     -1.9665480000      0.5114360000
H                  2.4939250000      1.4691300000      0.6282390000
H                 -2.7966770000     -1.1278520000      0.2914780000
H                 -1.7734430000     -2.2659690000     -0.6373110000
H                 -2.5158030000     -0.8596050000     -1.4280400000
H                 -2.7656750000      1.2301940000      1.1926850000
H                 -1.9584650000      2.6700640000      0.5353830000
H                 -2.7830060000      1.5085110000     -0.5478520000
$end
$rem
MAX_SCF_CYCLES=200
BASIS  =  6-311++G(d,p)
GUI  =  2
JOB_TYPE  =  SP
METHOD  =  B3LYP
SOLVENT_METHOD = PCM
$end
$pcm
theory = CPCM
$end
$solvent
dielectric 37.219
opticaldielectric 1.43
$end

--------------------------------------------------------------

             Standard Nuclear Orientation (Angstroms)
    I     Atom           X                Y                Z
 ----------------------------------------------------------------
    1      C       2.9832400000    -1.0980550000    -0.1543260000
    2      C       1.6504130000    -0.4079710000    -0.0031000000
    3      C       1.5766390000     0.9315490000     0.3814550000
    4      C       0.3557550000     1.6630690000     0.5256290000
    5      O       0.3200400000     2.9037210000     0.9206650000
    6      C      -0.8296660000     0.8997670000     0.2185160000
    7      C      -0.7711780000    -0.4524720000    -0.1651650000
    8      C      -2.0347590000    -1.2138780000    -0.4958450000
    9      C       0.4703340000    -1.1692760000    -0.3075700000
   10      O       0.5353810000    -2.4123910000    -0.6944120000
   11      C      -2.1565980000     1.6108390000     0.3496430000
   12      H       3.1142990000    -1.5010270000    -1.1723840000
   13      H       3.8152480000    -0.4118020000     0.0508760000
   14      H       3.0699970000    -1.9665480000     0.5114360000
   15      H       2.4939250000     1.4691300000     0.6282390000
   16      H      -2.7966770000    -1.1278520000     0.2914780000
   17      H      -1.7734430000    -2.2659690000    -0.6373110000
   18      H      -2.5158030000    -0.8596050000    -1.4280400000
   19      H      -2.7656750000     1.2301940000     1.1926850000
   20      H      -1.9584650000     2.6700640000     0.5353830000
   21      H      -2.7830060000     1.5085110000    -0.5478520000
 ----------------------------------------------------------------

   10    -499.8052921413      2.22e-06  Convergence criterion met
 Total energy in the final basis set =     -499.8052921413

                    Orbital Energies (a.u.)
 --------------------------------------------------------------

 Alpha MOs
 -- Occupied --
-19.0092 -19.0084 -10.1576 -10.1544 -10.1363 -10.1314 -10.1314 -10.1205
-10.1195 -10.1178 -10.1099  -0.9210  -0.9176  -0.7799  -0.7431  -0.6911
 -0.6739  -0.6206  -0.5971  -0.5200  -0.4972  -0.4489  -0.4096  -0.4008
 -0.3847  -0.3814  -0.3764  -0.3674  -0.3571  -0.3475  -0.3459  -0.3350
 -0.3235  -0.3014  -0.2971  -0.2968  -0.2152  -0.1929  -0.1903  -0.1848
 -0.1092

          Ground-State Mulliken Net Atomic Charges

     Atom                 Charge (a.u.)
  ----------------------------------------
      1 C                    -0.368807
      2 C                     0.908863
      3 C                    -0.609890
      4 C                    -0.812706
      5 O                    -0.773614
      6 C                     0.710268
      7 C                     0.306211
      8 C                    -0.633814
      9 C                    -0.783016
     10 O                    -0.765290
     11 C                    -0.535836
     12 H                     0.136750
     13 H                     0.136768
     14 H                     0.138547
     15 H                     0.092751
     16 H                     0.128213
     17 H                     0.161599
     18 H                     0.138123
     19 H                     0.139061
     20 H                     0.156014
     21 H                     0.129807
  ----------------------------------------
  Sum of atomic charges =    -2.000000

                    Cartesian Multipole Moments
 -----------------------------------------------------------------
    Charge (ESU x 10^10)
                -9.6064
    Dipole Moment (Debye)
         X      -4.1807      Y      -2.6620      Z      -1.1680
       Tot       5.0920
    Quadrupole Moments (Debye-Ang)
        XX     -81.4663     XY       1.3296     YY    -136.1297
        XZ       0.0794     YZ     -18.3386     ZZ     -81.4849

 Total job time:  28.73s(wall), 156.10s(cpu)
        *  Thank you very much for using Q-Chem.  Have a nice day.  *
