 Gaussian 16, Revision A.03,
 Gaussian 16:  ES64L-G16RevA.03 25-Dec-2016

 ----------------------------------------------------------------
 #P UB3LYP/6-311++G(d,p) SCRF=(PCM,Solvent=n,n-DiMethylFormamide)
 ----------------------------------------------------------------

 -------
 Reduced
 -------
 Symbolic Z-matrix:
 Charge = -2 Multiplicity = 1

                         Standard orientation:
 ---------------------------------------------------------------------
 Center     Atomic      Atomic             Coordinates (Angstroms)
 Number     Number       Type             X           Y           Z
 ---------------------------------------------------------------------
      1          7           0        2.740239   -2.221267   -0.149760
      2          6           0        2.487594   -0.841014   -0.036343
      3          6           0        3.545474    0.056819    0.028304
      4          6           0        3.306592    1.456750    0.066260
      5          6           0        2.018888    1.936002    0.028440
      6          6           0        0.896991    1.060874   -0.018320
      7          6           0       -0.422980    1.654722   -0.023948
      8          8           0       -0.612820    2.929285   -0.024461
      9          6           0       -1.513182    0.708280   -0.017764
     10          6           0       -2.850606    1.182586   -0.015925
     11          6           0       -3.937564    0.333310    0.003649
     12          6           0       -3.724696   -1.077021    0.024117
     13          6           0       -2.437925   -1.572492    0.025185
     14          6           0       -1.295791   -0.726111    0.002561
     15          6           0        0.016500   -1.312893    0.003339
     16          8           0        0.167913   -2.614486    0.049641
     17          6           0        1.117238   -0.379285   -0.032670
     18          1           0        3.520631   -2.526663    0.416807
     19          1           0        1.848183   -2.735834    0.001571
     20          1           0        4.563844   -0.329495   -0.002061
     21          1           0        4.150870    2.144074    0.112296
     22          1           0        1.799984    2.998256    0.042563
     23          1           0       -2.974908    2.261499   -0.028794
     24          1           0       -4.950506    0.733841    0.003486
     25          1           0       -4.575044   -1.757735    0.038403
     26          1           0       -2.244670   -2.640626    0.041303
 ---------------------------------------------------------------------

 SCF Done:  E(UB3LYP) =  -744.569119976     A.U. after   17 cycles

 The electronic state is 1-A.
 Alpha  occ. eigenvalues --  -19.02511 -19.01791 -14.27614 -10.18664 -10.17713
 Alpha  occ. eigenvalues --  -10.17153 -10.14902 -10.14852 -10.14579 -10.14543
 Alpha  occ. eigenvalues --  -10.14516 -10.14107 -10.13569 -10.13485 -10.13461
 Alpha  occ. eigenvalues --  -10.13425 -10.13223  -0.94127  -0.93416  -0.87865
 Alpha  occ. eigenvalues --   -0.82367  -0.80313  -0.74970  -0.72221  -0.70369
 Alpha  occ. eigenvalues --   -0.69823  -0.63489  -0.60473  -0.59056  -0.55093
 Alpha  occ. eigenvalues --   -0.52465  -0.51326  -0.49434  -0.46605  -0.44282
 Alpha  occ. eigenvalues --   -0.43865  -0.42923  -0.41426  -0.40454  -0.39644
 Alpha  occ. eigenvalues --   -0.38174  -0.37320  -0.36562  -0.35825  -0.34928
 Alpha  occ. eigenvalues --   -0.34655  -0.32687  -0.32418  -0.31371  -0.30623
 Alpha  occ. eigenvalues --   -0.30005  -0.27827  -0.22889  -0.22485  -0.21416
 Alpha  occ. eigenvalues --   -0.20616  -0.19616  -0.18664  -0.10582
 Alpha virt. eigenvalues --   -0.02141   0.00076   0.00321   0.00769   0.01380
 Alpha virt. eigenvalues --    0.02419   0.02469   0.02706   0.04394   0.04629
 Alpha virt. eigenvalues --    0.04913   0.05031   0.06292   0.06717   0.06956

  Beta  occ. eigenvalues --  -19.02511 -19.01791 -14.27614 -10.18664 -10.17713
  Beta  occ. eigenvalues --  -10.17153 -10.14902 -10.14852 -10.14579 -10.14543
  Beta  occ. eigenvalues --  -10.14516 -10.14107 -10.13569 -10.13485 -10.13461
  Beta  occ. eigenvalues --  -10.13425 -10.13223  -0.94127  -0.93416  -0.87865
  Beta  occ. eigenvalues --   -0.82367  -0.80313  -0.74970  -0.72221  -0.70369
  Beta  occ. eigenvalues --   -0.69823  -0.63489  -0.60473  -0.59056  -0.55093
  Beta  occ. eigenvalues --   -0.52465  -0.51326  -0.49434  -0.46605  -0.44282
  Beta  occ. eigenvalues --   -0.43865  -0.42923  -0.41426  -0.40454  -0.39644
  Beta  occ. eigenvalues --   -0.38174  -0.37320  -0.36562  -0.35825  -0.34928
  Beta  occ. eigenvalues --   -0.34655  -0.32687  -0.32418  -0.31371  -0.30623
  Beta  occ. eigenvalues --   -0.30005  -0.27827  -0.22889  -0.22485  -0.21416
  Beta  occ. eigenvalues --   -0.20616  -0.19616  -0.18664  -0.10582
  Beta virt. eigenvalues --   -0.02141   0.00076   0.00321   0.00769   0.01380
  Beta virt. eigenvalues --    0.02419   0.02469   0.02706   0.04394   0.04629
  Beta virt. eigenvalues --    0.04913   0.05031   0.06292   0.06717   0.06956

 Mulliken charges and spin densities:
               1          2
     1  N   -0.471923   0.000000
     2  C    0.116816  -0.000000
     3  C   -0.314149   0.000000
     4  C   -0.483176   0.000000
     5  C   -0.140868  -0.000000
     6  C    0.473201  -0.000000
     7  C   -0.456447   0.000000
     8  O   -0.658801  -0.000000
     9  C    0.067225   0.000000
    10  C    0.001900  -0.000000
    11  C   -0.476521   0.000000
    12  C   -0.530541   0.000000
    13  C    0.062016   0.000000
    14  C    0.106466   0.000000
    15  C   -0.408342  -0.000000
    16  O   -0.632199  -0.000000
    17  C    0.155676   0.000000
    18  H    0.243152  -0.000000
    19  H    0.311350   0.000000
    20  H    0.140936   0.000000
    21  H    0.155527   0.000000
    22  H    0.136434  -0.000000
    23  H    0.141603   0.000000
    24  H    0.155624  -0.000000
    25  H    0.154995  -0.000000
    26  H    0.150045   0.000000
 Sum of Mulliken charges =  -2.00000   0.00000

 Dipole moment (field-independent basis, Debye):
    X=              1.2368    Y=             -2.8803    Z=              1.2220  Tot=              3.3644
 Quadrupole moment (field-independent basis, Debye-Ang):
   XX=           -127.7418   YY=           -159.4178   ZZ=           -113.2752
   XY=              3.9271   XZ=              4.2373   YZ=             -2.8453

 Normal termination of Gaussian 16 at Sun Jan 14 01:29:53 2024.
