 Q-Chem 5.4, Q-Chem, Inc., Pleasanton, CA (2021)
 Q-Chem 5.4.0 for Intel X86 EM64T Linux

User input:
--------------------------------------------------------------
$molecule
0 1
C                  3.3234690000     -0.9581070000     -0.0974500000
O                  1.9235980000     -1.1375320000      0.0929460000
C                  1.0866860000     -0.0989330000     -0.0876530000
C                  1.5354490000      1.1767980000     -0.4621950000
C                  0.6360260000      2.2218020000     -0.6375860000
C                 -0.7247290000      2.0223570000     -0.4451050000
C                 -1.1876560000      0.7618460000     -0.0731140000
C                 -2.6655010000      0.6004400000      0.1220080000
O                 -3.4399300000      1.5306530000     -0.0372700000
C                 -3.1600160000     -0.7321050000      0.5170690000
C                 -2.3204900000     -1.7581620000      0.6932030000
C                 -0.8456730000     -1.6527370000      0.5112720000
O                 -0.1683800000     -2.6506140000      0.6954410000
C                 -0.3009210000     -0.3226920000      0.1135140000
H                  3.7668320000     -1.9304680000      0.1070670000
H                  3.5522940000     -0.6627250000     -1.1264250000
H                  3.7301070000     -0.2185560000      0.5997880000
H                  2.5900620000      1.3554420000     -0.6175510000
H                  1.0072530000      3.1984200000     -0.9271980000
H                 -1.4416370000      2.8221010000     -0.5762330000
H                 -4.2323530000     -0.8219720000      0.6523850000
H                 -2.6644920000     -2.7452560000      0.9830880000
$end
$rem
MAX_SCF_CYCLES=200
BASIS  =  6-311++G(d,p)
GUI  =  2
JOB_TYPE  =  SP
METHOD  =  B3LYP
SOLVENT_METHOD = PCM
$end
$pcm
theory = CPCM
$end
$solvent
dielectric 37.219
opticaldielectric 1.43
$end

--------------------------------------------------------------

             Standard Nuclear Orientation (Angstroms)
    I     Atom           X                Y                Z
 ----------------------------------------------------------------
    1      C       3.3234690000    -0.9581070000    -0.0974500000
    2      O       1.9235980000    -1.1375320000     0.0929460000
    3      C       1.0866860000    -0.0989330000    -0.0876530000
    4      C       1.5354490000     1.1767980000    -0.4621950000
    5      C       0.6360260000     2.2218020000    -0.6375860000
    6      C      -0.7247290000     2.0223570000    -0.4451050000
    7      C      -1.1876560000     0.7618460000    -0.0731140000
    8      C      -2.6655010000     0.6004400000     0.1220080000
    9      O      -3.4399300000     1.5306530000    -0.0372700000
   10      C      -3.1600160000    -0.7321050000     0.5170690000
   11      C      -2.3204900000    -1.7581620000     0.6932030000
   12      C      -0.8456730000    -1.6527370000     0.5112720000
   13      O      -0.1683800000    -2.6506140000     0.6954410000
   14      C      -0.3009210000    -0.3226920000     0.1135140000
   15      H       3.7668320000    -1.9304680000     0.1070670000
   16      H       3.5522940000    -0.6627250000    -1.1264250000
   17      H       3.7301070000    -0.2185560000     0.5997880000
   18      H       2.5900620000     1.3554420000    -0.6175510000
   19      H       1.0072530000     3.1984200000    -0.9271980000
   20      H      -1.4416370000     2.8221010000    -0.5762330000
   21      H      -4.2323530000    -0.8219720000     0.6523850000
   22      H      -2.6644920000    -2.7452560000     0.9830880000
 ----------------------------------------------------------------

    9    -649.8243463013      1.98e-06  Convergence criterion met
 Total energy in the final basis set =     -649.8243463013

                    Orbital Energies (a.u.)
 --------------------------------------------------------------

 Alpha MOs
 -- Occupied --
-19.1722 -19.1362 -19.1308 -10.2844 -10.2834 -10.2667 -10.2240 -10.2100
-10.2091 -10.2089 -10.2064 -10.1990 -10.1946 -10.1906  -1.0929  -1.0692
 -1.0636  -0.8877  -0.8383  -0.7846  -0.7769  -0.7169  -0.6981  -0.6476
 -0.6399  -0.5850  -0.5462  -0.5396  -0.5178  -0.5045  -0.4860  -0.4835
 -0.4694  -0.4629  -0.4492  -0.4379  -0.4272  -0.4225  -0.4190  -0.3934
 -0.3898  -0.3839  -0.3528  -0.3425  -0.3078  -0.2869  -0.2827  -0.2709
 -0.2489

          Ground-State Mulliken Net Atomic Charges

     Atom                 Charge (a.u.)
  ----------------------------------------
      1 C                    -0.307043
      2 O                    -0.155452
      3 C                     0.327812
      4 C                     0.015702
      5 C                    -0.399096
      6 C                     0.065366
      7 C                    -0.053954
      8 C                    -0.267526
      9 O                    -0.315295
     10 C                    -0.209584
     11 C                     0.003604
     12 C                    -0.364776
     13 O                    -0.317576
     14 C                     0.251620
     15 H                     0.208814
     16 H                     0.180671
     17 H                     0.180461
     18 H                     0.230754
     19 H                     0.238427
     20 H                     0.188490
     21 H                     0.251273
     22 H                     0.247306
  ----------------------------------------
  Sum of atomic charges =     0.000000

                    Cartesian Multipole Moments
 -----------------------------------------------------------------
    Charge (ESU x 10^10)
                 0.0000
    Dipole Moment (Debye)
         X       4.2372      Y       1.9010      Z      -0.9161
       Tot       4.7336
    Quadrupole Moments (Debye-Ang)
        XX     -70.4713     XY      14.7024     YY     -87.6243
        XZ      -4.9476     YZ      -0.0216     ZZ     -81.1605

 Total job time:  41.83s(wall), 210.72s(cpu)
        *  Thank you very much for using Q-Chem.  Have a nice day.  *
