 Q-Chem 5.4, Q-Chem, Inc., Pleasanton, CA (2021)
 Q-Chem 5.4.0 for Intel X86 EM64T Linux

User input:
--------------------------------------------------------------
$molecule
0 1
C                 -1.7435860000      1.4579360000      1.0133250000
C                 -2.9848160000      0.6889460000      0.7914970000
C                 -3.0408480000     -0.5194970000      0.2076680000
C                 -1.7445800000     -1.1336290000     -0.2533610000
C                 -0.4607710000     -0.3648040000     -0.0361180000
C                 -0.4527790000      0.8469640000      0.5550450000
O                 -1.7120980000     -2.2219650000     -0.7900160000
O                 -1.7871350000      2.5478180000      1.5509890000
I                  1.2450140000      2.0136230000      0.9152490000
I                  1.2515930000     -1.3527820000     -0.7303510000
H                 -3.8680390000      1.1999380000      1.1507370000
C                 -4.3484970000     -1.2910800000     -0.0077380000
C                 -5.5552210000     -0.4985410000      0.5298060000
C                 -4.2914960000     -2.6441120000      0.7453490000
C                 -4.5727880000     -1.5346850000     -1.5214890000
H                 -5.6774420000      0.4613740000      0.0205170000
H                 -5.4807940000     -0.3140190000      1.6050580000
H                 -6.4653360000     -1.0781200000      0.3590760000
H                 -4.1319730000     -2.4879220000      1.8163180000
H                 -3.5003230000     -3.2872510000      0.3640380000
H                 -5.2457510000     -3.1641520000      0.6230540000
H                 -4.6139170000     -0.5872650000     -2.0669360000
H                 -5.5297730000     -2.0439800000     -1.6658090000
H                 -3.7879020000     -2.1531750000     -1.9532260000
$end

$rem
BASIS  =  6-311++G(d,p)
GUI  =  2
JOB_TYPE  =  SP
METHOD  =  B3LYP
SCF_CONVERGENCE  = 8
SOLVENT_METHOD = sm12
$end

$smx
solvent dimethylformamide
charges CM5
$end

--------------------------------------------------------------

             Standard Nuclear Orientation (Angstroms)
    I     Atom           X                Y                Z
 ----------------------------------------------------------------
    1      C      -1.7435860000     1.4579360000     1.0133250000
    2      C      -2.9848160000     0.6889460000     0.7914970000
    3      C      -3.0408480000    -0.5194970000     0.2076680000
    4      C      -1.7445800000    -1.1336290000    -0.2533610000
    5      C      -0.4607710000    -0.3648040000    -0.0361180000
    6      C      -0.4527790000     0.8469640000     0.5550450000
    7      O      -1.7120980000    -2.2219650000    -0.7900160000
    8      O      -1.7871350000     2.5478180000     1.5509890000
    9      I       1.2450140000     2.0136230000     0.9152490000
   10      I       1.2515930000    -1.3527820000    -0.7303510000
   11      H      -3.8680390000     1.1999380000     1.1507370000
   12      C      -4.3484970000    -1.2910800000    -0.0077380000
   13      C      -5.5552210000    -0.4985410000     0.5298060000
   14      C      -4.2914960000    -2.6441120000     0.7453490000
   15      C      -4.5727880000    -1.5346850000    -1.5214890000
   16      H      -5.6774420000     0.4613740000     0.0205170000
   17      H      -5.4807940000    -0.3140190000     1.6050580000
   18      H      -6.4653360000    -1.0781200000     0.3590760000
   19      H      -4.1319730000    -2.4879220000     1.8163180000
   20      H      -3.5003230000    -3.2872510000     0.3640380000
   21      H      -5.2457510000    -3.1641520000     0.6230540000
   22      H      -4.6139170000    -0.5872650000    -2.0669360000
   23      H      -5.5297730000    -2.0439800000    -1.6658090000
   24      H      -3.7879020000    -2.1531750000    -1.9532260000
 ----------------------------------------------------------------

   14  -14376.6795432099      9.75e-09  Convergence criterion met
 Total energy in the final basis set =   -14376.6946339025

                    Orbital Energies (a.u.)
 --------------------------------------------------------------

 Alpha MOs
 -- Occupied --
*****************-176.3162-176.3152-165.7200-165.7190-165.7180-165.7177
********-165.7166 -35.8127 -35.8117 -31.3060 -31.3049 -31.3002 -31.2994
-31.2992 -31.2983 -22.9565 -22.9554 -22.9552 -22.9547 -22.9542 -22.9536
-22.9506 -22.9506 -22.9496 -22.9496 -19.1547 -19.1514 -10.3073 -10.3020
-10.2656 -10.2640 -10.2313 -10.2155 -10.2108 -10.1657 -10.1654 -10.1653
 -6.3620  -6.3611  -4.7746  -4.7736  -4.7604  -4.7594  -4.7585  -4.7575
 -2.0408  -2.0396  -2.0361  -2.0354  -2.0347  -2.0338  -2.0226  -2.0224
 -2.0216  -2.0214  -1.0915  -1.0852  -0.8867  -0.8486  -0.7938  -0.7342
 -0.7012  -0.6956  -0.6844  -0.6730  -0.6154  -0.6057  -0.5592  -0.5456
 -0.5030  -0.4831  -0.4727  -0.4675  -0.4505  -0.4486  -0.4393  -0.4320
 -0.4169  -0.3962  -0.3909  -0.3869  -0.3751  -0.3671  -0.3582  -0.3492
 -0.3451  -0.3086  -0.3024  -0.2952  -0.2924  -0.2907  -0.2621  -0.2562

          Ground-State Mulliken Net Atomic Charges

     Atom                 Charge (a.u.)
  ----------------------------------------
      1 C                    -1.514677
      2 C                    -0.050173
      3 C                     1.525573
      4 C                    -1.260650
      5 C                    -0.230926
      6 C                     0.673931
      7 O                    -0.144839
      8 O                    -0.223141
      9 I                     0.127305
     10 I                     0.137162
     11 H                     0.310891
     12 C                     0.565047
     13 C                     0.000603
     14 C                    -0.682780
     15 C                    -0.683410
     16 H                     0.161309
     17 H                     0.161201
     18 H                     0.211908
     19 H                     0.139837
     20 H                     0.117968
     21 H                     0.199907
     22 H                     0.140023
     23 H                     0.199824
     24 H                     0.118108
  ----------------------------------------
  Sum of atomic charges =     0.000000

                    Cartesian Multipole Moments
 -----------------------------------------------------------------
    Charge (ESU x 10^10)
                 0.0000
    Dipole Moment (Debye)
         X      -2.1829      Y      -1.0993      Z      -0.2649
       Tot       2.4584
    Quadrupole Moments (Debye-Ang)
        XX    -107.6753     XY       4.7441     YY    -138.6585
        XZ      -0.3850     YZ      -5.8812     ZZ    -130.8562

 Total job time:  434.19s(wall), 3342.88s(cpu)
        *  Thank you very much for using Q-Chem.  Have a nice day.  *
