 Q-Chem 5.4, Q-Chem, Inc., Pleasanton, CA (2021)
 Q-Chem 5.4.0 for Intel X86 EM64T Linux

User input:
--------------------------------------------------------------
$molecule
-2 1
C                  0.0778990000      1.7571840000      0.0001870000
C                 -1.1243860000      0.9211170000     -0.0007070000
C                 -1.1124890000     -0.4549000000      0.0002200000
C                  0.1040730000     -1.2700490000      0.0018790000
C                  1.2955990000     -0.4703430000      0.0028020000
C                  1.2830750000      0.9782040000      0.0018770000
O                  0.0231990000      3.0199240000     -0.0014230000
O                  0.0712140000     -2.5335450000      0.0034730000
C                  2.5006280000      1.6997060000      0.0027580000
C                  2.5254350000     -1.1706940000      0.0045870000
N                  3.5048830000      2.2902190000      0.0034350000
N                  3.5397370000     -1.7437790000      0.0061210000
Cl                -2.6572820000      1.8154680000     -0.0029500000
Cl                -2.6296940000     -1.3756220000     -0.0007700000
$end
$rem
MAX_SCF_CYCLES=200
BASIS  =  6-311++G(d,p)
GUI  =  2
JOB_TYPE  =  SP
METHOD  =  B3LYP
SOLVENT_METHOD = PCM
$end
$pcm
theory = CPCM
$end
$solvent
dielectric 37.219
opticaldielectric 1.43
$end

--------------------------------------------------------------

             Standard Nuclear Orientation (Angstroms)
    I     Atom           X                Y                Z
 ----------------------------------------------------------------
    1      C       0.0778990000     1.7571840000     0.0001870000
    2      C      -1.1243860000     0.9211170000    -0.0007070000
    3      C      -1.1124890000    -0.4549000000     0.0002200000
    4      C       0.1040730000    -1.2700490000     0.0018790000
    5      C       1.2955990000    -0.4703430000     0.0028020000
    6      C       1.2830750000     0.9782040000     0.0018770000
    7      O       0.0231990000     3.0199240000    -0.0014230000
    8      O       0.0712140000    -2.5335450000     0.0034730000
    9      C       2.5006280000     1.6997060000     0.0027580000
   10      C       2.5254350000    -1.1706940000     0.0045870000
   11      N       3.5048830000     2.2902190000     0.0034350000
   12      N       3.5397370000    -1.7437790000     0.0061210000
   13      Cl     -2.6572820000     1.8154680000    -0.0029500000
   14      Cl     -2.6296940000    -1.3756220000    -0.0007700000
 ----------------------------------------------------------------

   10   -1485.6680714082      2.42e-06  Convergence criterion met
 Total energy in the final basis set =    -1485.6680714082

                    Orbital Energies (a.u.)
 --------------------------------------------------------------

 Alpha MOs
 -- Occupied --
********-101.5516 -19.0588 -19.0588 -14.3015 -14.3015 -10.2339 -10.2333
-10.2313 -10.2313 -10.2079 -10.2079 -10.1886 -10.1882  -9.4659  -9.4659
 -7.2303  -7.2303  -7.2212  -7.2212  -7.2201  -7.2201  -0.9906  -0.9866
 -0.9051  -0.8991  -0.8861  -0.8400  -0.8199  -0.7407  -0.7143  -0.6323
 -0.6015  -0.5069  -0.5062  -0.4995  -0.4453  -0.4271  -0.4088  -0.4017
 -0.3971  -0.3776  -0.3770  -0.3721  -0.3705  -0.3460  -0.3347  -0.3326
 -0.3312  -0.3242  -0.3230  -0.3019  -0.2613  -0.2418  -0.2411  -0.2379
 -0.1633

          Ground-State Mulliken Net Atomic Charges

     Atom                 Charge (a.u.)
  ----------------------------------------
      1 C                    -1.521266
      2 C                     0.748940
      3 C                     0.748982
      4 C                    -1.520717
      5 C                     1.809247
      6 C                     1.809745
      7 O                    -0.554303
      8 O                    -0.554357
      9 C                    -1.456982
     10 C                    -1.457706
     11 N                    -0.383092
     12 N                    -0.383002
     13 Cl                    0.357128
     14 Cl                    0.357385
  ----------------------------------------
  Sum of atomic charges =    -2.000000

                    Cartesian Multipole Moments
 -----------------------------------------------------------------
    Charge (ESU x 10^10)
                -9.6064
    Dipole Moment (Debye)
         X     -10.6624      Y      -2.4236      Z      -0.0209
       Tot      10.9344
    Quadrupole Moments (Debye-Ang)
        XX    -160.6125     XY      -2.5344     YY    -167.4682
        XZ      -0.0794     YZ       0.0515     ZZ     -97.2502

 Total job time:  19.74s(wall), 145.73s(cpu)
        *  Thank you very much for using Q-Chem.  Have a nice day.  *
