 Gaussian 16, Revision A.03,
 Gaussian 16:  ES64L-G16RevA.03 25-Dec-2016

 ----------------------------------------------------------------
 #P UB3LYP/6-311++G(d,p) SCRF=(PCM,Solvent=n,n-DiMethylFormamide)
 ----------------------------------------------------------------

 ------------------
 Quinone PCM in DMF
 ------------------
 Symbolic Z-matrix:
 Charge =  0 Multiplicity = 1

                         Standard orientation:
 ---------------------------------------------------------------------
 Center     Atomic      Atomic             Coordinates (Angstroms)
 Number     Number       Type             X           Y           Z
 ---------------------------------------------------------------------
      1          6           0        2.007791   -1.590560    0.000320
      2          6           0        0.794434   -0.712841    0.000049
      3          6           0       -0.469118   -1.175573   -0.000242
      4          6           0       -1.648804   -0.283467   -0.000100
      5          8           0       -2.785590   -0.729962   -0.000122
      6          6           0       -1.401810    1.181191    0.000179
      7          6           0       -0.154649    1.666357    0.000366
      8          6           0        1.027988    0.769012   -0.000041
      9          8           0        2.158363    1.227794   -0.000507
     10          1           0        2.630411   -1.384813    0.875428
     11          1           0        2.631421   -1.384099   -0.873884
     12          1           0        1.729009   -2.644785   -0.000227
     13          1           0       -0.689851   -2.238167   -0.000387
     14          1           0       -2.281197    1.815714    0.000313
     15          1           0        0.063026    2.728777    0.000601
 ---------------------------------------------------------------------

 SCF Done:  E(UB3LYP) =  -420.903380369     A.U. after   14 cycles

 The electronic state is 1-A.
 Alpha  occ. eigenvalues --  -19.14694 -19.14368 -10.29008 -10.28792 -10.22345
 Alpha  occ. eigenvalues --  -10.21437 -10.21353 -10.20579 -10.18010  -1.07747
 Alpha  occ. eigenvalues --   -1.07309  -0.86864  -0.81067  -0.73317  -0.69678
 Alpha  occ. eigenvalues --   -0.63243  -0.59703  -0.52960  -0.51253  -0.48705
 Alpha  occ. eigenvalues --   -0.46175  -0.45736  -0.44623  -0.43233  -0.42896
 Alpha  occ. eigenvalues --   -0.41174  -0.40638  -0.39457  -0.31501  -0.29457
 Alpha  occ. eigenvalues --   -0.29452  -0.28269
 Alpha virt. eigenvalues --   -0.13768  -0.03125  -0.00541  -0.00450   0.00800
 Alpha virt. eigenvalues --    0.01369   0.03299   0.03550   0.03643   0.05497
 Alpha virt. eigenvalues --    0.06668   0.06670   0.07194   0.07429   0.09069

  Beta  occ. eigenvalues --  -19.14694 -19.14368 -10.29008 -10.28792 -10.22345
  Beta  occ. eigenvalues --  -10.21437 -10.21353 -10.20579 -10.18010  -1.07747
  Beta  occ. eigenvalues --   -1.07309  -0.86864  -0.81067  -0.73317  -0.69678
  Beta  occ. eigenvalues --   -0.63243  -0.59703  -0.52960  -0.51253  -0.48705
  Beta  occ. eigenvalues --   -0.46175  -0.45736  -0.44623  -0.43233  -0.42896
  Beta  occ. eigenvalues --   -0.41174  -0.40638  -0.39457  -0.31501  -0.29457
  Beta  occ. eigenvalues --   -0.29452  -0.28269
  Beta virt. eigenvalues --   -0.13768  -0.03125  -0.00541  -0.00450   0.00800
  Beta virt. eigenvalues --    0.01369   0.03299   0.03550   0.03643   0.05497
  Beta virt. eigenvalues --    0.06668   0.06670   0.07194   0.07429   0.09069

 Mulliken charges and spin densities:
               1          2
     1  C   -0.379004   0.000000
     2  C    1.449276  -0.000000
     3  C   -0.878698  -0.000000
     4  C   -0.320453   0.000000
     5  O   -0.302076  -0.000000
     6  C    0.131959  -0.000000
     7  C    0.201623  -0.000000
     8  C   -0.873977   0.000000
     9  O   -0.269289  -0.000000
    10  H    0.187649   0.000000
    11  H    0.187551   0.000000
    12  H    0.169230  -0.000000
    13  H    0.210989   0.000000
    14  H    0.243286  -0.000000
    15  H    0.241933  -0.000000
 Sum of Mulliken charges =  -0.00000   0.00000

 Dipole moment (field-independent basis, Debye):
    X=              1.0033    Y=             -0.2465    Z=              0.0018  Tot=              1.0331
 Quadrupole moment (field-independent basis, Debye-Ang):
   XX=            -68.4593   YY=            -47.0859   ZZ=            -52.0765
   XY=            -11.6336   XZ=              0.0029   YZ=              0.0023

 Normal termination of Gaussian 16 at Sun Jan 21 06:56:15 2024.
