 Gaussian 16, Revision A.03,
 Gaussian 16:  ES64L-G16RevA.03 25-Dec-2016

 ----------------------------------------------------------------
 #P UB3LYP/6-311++G(d,p) SCRF=(PCM,Solvent=n,n-DiMethylFormamide)
 ----------------------------------------------------------------

 ------------------
 Quinone PCM in DMF
 ------------------
 Symbolic Z-matrix:
 Charge = -1 Multiplicity = 1

                         Standard orientation:
 ---------------------------------------------------------------------
 Center     Atomic      Atomic             Coordinates (Angstroms)
 Number     Number       Type             X           Y           Z
 ---------------------------------------------------------------------
      1          6           0        3.893480   -2.252405   -0.102509
      2          6           0        5.201527   -1.788306   -0.128404
      3          6           0        5.460833   -0.414753   -0.054162
      4          6           0        2.827108   -1.348852   -0.010395
      5          6           0        3.086576    0.021704    0.064750
      6          6           0        4.408451    0.484368    0.047794
      7          6           0        1.429570   -1.869196    0.018133
      8          6           0        1.974535    1.009339    0.183644
      9          6           0        0.325026   -0.916935    0.033579
     10          6           0        0.576321    0.504107    0.056780
     11          6           0       -1.021099   -1.414752   -0.022910
     12          6           0       -2.094841   -0.465596   -0.059451
     13          6           0       -1.828505    0.875303   -0.089501
     14          6           0       -0.512524    1.368186   -0.027256
     15          8           0        1.273946   -3.101773    0.009165
     16          8           0        2.247044    2.184454    0.382111
     17          1           0        3.664923   -3.309514   -0.151599
     18          1           0        6.023858   -2.491844   -0.204728
     19          1           0        6.483374   -0.053108   -0.073714
     20          1           0        4.578911    1.551627    0.115794
     21         35           0       -0.406729    3.287734   -0.098377
     22          7           0       -1.308761   -2.724556   -0.054442
     23         16           0       -3.858661   -0.987406    0.039667
     24          8           0       -3.909486   -2.220514   -0.802304
     25          8           0       -4.059312   -1.250558    1.480844
     26          8           0       -4.614936    0.156919   -0.504299
     27          1           0       -2.663530    1.561188   -0.152230
     28          1           0       -0.535747   -3.376370   -0.061397
     29          1           0       -2.273164   -2.983788   -0.267224
 ---------------------------------------------------------------------

 SCF Done:  E(UB3LYP) =  -3941.34410447     A.U. after   16 cycles

 The electronic state is 1-A.
 Alpha  occ. eigenvalues -- -482.83626 -89.05906 -62.48900 -56.30946 -56.30562
 Alpha  occ. eigenvalues --  -56.30513 -19.12810 -19.12355 -19.10412 -19.10317
 Alpha  occ. eigenvalues --  -19.10168 -14.33077 -10.28386 -10.27775 -10.25802
 Alpha  occ. eigenvalues --  -10.24947 -10.22423 -10.21685 -10.21053 -10.20883
 Alpha  occ. eigenvalues --  -10.20437 -10.20368 -10.19590 -10.19518 -10.19428
 Alpha  occ. eigenvalues --  -10.19321  -8.69869  -8.11771  -6.53034  -6.51761
 Alpha  occ. eigenvalues --   -6.51620  -6.08041  -6.08020  -6.07971  -2.64122
 Alpha  occ. eigenvalues --   -2.63786  -2.63680  -2.62666  -2.62664  -1.12464
 Alpha  occ. eigenvalues --   -1.06431  -1.05551  -0.99113  -0.98650  -0.94977
 Alpha  occ. eigenvalues --   -0.89157  -0.88100  -0.82218  -0.80710  -0.77501
 Alpha  occ. eigenvalues --   -0.77475  -0.74015  -0.69420  -0.67423  -0.65586
 Alpha  occ. eigenvalues --   -0.62274  -0.59786  -0.58639  -0.57713  -0.54971
 Alpha  occ. eigenvalues --   -0.53431  -0.51016  -0.50721  -0.49817  -0.47786
 Alpha  occ. eigenvalues --   -0.47377  -0.46420  -0.46163  -0.45683  -0.45273
 Alpha  occ. eigenvalues --   -0.45118  -0.44755  -0.43567  -0.42021  -0.41888
 Alpha  occ. eigenvalues --   -0.40898  -0.39364  -0.38105  -0.37341  -0.36553
 Alpha  occ. eigenvalues --   -0.36062  -0.34701  -0.34573  -0.32040  -0.31324
 Alpha  occ. eigenvalues --   -0.31092  -0.30395  -0.30194  -0.28424  -0.27925
 Alpha  occ. eigenvalues --   -0.27550  -0.27487  -0.26853  -0.26100  -0.22665
 Alpha virt. eigenvalues --   -0.11783  -0.06843  -0.04140  -0.02379  -0.02062
 Alpha virt. eigenvalues --   -0.00425   0.00446   0.01151   0.01912   0.02312
 Alpha virt. eigenvalues --    0.02722   0.03554   0.03621   0.04023   0.04155

  Beta  occ. eigenvalues -- -482.83626 -89.05906 -62.48900 -56.30946 -56.30562
  Beta  occ. eigenvalues --  -56.30513 -19.12810 -19.12355 -19.10412 -19.10317
  Beta  occ. eigenvalues --  -19.10168 -14.33077 -10.28386 -10.27775 -10.25802
  Beta  occ. eigenvalues --  -10.24947 -10.22423 -10.21685 -10.21053 -10.20883
  Beta  occ. eigenvalues --  -10.20437 -10.20368 -10.19590 -10.19518 -10.19428
  Beta  occ. eigenvalues --  -10.19321  -8.69869  -8.11771  -6.53034  -6.51761
  Beta  occ. eigenvalues --   -6.51620  -6.08041  -6.08020  -6.07971  -2.64122
  Beta  occ. eigenvalues --   -2.63786  -2.63680  -2.62666  -2.62664  -1.12464
  Beta  occ. eigenvalues --   -1.06431  -1.05551  -0.99113  -0.98650  -0.94977
  Beta  occ. eigenvalues --   -0.89157  -0.88100  -0.82218  -0.80710  -0.77501
  Beta  occ. eigenvalues --   -0.77475  -0.74015  -0.69420  -0.67423  -0.65586
  Beta  occ. eigenvalues --   -0.62274  -0.59786  -0.58639  -0.57713  -0.54971
  Beta  occ. eigenvalues --   -0.53431  -0.51016  -0.50721  -0.49817  -0.47786
  Beta  occ. eigenvalues --   -0.47377  -0.46420  -0.46163  -0.45683  -0.45273
  Beta  occ. eigenvalues --   -0.45118  -0.44755  -0.43567  -0.42021  -0.41888
  Beta  occ. eigenvalues --   -0.40898  -0.39364  -0.38105  -0.37341  -0.36553
  Beta  occ. eigenvalues --   -0.36062  -0.34701  -0.34573  -0.32040  -0.31324
  Beta  occ. eigenvalues --   -0.31092  -0.30395  -0.30194  -0.28424  -0.27925
  Beta  occ. eigenvalues --   -0.27550  -0.27487  -0.26853  -0.26100  -0.22665
  Beta virt. eigenvalues --   -0.11783  -0.06843  -0.04140  -0.02379  -0.02062
  Beta virt. eigenvalues --   -0.00425   0.00446   0.01151   0.01912   0.02312
  Beta virt. eigenvalues --    0.02722   0.03554   0.03621   0.04023   0.04155

 Mulliken charges and spin densities:
               1          2
     1  C    0.212582  -0.000000
     2  C   -0.465180  -0.000000
     3  C   -0.369865   0.000000
     4  C   -0.182384   0.000000
     5  C    0.173626  -0.000000
     6  C    0.176858  -0.000000
     7  C   -0.387020  -0.000000
     8  C   -1.137816  -0.000000
     9  C    0.309801   0.000000
    10  C    0.866094   0.000000
    11  C    0.287885  -0.000000
    12  C   -0.756336   0.000000
    13  C   -0.221109  -0.000000
    14  C    0.342771   0.000000
    15  O   -0.313299   0.000000
    16  O   -0.201106   0.000000
    17  H    0.187291   0.000000
    18  H    0.205847  -0.000000
    19  H    0.203817   0.000000
    20  H    0.185876   0.000000
    21  Br  -0.140911  -0.000000
    22  N   -0.437539   0.000000
    23  S    0.525174   0.000000
    24  O   -0.395814  -0.000000
    25  O   -0.319726   0.000000
    26  O   -0.299826   0.000000
    27  H    0.276256   0.000000
    28  H    0.357005  -0.000000
    29  H    0.317049  -0.000000
 Sum of Mulliken charges =  -1.00000   0.00000

 Dipole moment (field-independent basis, Debye):
    X=             18.9323    Y=              2.0035    Z=             -1.3544  Tot=             19.0861
 Quadrupole moment (field-independent basis, Debye-Ang):
   XX=           -210.9638   YY=           -169.3580   ZZ=           -158.3250
   XY=            -24.1585   XZ=              0.0684   YZ=              0.5967

 Normal termination of Gaussian 16 at Sun Jan 14 01:34:21 2024.
