 Q-Chem 5.4, Q-Chem, Inc., Pleasanton, CA (2021)
 Q-Chem 5.4.0 for Intel X86 EM64T Linux

User input:
--------------------------------------------------------------
$molecule
-1 2
Cl                 2.6393510000      3.1908290000     -0.5199480000
C                  2.4858320000      1.4525520000     -0.2082550000
C                  3.6866010000      0.7867280000     -0.0609760000
C                  3.6977400000     -0.5960380000      0.1899350000
C                  2.5066150000     -1.2792790000      0.2874560000
C                  1.2702030000     -0.6186640000      0.1403260000
C                  0.0652420000     -1.4600940000      0.2661560000
O                  0.1833100000     -2.6845040000      0.4907220000
C                 -1.2289630000     -0.7907270000      0.1161030000
C                 -2.4857380000     -1.4525140000      0.2082480000
Cl                -2.6388810000     -3.1908500000      0.5199580000
C                 -3.6865770000     -0.7867960000      0.0609940000
C                 -3.6978000000      0.5959610000     -0.1899160000
C                 -2.5067130000      1.2792940000     -0.2874610000
C                 -1.2702500000      0.6187470000     -0.1403500000
C                 -0.0653040000      1.4601830000     -0.2661890000
O                 -0.1835380000      2.6845720000     -0.4907380000
C                  1.2289640000      0.7908420000     -0.1161330000
H                  4.6120450000      1.3433740000     -0.1413930000
H                  4.6450960000     -1.1129550000      0.3045900000
H                  2.4729780000     -2.3441410000      0.4797310000
H                 -4.6119620000     -1.3435350000      0.1414340000
H                 -4.6451690000      1.1128580000     -0.3045610000
H                 -2.4730810000      2.3441550000     -0.4797340000
$end

$rem
BASIS  =  6-311++G(d,p)
GUI  =  2
JOB_TYPE  =  SP
METHOD  =  B3LYP
SCF_CONVERGENCE  = 8
SOLVENT_METHOD = sm12
$end

$smx
solvent dimethylformamide
charges CM5
$end

--------------------------------------------------------------

             Standard Nuclear Orientation (Angstroms)
    I     Atom           X                Y                Z
 ----------------------------------------------------------------
    1      Cl      2.6393510000     3.1908290000    -0.5199480000
    2      C       2.4858320000     1.4525520000    -0.2082550000
    3      C       3.6866010000     0.7867280000    -0.0609760000
    4      C       3.6977400000    -0.5960380000     0.1899350000
    5      C       2.5066150000    -1.2792790000     0.2874560000
    6      C       1.2702030000    -0.6186640000     0.1403260000
    7      C       0.0652420000    -1.4600940000     0.2661560000
    8      O       0.1833100000    -2.6845040000     0.4907220000
    9      C      -1.2289630000    -0.7907270000     0.1161030000
   10      C      -2.4857380000    -1.4525140000     0.2082480000
   11      Cl     -2.6388810000    -3.1908500000     0.5199580000
   12      C      -3.6865770000    -0.7867960000     0.0609940000
   13      C      -3.6978000000     0.5959610000    -0.1899160000
   14      C      -2.5067130000     1.2792940000    -0.2874610000
   15      C      -1.2702500000     0.6187470000    -0.1403500000
   16      C      -0.0653040000     1.4601830000    -0.2661890000
   17      O      -0.1835380000     2.6845720000    -0.4907380000
   18      C       1.2289640000     0.7908420000    -0.1161330000
   19      H       4.6120450000     1.3433740000    -0.1413930000
   20      H       4.6450960000    -1.1129550000     0.3045900000
   21      H       2.4729780000    -2.3441410000     0.4797310000
   22      H      -4.6119620000    -1.3435350000     0.1414340000
   23      H      -4.6451690000     1.1128580000    -0.3045610000
   24      H      -2.4730810000     2.3441550000    -0.4797340000
 ----------------------------------------------------------------

   18   -1608.2466904798      6.41e-09  Convergence criterion met
 Total energy in the final basis set =    -1608.3286926461

                    Orbital Energies (a.u.)
 --------------------------------------------------------------

 Alpha MOs
 -- Occupied --
********-101.5465 -19.0783 -19.0783 -10.2433 -10.2433 -10.2346 -10.2346
-10.1959 -10.1959 -10.1885 -10.1885 -10.1880 -10.1880 -10.1869 -10.1869
-10.1794 -10.1794  -9.4607  -9.4607  -7.2252  -7.2252  -7.2159  -7.2159
 -7.2149  -7.2149  -1.0115  -1.0092  -0.8916  -0.8903  -0.8441  -0.8337
 -0.7977  -0.7567  -0.7458  -0.7398  -0.6763  -0.6501  -0.6360  -0.5892
 -0.5571  -0.5539  -0.5334  -0.4861  -0.4821  -0.4743  -0.4738  -0.4369
 -0.4368  -0.4353  -0.4303  -0.4161  -0.4141  -0.4004  -0.3917  -0.3861
 -0.3685  -0.3669  -0.3646  -0.3535  -0.3312  -0.3283  -0.3140  -0.3102
 -0.2784  -0.2655  -0.2554  -0.2540  -0.2435  -0.2326  -0.1476

 Beta MOs
 -- Occupied --
********-101.5465 -19.0722 -19.0722 -10.2432 -10.2432 -10.2334 -10.2334
-10.1952 -10.1951 -10.1880 -10.1880 -10.1869 -10.1869 -10.1862 -10.1862
-10.1795 -10.1795  -9.4607  -9.4607  -7.2252  -7.2252  -7.2158  -7.2158
 -7.2149  -7.2149  -1.0012  -0.9986  -0.8900  -0.8895  -0.8424  -0.8329
 -0.7941  -0.7547  -0.7431  -0.7388  -0.6696  -0.6483  -0.6334  -0.5884
 -0.5550  -0.5515  -0.5321  -0.4847  -0.4797  -0.4736  -0.4721  -0.4363
 -0.4350  -0.4290  -0.4265  -0.4108  -0.4106  -0.3965  -0.3896  -0.3681
 -0.3662  -0.3633  -0.3580  -0.3516  -0.3253  -0.3234  -0.3130  -0.3097
 -0.2596  -0.2576  -0.2487  -0.2469  -0.2383  -0.2274

          Ground-State Mulliken Net Atomic Charges

     Atom                 Charge (a.u.)    Spin (a.u.)
  --------------------------------------------------------
      1 Cl                    0.623164      -0.000097
      2 C                     0.703062       0.030034
      3 C                     1.496695       0.037528
      4 C                     0.663424       0.048016
      5 C                     0.579563       0.027121
      6 C                    -0.722501       0.062931
      7 C                    -3.377187       0.041734
      8 O                    -0.178109       0.228305
      9 C                    -1.130215       0.032404
     10 C                     0.702839       0.030021
     11 Cl                    0.622991      -0.000099
     12 C                     1.496357       0.037536
     13 C                     0.663687       0.047993
     14 C                     0.579218       0.027133
     15 C                    -0.722991       0.062924
     16 C                    -3.377109       0.041735
     17 O                    -0.178186       0.228308
     18 C                    -1.130552       0.032436
     19 H                     0.324048      -0.002794
     20 H                     0.363853      -0.003688
     21 H                     0.155042      -0.001499
     22 H                     0.324024      -0.002795
     23 H                     0.363870      -0.003686
     24 H                     0.155015      -0.001501
  --------------------------------------------------------
  Sum of atomic charges =    -1.000000

                    Cartesian Multipole Moments
 -----------------------------------------------------------------
    Charge (ESU x 10^10)
                -4.8032
    Dipole Moment (Debye)
         X       0.0004      Y      -0.0002      Z       0.0001
       Tot       0.0005
    Quadrupole Moments (Debye-Ang)
        XX    -121.9318     XY     -10.1411     YY    -159.1098
        XZ       1.8722     YZ       6.2124     ZZ    -124.6882

 Total job time:  611.67s(wall), 4452.32s(cpu)
        *  Thank you very much for using Q-Chem.  Have a nice day.  *
