 Gaussian 16, Revision A.03,
 Gaussian 16:  ES64L-G16RevA.03 25-Dec-2016

 ----------------------------------------------------------------------
 #P UB3LYP/6-311++G(d,p) nosym opt freq SCRF=(PCM,Solvent=n,n-DiMethylF
 ormamide)
 ----------------------------------------------------------------------

 --------
 Oxidized
 --------
 Symbolic Z-matrix:
 Charge =  0 Multiplicity = 1

 SCF Done:  E(UB3LYP) =  -764.221752131     A.U. after   14 cycles
 SCF Done:  E(UB3LYP) =  -764.221836695     A.U. after   11 cycles
 SCF Done:  E(UB3LYP) =  -764.221825229     A.U. after   11 cycles
 SCF Done:  E(UB3LYP) =  -764.221819170     A.U. after   11 cycles
 SCF Done:  E(UB3LYP) =  -764.221854788     A.U. after   11 cycles
 SCF Done:  E(UB3LYP) =  -764.221856211     A.U. after    9 cycles
 SCF Done:  E(UB3LYP) =  -764.221856424     A.U. after    8 cycles
 Optimization completed.
    -- Stationary point found.
 Normal termination of Gaussian 16 at Sat Feb 10 16:05:03 2024.

 ----------------------------------------------------------------------
 #P Geom=AllCheck Guess=TCheck SCRF=Check GenChk UB3LYP/6-311++G(d,p) F
 req
 ----------------------------------------------------------------------

 Structure from the checkpoint file:  "177.chk"
 --------
 Oxidized
 --------
 Charge =  0 Multiplicity = 1

                          Input orientation:
 ---------------------------------------------------------------------
 Center     Atomic      Atomic             Coordinates (Angstroms)
 Number     Number       Type             X           Y           Z
 ---------------------------------------------------------------------
      1          8           0        2.573994    2.525030   -0.208597
      2          6           0        2.461137    1.206571    0.018377
      3          6           0        3.636305    0.478825    0.260934
      4          6           0        3.572814   -0.883082    0.500286
      5          6           0        2.344214   -1.553745    0.504851
      6          6           0        1.171592   -0.850033    0.266853
      7          6           0       -0.126703   -1.585579    0.275093
      8          8           0       -0.171447   -2.790092    0.489853
      9          6           0       -1.366642   -0.803778    0.013821
     10          6           0       -2.602242   -1.457192    0.012784
     11          6           0       -3.772476   -0.744823   -0.227783
     12          6           0       -3.718419    0.630177   -0.469945
     13          6           0       -2.494291    1.290101   -0.471479
     14          6           0       -1.312911    0.581445   -0.230686
     15          6           0       -0.017663    1.303009   -0.235759
     16          8           0        0.018266    2.525734   -0.453664
     17          6           0        1.209436    0.544721    0.018910
     18          1           0        1.659000    2.870266   -0.357353
     19          1           0        4.582127    1.006776    0.255296
     20          1           0        4.486644   -1.435044    0.686081
     21          1           0        2.293400   -2.618033    0.691399
     22          1           0       -2.630113   -2.522634    0.202011
     23          1           0       -4.726904   -1.257855   -0.226945
     24          1           0       -4.630542    1.184369   -0.656854
     25          1           0       -2.438578    2.354865   -0.657485
 ---------------------------------------------------------------------

 SCF Done:  E(UB3LYP) =  -764.221856424     A.U. after    1 cycles

 Alpha  occ. eigenvalues --  -19.16557 -19.14339 -19.13342 -10.29302 -10.28642
 Alpha  occ. eigenvalues --  -10.27067 -10.21437 -10.21389 -10.21245 -10.21182
 Alpha  occ. eigenvalues --  -10.20499 -10.20202 -10.20176 -10.20125 -10.20094
 Alpha  occ. eigenvalues --  -10.19815 -10.19650  -1.09417  -1.06641  -1.06385
 Alpha  occ. eigenvalues --   -0.89807  -0.88329  -0.81851  -0.78364  -0.77700
 Alpha  occ. eigenvalues --   -0.77317  -0.69841  -0.67319  -0.65924  -0.62301
 Alpha  occ. eigenvalues --   -0.60269  -0.56828  -0.56328  -0.54195  -0.51224
 Alpha  occ. eigenvalues --   -0.49907  -0.49062  -0.48031  -0.46708  -0.46527
 Alpha  occ. eigenvalues --   -0.45530  -0.45342  -0.44743  -0.43190  -0.41897
 Alpha  occ. eigenvalues --   -0.41626  -0.39940  -0.38875  -0.38312  -0.38069
 Alpha  occ. eigenvalues --   -0.37153  -0.35946  -0.29798  -0.29600  -0.28244
 Alpha  occ. eigenvalues --   -0.28106  -0.28097  -0.25431
 Alpha virt. eigenvalues --   -0.12522  -0.07522  -0.04145  -0.02343  -0.00659
 Alpha virt. eigenvalues --    0.00224   0.00844   0.01667   0.02158   0.02809
 Alpha virt. eigenvalues --    0.03520   0.03784   0.03963   0.04233   0.04285

  Beta  occ. eigenvalues --  -19.16557 -19.14339 -19.13342 -10.29302 -10.28642
  Beta  occ. eigenvalues --  -10.27067 -10.21437 -10.21389 -10.21245 -10.21182
  Beta  occ. eigenvalues --  -10.20499 -10.20202 -10.20176 -10.20125 -10.20094
  Beta  occ. eigenvalues --  -10.19815 -10.19650  -1.09417  -1.06641  -1.06385
  Beta  occ. eigenvalues --   -0.89807  -0.88329  -0.81851  -0.78364  -0.77700
  Beta  occ. eigenvalues --   -0.77317  -0.69841  -0.67319  -0.65924  -0.62301
  Beta  occ. eigenvalues --   -0.60269  -0.56828  -0.56328  -0.54195  -0.51224
  Beta  occ. eigenvalues --   -0.49907  -0.49062  -0.48031  -0.46708  -0.46527
  Beta  occ. eigenvalues --   -0.45530  -0.45342  -0.44743  -0.43190  -0.41897
  Beta  occ. eigenvalues --   -0.41626  -0.39940  -0.38875  -0.38312  -0.38069
  Beta  occ. eigenvalues --   -0.37153  -0.35946  -0.29798  -0.29600  -0.28244
  Beta  occ. eigenvalues --   -0.28106  -0.28097  -0.25431
  Beta virt. eigenvalues --   -0.12522  -0.07522  -0.04145  -0.02343  -0.00659
  Beta virt. eigenvalues --    0.00224   0.00844   0.01667   0.02158   0.02809
  Beta virt. eigenvalues --    0.03520   0.03784   0.03963   0.04233   0.04285

 Mulliken charges and spin densities:
               1          2
     1  O   -0.308453   0.000000
     2  C   -0.121039   0.000000
     3  C   -0.140678  -0.000000
     4  C   -0.340156   0.000000
     5  C   -0.032517   0.000000
     6  C    0.480088  -0.000000
     7  C   -0.446561  -0.000000
     8  O   -0.278216   0.000000
     9  C   -0.054760  -0.000000
    10  C    0.133114   0.000000
    11  C   -0.395298   0.000000
    12  C   -0.411352   0.000000
    13  C    0.173782   0.000000
    14  C    0.201107  -0.000000
    15  C   -0.350803   0.000000
    16  O   -0.320351   0.000000
    17  C    0.455488  -0.000000
    18  H    0.343779  -0.000000
    19  H    0.216324  -0.000000
    20  H    0.220218   0.000000
    21  H    0.179765  -0.000000
    22  H    0.185972  -0.000000
    23  H    0.209724  -0.000000
    24  H    0.208236   0.000000
    25  H    0.192588  -0.000000
 Sum of Mulliken charges =  -0.00000  -0.00000

 Dipole moment (field-independent basis, Debye):
    X=             -1.7503    Y=             -0.4032    Z=             -0.0984  Tot=              1.7989
 Quadrupole moment (field-independent basis, Debye-Ang):
   XX=            -70.8773   YY=           -111.0916   ZZ=            -99.6362
   XY=             -6.9250   XZ=              4.0061   YZ=              1.4149

  Exact polarizability: 361.771   3.849 280.852  23.339 -30.340 118.138
 Approx polarizability: 393.244   4.998 367.453  24.155 -42.198 140.931

                      1                      2                      3
                      A                      A                      A
 Frequencies --     43.6613                92.0134               121.0473
 Red. masses --      7.0767                 5.5713                 6.2353
 Frc consts  --      0.0079                 0.0278                 0.0538
 IR Inten    --      8.6352                 0.4113                 0.7165

                      4                      5                      6
                      A                      A                      A
 Frequencies --    166.8459               209.0087               217.2576
 Red. masses --      7.3994                 4.5866                 5.3812
 Frc consts  --      0.1214                 0.1180                 0.1497
 IR Inten    --      0.6861                 0.0260                 0.0014

                      7                      8                      9
                      A                      A                      A
 Frequencies --    257.4880               318.1230               348.6999
 Red. masses --      5.9306                 6.8256                 7.0743
 Frc consts  --      0.2317                 0.4070                 0.5068
 IR Inten    --      0.0538                 3.7500                 1.4007

                     10                     11                     12
                      A                      A                      A
 Frequencies --    391.1485               422.5875               426.5490
 Red. masses --      9.1302                 3.3477                12.1527
 Frc consts  --      0.8230                 0.3522                 1.3028
 IR Inten    --     16.8442                 0.4895                50.6235

                     13                     14                     15
                      A                      A                      A
 Frequencies --    430.8163               459.4039               484.9745
 Red. masses --      4.9808                 8.0270                 3.9050
 Frc consts  --      0.5447                 0.9981                 0.5411
 IR Inten    --      0.1448                 7.6589                 0.8570

                     16                     17                     18
                      A                      A                      A
 Frequencies --    500.4130               554.7862               560.1659
 Red. masses --      7.3468                 4.4870                 7.8583
 Frc consts  --      1.0839                 0.8137                 1.4528
 IR Inten    --      4.9593                 9.8392                10.0277

                     19                     20                     21
                      A                      A                      A
 Frequencies --    623.6730               668.2603               669.4229
 Red. masses --      6.4182                 6.7368                 4.3559
 Frc consts  --      1.4709                 1.7725                 1.1501
 IR Inten    --      1.1057                22.0316                 4.3229

                     22                     23                     24
                      A                      A                      A
 Frequencies --    702.7570               715.0100               737.2649
 Red. masses --      7.1392                 3.1681                 2.1341
 Frc consts  --      2.0774                 0.9543                 0.6835
 IR Inten    --      4.4097                52.2118                57.8088

                     25                     26                     27
                      A                      A                      A
 Frequencies --    773.5654               789.9605               794.8653
 Red. masses --      1.2398                 2.2566                 6.5332
 Frc consts  --      0.4371                 0.8297                 2.4320
 IR Inten    --    219.2135                11.8513                 6.9383

                     28                     29                     30
                      A                      A                      A
 Frequencies --    807.7899               831.3297               891.2741
 Red. masses --      2.1331                 1.8861                 7.7910
 Frc consts  --      0.8201                 0.7680                 3.6464
 IR Inten    --      0.5108                25.7056               114.8104

                     31                     32                     33
                      A                      A                      A
 Frequencies --    914.3061               934.5727               935.0557
 Red. masses --      1.3894                 1.4303                 6.3566
 Frc consts  --      0.6843                 0.7360                 3.2745
 IR Inten    --      0.0623                 0.0662                13.2441

                     34                     35                     36
                      A                      A                      A
 Frequencies --   1002.9223              1010.0906              1024.5341
 Red. masses --      1.3863                 1.3248                 1.3336
 Frc consts  --      0.8216                 0.7964                 0.8248
 IR Inten    --      1.8500                 0.5891                 0.0224

                     37                     38                     39
                      A                      A                      A
 Frequencies --   1028.6301              1059.5759              1084.8287
 Red. masses --      4.9114                 2.0983                 1.9221
 Frc consts  --      3.0618                 1.3880                 1.3327
 IR Inten    --     93.3764                 4.9822                17.0448

                     40                     41                     42
                      A                      A                      A
 Frequencies --   1112.6343              1174.5011              1182.4842
 Red. masses --      2.3091                 1.3818                 1.1668
 Frc consts  --      1.6842                 1.1231                 0.9613
 IR Inten    --      0.8991                12.8422                57.3481

                     43                     44                     45
                      A                      A                      A
 Frequencies --   1184.3006              1208.8834              1245.5945
 Red. masses --      1.9192                 2.0311                 2.0620
 Frc consts  --      1.5860                 1.7488                 1.8850
 IR Inten    --      7.8634                 8.2209               336.9380

                     46                     47                     48
                      A                      A                      A
 Frequencies --   1277.1211              1302.0840              1329.9516
 Red. masses --      2.5234                 2.7544                 3.6948
 Frc consts  --      2.4249                 2.7515                 3.8504
 IR Inten    --    676.8924               622.7931                27.8316

                     49                     50                     51
                      A                      A                      A
 Frequencies --   1358.1215              1375.4500              1392.6130
 Red. masses --      6.4156                 3.9912                 3.7623
 Frc consts  --      6.9721                 4.4488                 4.2990
 IR Inten    --     27.7076               338.7178               180.3138

                     52                     53                     54
                      A                      A                      A
 Frequencies --   1474.8824              1481.3968              1499.5884
 Red. masses --      2.3091                 2.4806                 2.7956
 Frc consts  --      2.9594                 3.2073                 3.7039
 IR Inten    --     67.3426                88.7440               120.8406

                     55                     56                     57
                      A                      A                      A
 Frequencies --   1507.7225              1601.0805              1605.2975
 Red. masses --      2.7821                 4.3908                 5.8797
 Frc consts  --      3.7261                 6.6316                 8.9272
 IR Inten    --     68.0578                49.5130                64.2483

                     58                     59                     60
                      A                      A                      A
 Frequencies --   1619.1496              1626.3489              1657.5347
 Red. masses --      6.0900                 5.7464                 7.3176
 Frc consts  --      9.4067                 8.9551                11.8452
 IR Inten    --    277.4647               153.8131               463.3549

                     61                     62                     63
                      A                      A                      A
 Frequencies --   1699.7762              3180.4866              3183.7914
 Red. masses --     11.3083                 1.0876                 1.0883
 Frc consts  --     19.2499                 6.4818                 6.4994
 IR Inten    --    305.3634                 3.1595                 8.4214

                     64                     65                     66
                      A                      A                      A
 Frequencies --   3192.7457              3199.1898              3205.1837
 Red. masses --      1.0916                 1.0940                 1.0928
 Frc consts  --      6.5560                 6.5970                 6.6146
 IR Inten    --     11.2346                 8.9929                 3.7930

                     67                     68                     69
                      A                      A                      A
 Frequencies --   3208.4149              3212.1162              3300.9103
 Red. masses --      1.0952                 1.0935                 1.0684
 Frc consts  --      6.6424                 6.6472                 6.8589
 IR Inten    --     17.6920                 4.7870               529.7420

 - Thermochemistry -
 -------------------
 Temperature   298.150 Kelvin.  Pressure   1.00000 Atm.
 Atom     1 has atomic number  8 and mass  15.99491

 Molecular mass:   224.04734 amu.
 Principal axes and moments of inertia in atomic units:
                           1         2         3
     Eigenvalues --  1987.903704466.926196454.82817
           X            0.98892  -0.11500  -0.09386
           Y            0.13024   0.97558   0.17687
           Z            0.07122  -0.18714   0.97975
 This molecule is an asymmetric top.
 Rotational symmetry number  1.
 Warning -- assumption of classical behavior for rotation
           may cause significant error
 Rotational temperatures (Kelvin)      0.04357     0.01939     0.01342
 Rotational constants (GHZ):           0.90786     0.40402     0.27960
 Zero-point vibrational energy     482119.2 (Joules/Mol)
                                  115.22925 (Kcal/Mol)
 Warning -- explicit consideration of  18 degrees of freedom as
           vibrations may cause significant error
 Vibrational temperatures:     62.82   132.39   174.16   240.05   300.72
          (Kelvin)            312.59   370.47   457.71   501.70   562.78
                              608.01   613.71   619.85   660.98   697.77
                              719.98   798.21   805.95   897.33   961.48
                              963.15  1011.11  1028.74  1060.76  1112.99
                             1136.58  1143.63  1162.23  1196.10  1282.34
                             1315.48  1344.64  1345.34  1442.98  1453.30
                             1474.08  1479.97  1524.49  1560.83  1600.83
                             1689.85  1701.33  1703.94  1739.31  1792.13
                             1837.49  1873.41  1913.50  1954.03  1978.97
                             2003.66  2122.03  2131.40  2157.57  2169.28
                             2303.60  2309.67  2329.60  2339.95  2384.82
                             2445.60  4576.01  4580.77  4593.65  4602.92
                             4611.54  4616.19  4621.52  4749.27

 Zero-point correction=                           0.183630 (Hartree/Particle)
 Thermal correction to Energy=                    0.195653
 Thermal correction to Enthalpy=                  0.196597
 Thermal correction to Gibbs Free Energy=         0.145144
 Sum of electronic and zero-point Energies=           -764.038227
 Sum of electronic and thermal Energies=              -764.026204
 Sum of electronic and thermal Enthalpies=            -764.025260
 Sum of electronic and thermal Free Energies=         -764.076713

                     E (Thermal)             CV                S
                      KCal/Mol        Cal/Mol-Kelvin    Cal/Mol-Kelvin
 Total                  122.774             49.197            108.292
 Electronic               0.000              0.000              0.000
 Translational            0.889              2.981             42.123
 Rotational               0.889              2.981             32.416
 Vibrational            120.996             43.236             33.753
 Vibration     1          0.595              1.980              5.086
 Vibration     2          0.602              1.955              3.617
 Vibration     3          0.609              1.932              3.084
 Vibration     4          0.624              1.883              2.471
 Vibration     5          0.642              1.827              2.052
 Vibration     6          0.646              1.815              1.982
 Vibration     7          0.667              1.750              1.679
 Vibration     8          0.705              1.639              1.320
 Vibration     9          0.726              1.578              1.172
 Vibration    10          0.759              1.489              0.996
 Vibration    11          0.785              1.421              0.883
 Vibration    12          0.788              1.412              0.870
 Vibration    13          0.792              1.403              0.856
 Vibration    14          0.817              1.340              0.768
 Vibration    15          0.841              1.283              0.697
 Vibration    16          0.856              1.249              0.657
 Vibration    17          0.910              1.129              0.534
 Vibration    18          0.916              1.117              0.524

 Optimization completed.
    -- Stationary point found.
 Normal termination of Gaussian 16 at Sat Feb 10 16:32:04 2024.
