 Q-Chem 5.4, Q-Chem, Inc., Pleasanton, CA (2021)
 Q-Chem 5.4.0 for Intel X86 EM64T Linux

User input:
--------------------------------------------------------------
$molecule
-1 2
N                 -2.8223150000      1.5163910000      1.2052100000
C                 -2.4829800000      0.5248780000      0.3310390000
C                 -3.4518600000     -0.2019410000     -0.3620320000
Br                -5.3241000000      0.2469000000     -0.1444110000
C                 -3.1382620000     -1.2544890000     -1.2194840000
C                 -1.8211590000     -1.6223040000     -1.3974440000
Br                -1.6068700000     -3.0979960000     -2.6361610000
C                 -0.7561040000     -0.9454720000     -0.7460000000
C                  0.6490710000     -1.3462970000     -0.9228570000
O                  0.9948250000     -2.3409890000     -1.5943800000
C                  1.6681110000     -0.5199450000     -0.2668580000
C                  3.0294280000     -0.8484250000     -0.4430390000
C                  4.0242430000     -0.0971750000      0.1503700000
C                  3.6839410000      1.0153570000      0.9487990000
C                  2.3578250000      1.3501460000      1.1345100000
C                  1.3277120000      0.5927760000      0.5334420000
C                 -0.0629300000      0.9708000000      0.7594820000
O                 -0.3142200000      1.9779760000      1.4929010000
C                 -1.0980960000      0.1688300000      0.1141500000
H                 -2.0303960000      2.0745050000      1.5356460000
H                 -3.7582350000      1.8836770000      1.1626550000
H                 -3.9253960000     -1.7807320000     -1.7398310000
H                  3.2585380000     -1.7085390000     -1.0605820000
H                  5.0672510000     -0.3610950000      0.0037500000
H                  4.4652850000      1.6063350000      1.4171790000
H                  2.0666950000      2.1968310000      1.7439470000
$end

$rem
BASIS  =  6-311++G(d,p)
GUI  =  2
JOB_TYPE  =  SP
METHOD  =  B3LYP
SCF_CONVERGENCE  = 8
SOLVENT_METHOD = sm12
$end

$smx
solvent dimethylformamide
charges CM5
$end

--------------------------------------------------------------

             Standard Nuclear Orientation (Angstroms)
    I     Atom           X                Y                Z
 ----------------------------------------------------------------
    1      N      -2.8223150000     1.5163910000     1.2052100000
    2      C      -2.4829800000     0.5248780000     0.3310390000
    3      C      -3.4518600000    -0.2019410000    -0.3620320000
    4      Br     -5.3241000000     0.2469000000    -0.1444110000
    5      C      -3.1382620000    -1.2544890000    -1.2194840000
    6      C      -1.8211590000    -1.6223040000    -1.3974440000
    7      Br     -1.6068700000    -3.0979960000    -2.6361610000
    8      C      -0.7561040000    -0.9454720000    -0.7460000000
    9      C       0.6490710000    -1.3462970000    -0.9228570000
   10      O       0.9948250000    -2.3409890000    -1.5943800000
   11      C       1.6681110000    -0.5199450000    -0.2668580000
   12      C       3.0294280000    -0.8484250000    -0.4430390000
   13      C       4.0242430000    -0.0971750000     0.1503700000
   14      C       3.6839410000     1.0153570000     0.9487990000
   15      C       2.3578250000     1.3501460000     1.1345100000
   16      C       1.3277120000     0.5927760000     0.5334420000
   17      C      -0.0629300000     0.9708000000     0.7594820000
   18      O      -0.3142200000     1.9779760000     1.4929010000
   19      C      -1.0980960000     0.1688300000     0.1141500000
   20      H      -2.0303960000     2.0745050000     1.5356460000
   21      H      -3.7582350000     1.8836770000     1.1626550000
   22      H      -3.9253960000    -1.7807320000    -1.7398310000
   23      H       3.2585380000    -1.7085390000    -1.0605820000
   24      H       5.0672510000    -0.3610950000     0.0037500000
   25      H       4.4652850000     1.6063350000     1.4171790000
   26      H       2.0666950000     2.1968310000     1.7439470000
 ----------------------------------------------------------------

   20   -5891.4748512707      5.28e-09  Convergence criterion met
 Total energy in the final basis set =    -5891.5566960532

                    Orbital Energies (a.u.)
 --------------------------------------------------------------

 Alpha MOs
 -- Occupied --
********-482.8188 -62.4913 -62.4713 -56.3117 -56.3080 -56.3079 -56.2919
-56.2881 -56.2877 -19.0862 -19.0784 -14.3198 -10.2399 -10.2374 -10.2335
-10.2287 -10.2286 -10.1979 -10.1946 -10.1943 -10.1843 -10.1838 -10.1826
-10.1817 -10.1805 -10.1799  -8.6998  -8.6799  -6.5307  -6.5185  -6.5182
 -6.5115  -6.4987  -6.4976  -2.6417  -2.6382  -2.6380  -2.6282  -2.6282
 -2.6223  -2.6189  -2.6181  -2.6078  -2.6078  -1.0145  -1.0103  -0.9362
 -0.8731  -0.8648  -0.8223  -0.8033  -0.7712  -0.7601  -0.7432  -0.7229
 -0.6752  -0.6461  -0.6338  -0.5929  -0.5701  -0.5626  -0.5307  -0.5207
 -0.4918  -0.4813  -0.4628  -0.4586  -0.4524  -0.4389  -0.4339  -0.4243
 -0.4157  -0.4065  -0.4024  -0.3908  -0.3899  -0.3714  -0.3608  -0.3582
 -0.3474  -0.3422  -0.3176  -0.3028  -0.2887  -0.2878  -0.2698  -0.2651
 -0.2575  -0.2538  -0.2313  -0.2198  -0.1476

 Beta MOs
 -- Occupied --
********-482.8187 -62.4913 -62.4713 -56.3117 -56.3079 -56.3079 -56.2919
-56.2880 -56.2877 -19.0809 -19.0724 -14.3196 -10.2399 -10.2356 -10.2325
-10.2284 -10.2273 -10.1966 -10.1943 -10.1937 -10.1840 -10.1834 -10.1820
-10.1809 -10.1804 -10.1800  -8.6998  -8.6799  -6.5308  -6.5185  -6.5182
 -6.5115  -6.4986  -6.4976  -2.6417  -2.6382  -2.6380  -2.6282  -2.6282
 -2.6223  -2.6189  -2.6181  -2.6078  -2.6078  -1.0055  -1.0001  -0.9350
 -0.8709  -0.8635  -0.8205  -0.8010  -0.7697  -0.7583  -0.7415  -0.7204
 -0.6692  -0.6442  -0.6315  -0.5919  -0.5683  -0.5609  -0.5292  -0.5196
 -0.4897  -0.4790  -0.4617  -0.4576  -0.4515  -0.4336  -0.4297  -0.4231
 -0.4100  -0.4035  -0.3958  -0.3892  -0.3726  -0.3703  -0.3595  -0.3497
 -0.3459  -0.3341  -0.3137  -0.3027  -0.2866  -0.2819  -0.2591  -0.2549
 -0.2510  -0.2491  -0.2268  -0.2117

          Ground-State Mulliken Net Atomic Charges

     Atom                 Charge (a.u.)    Spin (a.u.)
  --------------------------------------------------------
      1 N                    -0.172115       0.011052
      2 C                    -0.312999       0.005925
      3 C                     0.905133       0.075930
      4 Br                    0.184923       0.003539
      5 C                     0.993995       0.054570
      6 C                     0.191640       0.036945
      7 Br                    0.004884       0.005524
      8 C                    -0.132081       0.097978
      9 C                    -2.552478       0.039841
     10 O                    -0.173370       0.222668
     11 C                    -0.855986       0.036845
     12 C                     0.020252       0.018960
     13 C                     0.762963       0.035111
     14 C                     0.814976       0.022431
     15 C                     0.058923       0.032045
     16 C                    -0.963865      -0.000529
     17 C                    -1.339235       0.094870
     18 O                    -0.291977       0.196273
     19 C                    -0.073903       0.025298
     20 H                     0.320380      -0.002429
     21 H                     0.290628      -0.000921
     22 H                     0.277645      -0.004271
     23 H                     0.162808      -0.001513
     24 H                     0.347366      -0.002760
     25 H                     0.355709      -0.002048
     26 H                     0.175785      -0.001332
  --------------------------------------------------------
  Sum of atomic charges =    -1.000000

                    Cartesian Multipole Moments
 -----------------------------------------------------------------
    Charge (ESU x 10^10)
                -4.8032
    Dipole Moment (Debye)
         X       1.3908      Y       3.5345      Z       2.1420
       Tot       4.3606
    Quadrupole Moments (Debye-Ang)
        XX    -151.3803     XY      -1.2102     YY    -159.5329
        XZ      -0.1933     YZ     -13.4393     ZZ    -153.9396

 Total job time:  936.38s(wall), 6993.68s(cpu)
        *  Thank you very much for using Q-Chem.  Have a nice day.  *
