 Gaussian 16, Revision A.03,
 Gaussian 16:  ES64L-G16RevA.03 25-Dec-2016

 --------------------------------------
 #P UB3LYP/6-311++G(d,p) nosym opt freq
 --------------------------------------

 -------
 Reduced
 -------
 Symbolic Z-matrix:
 Charge = -2 Multiplicity = 1

 SCF Done:  E(UB3LYP) =  -1292.98026264     A.U. after   24 cycles
 Optimization completed.
    -- Stationary point found.
 Normal termination of Gaussian 16 at Sun Jan  7 06:48:35 2024.

 ----------------------------------------------------------------------
 #P Geom=AllCheck Guess=TCheck SCRF=Check GenChk UB3LYP/6-311++G(d,p) F
 req
 ----------------------------------------------------------------------

 Structure from the checkpoint file:  "218-an.chk"
 -------
 Reduced
 -------
 Charge = -2 Multiplicity = 1

                          Input orientation:
 ---------------------------------------------------------------------
 Center     Atomic      Atomic             Coordinates (Angstroms)
 Number     Number       Type             X           Y           Z
 ---------------------------------------------------------------------
      1          6           0        5.022991   -2.544972    0.138680
      2          6           0        5.762767   -1.598151   -0.543429
      3          6           0        5.090687   -0.562932   -1.243755
      4          6           0        3.609413   -2.518282    0.163568
      5          6           0        2.924335   -1.467907   -0.546260
      6          6           0        3.711852   -0.511293   -1.236993
      7          6           0        2.895663   -3.554307    0.903700
      8          6           0        1.446979   -3.429341    0.861241
      9          6           0        0.768372   -2.351126    0.139675
     10          6           0        1.470479   -1.340256   -0.585432
     11          6           0        0.676211   -4.370898    1.551838
     12          6           0       -0.658485   -2.331265    0.179037
     13          6           0       -1.405064   -3.256433    0.857842
     14          8           0        3.502269   -4.477522    1.533974
     15          8           0        0.895368   -0.385288   -1.226657
     16          1           0        5.501768   -3.351606    0.685082
     17          1           0       -2.487762   -3.226323    0.862171
     18          1           0        3.166925    0.266952   -1.761793
     19          1           0        1.204210   -5.157056    2.079843
     20          1           0       -1.139873   -1.529526   -0.372037
     21          6           0       -0.717088   -4.313915    1.553708
     22          1           0        5.663663    0.188152   -1.785028
     23          1           0        6.849928   -1.644458   -0.544781
     24         16           0       -1.612343   -5.400608    2.567403
     25          8           0       -0.831793   -6.614080    2.892768
     26          8           0       -3.002963   -5.588940    2.106684
     27          7           0       -1.833759   -4.510250    4.063320
     28          1           0       -0.908523   -4.371224    4.465631
     29          1           0       -2.364586   -5.118992    4.688820
 ---------------------------------------------------------------------

 SCF Done:  E(UB3LYP) =  -1292.98026264     A.U. after    2 cycles

 Alpha  occ. eigenvalues --  -88.84777 -18.90316 -18.90291 -18.81103 -18.78834
 Alpha  occ. eigenvalues --  -14.13638  -9.97093  -9.96980  -9.95329  -9.95217
 Alpha  occ. eigenvalues --   -9.95156  -9.94957  -9.94302  -9.94250  -9.93860
 Alpha  occ. eigenvalues --   -9.93357  -9.92913  -9.92869  -9.92598  -9.91454
 Alpha  occ. eigenvalues --   -7.90963  -5.87260  -5.87224  -5.87005  -0.89963
 Alpha  occ. eigenvalues --   -0.78912  -0.73204  -0.70673  -0.69560  -0.62342
 Alpha  occ. eigenvalues --   -0.61803  -0.55236  -0.52518  -0.51609  -0.50975
 Alpha  occ. eigenvalues --   -0.45595  -0.42119  -0.39543  -0.37584  -0.35209
 Alpha  occ. eigenvalues --   -0.33189  -0.31488  -0.30838  -0.29686  -0.28471
 Alpha  occ. eigenvalues --   -0.25752  -0.24514  -0.23089  -0.22354  -0.21755
 Alpha  occ. eigenvalues --   -0.19539  -0.19144  -0.17814  -0.16586  -0.16242
 Alpha  occ. eigenvalues --   -0.15895  -0.15164  -0.13484  -0.13453  -0.12947
 Alpha  occ. eigenvalues --   -0.11761  -0.10955  -0.10644  -0.10279  -0.09672
 Alpha  occ. eigenvalues --   -0.09034  -0.08499  -0.07396  -0.02787  -0.01659
 Alpha  occ. eigenvalues --   -0.00928  -0.00477   0.01514   0.03299   0.11147
 Alpha virt. eigenvalues --    0.14503   0.15101   0.16958   0.17257   0.18582
 Alpha virt. eigenvalues --    0.19111   0.19700   0.19733   0.20643   0.21602
 Alpha virt. eigenvalues --    0.21879   0.22560   0.23987   0.24119   0.24436

  Beta  occ. eigenvalues --  -88.84777 -18.90316 -18.90291 -18.81103 -18.78834
  Beta  occ. eigenvalues --  -14.13638  -9.97093  -9.96980  -9.95329  -9.95217
  Beta  occ. eigenvalues --   -9.95156  -9.94957  -9.94302  -9.94250  -9.93860
  Beta  occ. eigenvalues --   -9.93357  -9.92913  -9.92869  -9.92598  -9.91454
  Beta  occ. eigenvalues --   -7.90963  -5.87260  -5.87224  -5.87005  -0.89963
  Beta  occ. eigenvalues --   -0.78912  -0.73204  -0.70673  -0.69560  -0.62342
  Beta  occ. eigenvalues --   -0.61803  -0.55236  -0.52518  -0.51609  -0.50975
  Beta  occ. eigenvalues --   -0.45595  -0.42119  -0.39543  -0.37584  -0.35209
  Beta  occ. eigenvalues --   -0.33189  -0.31488  -0.30838  -0.29686  -0.28471
  Beta  occ. eigenvalues --   -0.25752  -0.24514  -0.23089  -0.22354  -0.21755
  Beta  occ. eigenvalues --   -0.19539  -0.19144  -0.17814  -0.16586  -0.16242
  Beta  occ. eigenvalues --   -0.15895  -0.15164  -0.13484  -0.13453  -0.12947
  Beta  occ. eigenvalues --   -0.11761  -0.10955  -0.10644  -0.10279  -0.09672
  Beta  occ. eigenvalues --   -0.09034  -0.08499  -0.07396  -0.02787  -0.01659
  Beta  occ. eigenvalues --   -0.00928  -0.00477   0.01514   0.03299   0.11147
  Beta virt. eigenvalues --    0.14503   0.15101   0.16958   0.17257   0.18582
  Beta virt. eigenvalues --    0.19111   0.19700   0.19733   0.20643   0.21602
  Beta virt. eigenvalues --    0.21879   0.22560   0.23987   0.24119   0.24436

 Mulliken charges and spin densities:
               1          2
     1  C   -0.001696   0.000000
     2  C   -0.431689  -0.000000
     3  C   -0.429567   0.000000
     4  C    0.445805   0.000000
     5  C    0.505207   0.000000
     6  C    0.003434  -0.000000
     7  C   -0.878186   0.000000
     8  C    0.266480  -0.000000
     9  C    0.690327  -0.000000
    10  C   -0.736601   0.000000
    11  C   -0.155303  -0.000000
    12  C   -0.110621  -0.000000
    13  C   -0.351197  -0.000000
    14  O   -0.451661  -0.000000
    15  O   -0.505138  -0.000000
    16  H    0.132763   0.000000
    17  H    0.175959  -0.000000
    18  H    0.139860   0.000000
    19  H    0.214107   0.000000
    20  H    0.133413  -0.000000
    21  C   -0.358528   0.000000
    22  H    0.084097  -0.000000
    23  H    0.084089  -0.000000
    24  S    0.047664   0.000000
    25  O   -0.256493  -0.000000
    26  O   -0.325593  -0.000000
    27  N   -0.374516  -0.000000
    28  H    0.238273   0.000000
    29  H    0.205314  -0.000000
 Sum of Mulliken charges =  -2.00000  -0.00000

 Dipole moment (field-independent basis, Debye):
    X=            -11.5290    Y=             30.2830    Z=             -4.8762  Tot=             32.7682
 Quadrupole moment (field-independent basis, Debye-Ang):
   XX=           -219.6761   YY=           -287.1617   ZZ=           -155.1682
   XY=             13.8553   XZ=              8.7880   YZ=             47.7970

  Exact polarizability: 557.132 151.527 293.868-230.366-176.064 422.303
 Approx polarizability: 979.461 216.500 487.369-276.310-251.107 524.226

                      1                      2                      3
                      A                      A                      A
 Frequencies --     34.8310                38.4310                76.1172
 Red. masses --      6.5452                 7.6031                 5.8461
 Frc consts  --      0.0047                 0.0066                 0.0200
 IR Inten    --      1.3181                 2.0439                 5.4284

                      4                      5                      6
                      A                      A                      A
 Frequencies --    106.2119               126.0786               145.4072
 Red. masses --      7.5197                 4.0744                 3.6263
 Frc consts  --      0.0500                 0.0382                 0.0452
 IR Inten    --      0.4219                 0.2840                 3.3967

                      7                      8                      9
                      A                      A                      A
 Frequencies --    166.7176               190.4277               219.8432
 Red. masses --      3.8748                 1.8689                 9.1605
 Frc consts  --      0.0635                 0.0399                 0.2609
 IR Inten    --      7.3135                 3.9523                 6.2894

                     10                     11                     12
                      A                      A                      A
 Frequencies --    232.2614               243.6650               284.8743
 Red. masses --      6.5643                 4.9389                 7.4972
 Frc consts  --      0.2086                 0.1728                 0.3585
 IR Inten    --      6.3273                 2.6331                10.1633

                     13                     14                     15
                      A                      A                      A
 Frequencies --    301.9049               361.6506               368.4781
 Red. masses --      5.0897                 4.5670                10.1225
 Frc consts  --      0.2733                 0.3519                 0.8098
 IR Inten    --     52.9998                14.8908                 0.0767

                     16                     17                     18
                      A                      A                      A
 Frequencies --    396.6865               405.0848               429.0991
 Red. masses --      6.0856                 6.8687                 3.7669
 Frc consts  --      0.5642                 0.6641                 0.4086
 IR Inten    --     36.5804                 4.4441                 1.5571

                     19                     20                     21
                      A                      A                      A
 Frequencies --    436.4642               455.6705               469.8398
 Red. masses --      6.9018                 6.9983                 5.8890
 Frc consts  --      0.7747                 0.8561                 0.7659
 IR Inten    --     37.6878                10.6865                 5.6122

                     22                     23                     24
                      A                      A                      A
 Frequencies --    472.6442               494.7568               507.6537
 Red. masses --      3.7107                 9.8791                 5.5403
 Frc consts  --      0.4884                 1.4248                 0.8412
 IR Inten    --      9.0317               103.8557                18.0464

                     25                     26                     27
                      A                      A                      A
 Frequencies --    550.2177               610.1769               629.2500
 Red. masses --      7.2703                 7.0293                 7.0125
 Frc consts  --      1.2968                 1.5420                 1.6359
 IR Inten    --     39.2131               133.8558                18.0416

                     28                     29                     30
                      A                      A                      A
 Frequencies --    632.3751               654.6709               686.1020
 Red. masses --      6.8592                 6.5761                 5.5359
 Frc consts  --      1.6161                 1.6606                 1.5354
 IR Inten    --     74.0693                58.3841                 7.7533

                     31                     32                     33
                      A                      A                      A
 Frequencies --    687.7900               704.5310               710.2200
 Red. masses --      2.0728                 5.7071                 3.7379
 Frc consts  --      0.5777                 1.6690                 1.1109
 IR Inten    --     67.3716                28.0110                 7.6079

                     34                     35                     36
                      A                      A                      A
 Frequencies --    747.6208               775.1192               800.7596
 Red. masses --      1.5805                 2.3365                 1.7701
 Frc consts  --      0.5205                 0.8271                 0.6687
 IR Inten    --      2.1200                21.2961                 0.7403

                     37                     38                     39
                      A                      A                      A
 Frequencies --    826.8325               839.5157               882.3899
 Red. masses --      6.5315                 2.9793                 1.3529
 Frc consts  --      2.6309                 1.2372                 0.6206
 IR Inten    --     13.8340                 2.2001               154.3745

                     40                     41                     42
                      A                      A                      A
 Frequencies --    925.7889               958.4061               961.9108
 Red. masses --      6.4980                 2.1163                 1.7750
 Frc consts  --      3.2814                 1.1453                 0.9677
 IR Inten    --      2.8616                26.4853                12.6579

                     43                     44                     45
                      A                      A                      A
 Frequencies --    965.7107               969.4981               977.6316
 Red. masses --      1.5182                 1.3298                 1.3237
 Frc consts  --      0.8342                 0.7364                 0.7454
 IR Inten    --      2.9390                 2.4776                 3.3169

                     46                     47                     48
                      A                      A                      A
 Frequencies --   1017.5310              1022.8853              1049.4154
 Red. masses --      2.1651                 2.4896                 5.0394
 Frc consts  --      1.3208                 1.5347                 3.2698
 IR Inten    --    374.0900                18.6381               594.5647

                     49                     50                     51
                      A                      A                      A
 Frequencies --   1091.7289              1096.7253              1120.4667
 Red. masses --      1.5817                 1.8534                 1.7837
 Frc consts  --      1.1107                 1.3134                 1.3194
 IR Inten    --    461.8258               243.9104                66.5752

                     52                     53                     54
                      A                      A                      A
 Frequencies --   1129.2289              1165.5459              1188.9189
 Red. masses --      1.4869                 2.5980                 2.5196
 Frc consts  --      1.1171                 2.0794                 2.0984
 IR Inten    --     70.1020                68.4717                38.7748

                     55                     56                     57
                      A                      A                      A
 Frequencies --   1203.6657              1220.4725              1223.6866
 Red. masses --      2.1123                 1.8911                 6.8567
 Frc consts  --      1.8031                 1.6597                 6.0493
 IR Inten    --    110.6088               108.4686               255.0463

                     58                     59                     60
                      A                      A                      A
 Frequencies --   1249.3898              1319.3966              1347.7855
 Red. masses --      2.2169                 2.6859                 7.6940
 Frc consts  --      2.0389                 2.7549                 8.2346
 IR Inten    --     95.6163               206.3700                40.1006

                     61                     62                     63
                      A                      A                      A
 Frequencies --   1355.1105              1392.9048              1440.1291
 Red. masses --      3.4689                 3.2914                 6.0054
 Frc consts  --      3.7531                 3.7625                 7.3383
 IR Inten    --    117.4583               774.5803               279.1007

                     64                     65                     66
                      A                      A                      A
 Frequencies --   1452.4001              1463.1277              1484.0189
 Red. masses --      3.1629                 2.6004                 4.2593
 Frc consts  --      3.9311                 3.2798                 5.5268
 IR Inten    --    111.2646               114.4485               203.1478

                     67                     68                     69
                      A                      A                      A
 Frequencies --   1499.6565              1508.5797              1552.1977
 Red. masses --      6.6207                 5.8495                 5.4789
 Frc consts  --      8.7727                 7.8434                 7.7774
 IR Inten    --     50.1481               274.8688               420.0243

                     70                     71                     72
                      A                      A                      A
 Frequencies --   1572.8942              1593.5375              1601.4106
 Red. masses --      1.1431                 6.3618                 6.2070
 Frc consts  --      1.6663                 9.5183                 9.3786
 IR Inten    --     44.3629                51.3617               130.1632

                     73                     74                     75
                      A                      A                      A
 Frequencies --   3096.6559              3120.7304              3157.7131
 Red. masses --      1.0831                 1.0906                 1.0860
 Frc consts  --      6.1192                 6.2580                 6.3800
 IR Inten    --     41.6414               152.0154                 4.9483

                     76                     77                     78
                      A                      A                      A
 Frequencies --   3161.0213              3164.3345              3183.0766
 Red. masses --      1.0906                 1.0913                 1.0889
 Frc consts  --      6.4207                 6.4380                 6.5001
 IR Inten    --     30.1041                75.1115                 1.4764

                     79                     80                     81
                      A                      A                      A
 Frequencies --   3183.8149              3410.6497              3537.0161
 Red. masses --      1.0926                 1.0507                 1.0908
 Frc consts  --      6.5253                 7.2010                 8.0402
 IR Inten    --     23.1627              1360.1327               340.0302

 - Thermochemistry -
 -------------------
 Temperature   298.150 Kelvin.  Pressure   1.00000 Atm.
 Atom     1 has atomic number  6 and mass  12.00000

 Molecular mass:   287.02523 amu.
 Principal axes and moments of inertia in atomic units:
                           1         2         3
     Eigenvalues --  2250.04424********************
           X            0.75484   0.65421   0.04711
           Y            0.50250  -0.62296   0.59951
           Z           -0.42155   0.42886   0.79898
 This molecule is an asymmetric top.
 Rotational symmetry number  1.
 Warning -- assumption of classical behavior for rotation
           may cause significant error
 Rotational temperatures (Kelvin)      0.03849     0.00809     0.00690
 Rotational constants (GHZ):           0.80209     0.16848     0.14381
 Zero-point vibrational energy     525394.7 (Joules/Mol)
                                  125.57235 (Kcal/Mol)
 Warning -- explicit consideration of  26 degrees of freedom as
           vibrations may cause significant error
 Vibrational temperatures:     50.11    55.29   109.52   152.82   181.40
          (Kelvin)            209.21   239.87   273.98   316.31   334.17
                              350.58   409.87   434.37   520.33   530.16
                              570.74   582.83   617.38   627.97   655.61
                              675.99   680.03   711.84   730.40   791.64
                              877.91   905.35   909.85   941.93   987.15
                              989.58  1013.66  1021.85  1075.66  1115.22
                             1152.11  1189.63  1207.88  1269.56  1332.00
                             1378.93  1383.98  1389.44  1394.89  1406.59
                             1464.00  1471.70  1509.87  1570.75  1577.94
                             1612.10  1624.71  1676.96  1710.59  1731.81
                             1755.99  1760.61  1797.59  1898.32  1939.16
                             1949.70  2004.08  2072.02  2089.68  2105.11
                             2135.17  2157.67  2170.51  2233.27  2263.04
                             2292.75  2304.07  4455.40  4490.03  4543.24
                             4548.00  4552.77  4579.74  4580.80  4907.16
                             5088.98

 Zero-point correction=                           0.200112 (Hartree/Particle)
 Thermal correction to Energy=                    0.216470
 Thermal correction to Enthalpy=                  0.217414
 Thermal correction to Gibbs Free Energy=         0.155828
 Sum of electronic and zero-point Energies=          -1292.780150
 Sum of electronic and thermal Energies=             -1292.763793
 Sum of electronic and thermal Enthalpies=           -1292.762849
 Sum of electronic and thermal Free Energies=        -1292.824435

                     E (Thermal)             CV                S
                      KCal/Mol        Cal/Mol-Kelvin    Cal/Mol-Kelvin
 Total                  135.837             64.676            129.619
 Electronic               0.000              0.000              0.000
 Translational            0.889              2.981             42.861
 Rotational               0.889              2.981             34.069
 Vibrational            134.059             58.714             52.689
 Vibration     1          0.594              1.983              5.533
 Vibration     2          0.594              1.982              5.338
 Vibration     3          0.599              1.965              3.989
 Vibration     4          0.605              1.944              3.337
 Vibration     5          0.611              1.927              3.005
 Vibration     6          0.617              1.908              2.731
 Vibration     7          0.624              1.883              2.472
 Vibration     8          0.634              1.853              2.224
 Vibration     9          0.647              1.811              1.960
 Vibration    10          0.653              1.792              1.861
 Vibration    11          0.659              1.773              1.776
 Vibration    12          0.683              1.702              1.504
 Vibration    13          0.694              1.670              1.406
 Vibration    14          0.736              1.551              1.115
 Vibration    15          0.741              1.537              1.086
 Vibration    16          0.763              1.477              0.975
 Vibration    17          0.770              1.459              0.944
 Vibration    18          0.790              1.407              0.862
 Vibration    19          0.797              1.391              0.838
 Vibration    20          0.814              1.348              0.779
 Vibration    21          0.827              1.317              0.738
 Vibration    22          0.830              1.311              0.730
 Vibration    23          0.850              1.262              0.671
 Vibration    24          0.863              1.233              0.639
 Vibration    25          0.906              1.139              0.544
 Vibration    26          0.969              1.010              0.432

 Optimization completed.
    -- Stationary point found.
 Normal termination of Gaussian 16 at Sun Jan  7 07:59:34 2024.
