 Gaussian 16, Revision A.03,
 Gaussian 16:  ES64L-G16RevA.03 25-Dec-2016

 ----------------------------------------------------------------
 #P UB3LYP/6-311++G(d,p) SCRF=(PCM,Solvent=n,n-DiMethylFormamide)
 ----------------------------------------------------------------

 -------
 Reduced
 -------
 Symbolic Z-matrix:
 Charge = -2 Multiplicity = 1

                         Standard orientation:
 ---------------------------------------------------------------------
 Center     Atomic      Atomic             Coordinates (Angstroms)
 Number     Number       Type             X           Y           Z
 ---------------------------------------------------------------------
      1          6           0        3.641111   -1.766424    0.013364
      2          6           0        4.961000   -1.363209    0.079120
      3          6           0        5.263534    0.022725    0.117685
      4          6           0        2.573510   -0.839688   -0.017006
      5          6           0        2.877764    0.568267    0.022573
      6          6           0        4.242324    0.950217    0.089643
      7          6           0        1.204393   -1.340543   -0.089427
      8          6           0        0.187606   -0.300557   -0.115476
      9          6           0        0.515576    1.125592   -0.068070
     10          6           0        1.857005    1.611862    0.000519
     11          6           0       -1.156725   -0.684000   -0.172754
     12          6           0       -0.571605    2.050440   -0.091694
     13          6           0       -1.884477    1.666552   -0.147289
     14          8           0        0.937652   -2.583732   -0.118936
     15          8           0        2.168023    2.859031    0.042022
     16          1           0        3.371078   -2.817388   -0.018225
     17          1           0       -2.691134    2.388782   -0.176406
     18          1           0        4.439003    2.017237    0.118111
     19          1           0       -1.371515   -1.746304   -0.204260
     20          1           0       -0.304004    3.102094   -0.066904
     21          6           0       -2.184158    0.258364   -0.202128
     22          1           0        6.300137    0.351694    0.169057
     23          1           0        5.761721   -2.099709    0.101008
     24         16           0       -3.831759   -0.274722   -0.096348
     25          8           0       -3.982015   -1.679019   -0.535675
     26          8           0       -4.783257    0.714638   -0.641668
     27          7           0       -4.190141   -0.227756    1.620884
     28          1           0       -3.590808   -0.919149    2.068120
     29          1           0       -5.159710   -0.532350    1.724575
 ---------------------------------------------------------------------

 SCF Done:  E(UB3LYP) =  -1293.22826999     A.U. after   20 cycles

 The electronic state is 1-A.
 Alpha  occ. eigenvalues --  -89.05999 -19.11451 -19.11438 -19.03938 -19.02303
 Alpha  occ. eigenvalues --  -14.33141 -10.19573 -10.18974 -10.17985 -10.17655
 Alpha  occ. eigenvalues --  -10.16425 -10.15928 -10.15718 -10.15627 -10.15509
 Alpha  occ. eigenvalues --  -10.15211 -10.15005 -10.15003 -10.14927 -10.14142
 Alpha  occ. eigenvalues --   -8.12178  -6.08459  -6.08437  -6.08244  -1.11089
 Alpha  occ. eigenvalues --   -1.00106  -0.96168  -0.94163  -0.89174  -0.84567
 Alpha  occ. eigenvalues --   -0.83348  -0.77298  -0.74653  -0.73119  -0.72829
 Alpha  occ. eigenvalues --   -0.67394  -0.64135  -0.61233  -0.59063  -0.56976
 Alpha  occ. eigenvalues --   -0.54206  -0.53090  -0.51508  -0.50705  -0.49525
 Alpha  occ. eigenvalues --   -0.47074  -0.45952  -0.44677  -0.44249  -0.43465
 Alpha  occ. eigenvalues --   -0.41792  -0.40651  -0.39587  -0.39168  -0.38337
 Alpha  occ. eigenvalues --   -0.38170  -0.36595  -0.35781  -0.35315  -0.34331
 Alpha  occ. eigenvalues --   -0.33732  -0.33179  -0.32700  -0.31838  -0.31385
 Alpha  occ. eigenvalues --   -0.30975  -0.30522  -0.27929  -0.24987  -0.23767
 Alpha  occ. eigenvalues --   -0.23428  -0.22853  -0.21543  -0.20215  -0.11706
 Alpha virt. eigenvalues --   -0.04681  -0.01957  -0.00595   0.00353   0.00884
 Alpha virt. eigenvalues --    0.01399   0.01964   0.02498   0.03129   0.03946
 Alpha virt. eigenvalues --    0.04132   0.04600   0.04825   0.05360   0.05782

  Beta  occ. eigenvalues --  -89.05999 -19.11451 -19.11438 -19.03938 -19.02303
  Beta  occ. eigenvalues --  -14.33141 -10.19573 -10.18974 -10.17985 -10.17655
  Beta  occ. eigenvalues --  -10.16425 -10.15928 -10.15718 -10.15627 -10.15509
  Beta  occ. eigenvalues --  -10.15211 -10.15005 -10.15003 -10.14927 -10.14142
  Beta  occ. eigenvalues --   -8.12178  -6.08459  -6.08437  -6.08244  -1.11089
  Beta  occ. eigenvalues --   -1.00106  -0.96168  -0.94163  -0.89174  -0.84567
  Beta  occ. eigenvalues --   -0.83348  -0.77298  -0.74653  -0.73119  -0.72829
  Beta  occ. eigenvalues --   -0.67394  -0.64135  -0.61233  -0.59063  -0.56976
  Beta  occ. eigenvalues --   -0.54206  -0.53090  -0.51508  -0.50705  -0.49525
  Beta  occ. eigenvalues --   -0.47074  -0.45952  -0.44677  -0.44249  -0.43465
  Beta  occ. eigenvalues --   -0.41792  -0.40651  -0.39587  -0.39168  -0.38337
  Beta  occ. eigenvalues --   -0.38170  -0.36595  -0.35781  -0.35315  -0.34331
  Beta  occ. eigenvalues --   -0.33732  -0.33179  -0.32700  -0.31838  -0.31385
  Beta  occ. eigenvalues --   -0.30975  -0.30522  -0.27929  -0.24987  -0.23767
  Beta  occ. eigenvalues --   -0.23428  -0.22853  -0.21543  -0.20215  -0.11706
  Beta virt. eigenvalues --   -0.04681  -0.01957  -0.00595   0.00353   0.00884
  Beta virt. eigenvalues --    0.01399   0.01964   0.02498   0.03129   0.03946
  Beta virt. eigenvalues --    0.04132   0.04600   0.04825   0.05360   0.05782

 Mulliken charges and spin densities:
               1          2
     1  C    0.034663   0.000000
     2  C   -0.499939  -0.000000
     3  C   -0.491249  -0.000000
     4  C    0.308691   0.000000
     5  C    0.340457  -0.000000
     6  C    0.020213  -0.000000
     7  C   -0.653438   0.000000
     8  C    0.189538   0.000000
     9  C    0.557945  -0.000000
    10  C   -0.401868  -0.000000
    11  C   -0.151129   0.000000
    12  C   -0.185866   0.000000
    13  C   -0.406063   0.000000
    14  O   -0.570712   0.000000
    15  O   -0.643901   0.000000
    16  H    0.151489  -0.000000
    17  H    0.221435   0.000000
    18  H    0.153949   0.000000
    19  H    0.204877  -0.000000
    20  H    0.146771   0.000000
    21  C   -0.324571  -0.000000
    22  H    0.166775  -0.000000
    23  H    0.166394   0.000000
    24  S    0.191769   0.000000
    25  O   -0.303235   0.000000
    26  O   -0.352027  -0.000000
    27  N   -0.475386   0.000000
    28  H    0.290661  -0.000000
    29  H    0.313756  -0.000000
 Sum of Mulliken charges =  -2.00000   0.00000

 Dipole moment (field-independent basis, Debye):
    X=             -3.3771    Y=             -2.7121    Z=              3.6933  Tot=              5.6921
 Quadrupole moment (field-independent basis, Debye-Ang):
   XX=           -201.9786   YY=           -183.6828   ZZ=           -133.7668
   XY=             -9.6534   XZ=            -15.9743   YZ=             -6.3075

 Normal termination of Gaussian 16 at Tue Jan 16 06:34:18 2024.
