 Gaussian 16, Revision A.03,
 Gaussian 16:  ES64L-G16RevA.03 25-Dec-2016

 --------------------------------------
 #P UB3LYP/6-311++G(d,p) nosym opt freq
 --------------------------------------

 -------
 Reduced
 -------
 Symbolic Z-matrix:
 Charge = -2 Multiplicity = 1

 SCF Done:  E(UB3LYP) =  -1048.93948015     A.U. after   49 cycles
 SCF Done:  E(UB3LYP) =  -1048.93948027     A.U. after   29 cycles
 Optimization completed.
    -- Stationary point found.
 Normal termination of Gaussian 16 at Tue Jan  9 20:47:20 2024.

 ----------------------------------------------------------------------
 #P Geom=AllCheck Guess=TCheck SCRF=Check GenChk UB3LYP/6-311++G(d,p) F
 req
 ----------------------------------------------------------------------

 Structure from the checkpoint file:  "338-an.chk"
 -------
 Reduced
 -------
 Charge = -2 Multiplicity = 1

                          Input orientation:
 ---------------------------------------------------------------------
 Center     Atomic      Atomic             Coordinates (Angstroms)
 Number     Number       Type             X           Y           Z
 ---------------------------------------------------------------------
      1          8           0       -0.017049   -2.577084   -0.486704
      2          6           0       -0.008941   -1.328458   -0.154290
      3          6           0        1.222872   -0.619484    0.091896
      4          6           0        2.451171   -1.352585    0.097348
      5          6           0        3.649926   -0.788722    0.473582
      6          6           0        3.719558    0.575808    0.865167
      7          6           0        2.557151    1.335957    0.805348
      8          6           0        1.332265    0.784068    0.408725
      9         16           0        0.011563    1.952244    0.159204
     10          8           0        0.012541    2.477359   -1.301339
     11          6           0       -1.322428    0.800256    0.412942
     12          6           0       -2.539220    1.366982    0.813522
     13          6           0       -3.710648    0.621101    0.876914
     14          6           0       -3.658962   -0.744088    0.484809
     15          6           0       -2.468394   -1.322503    0.104713
     16          6           0       -1.231204   -0.604528    0.095631
     17          1           0        2.380644   -2.395885   -0.192367
     18          1           0        4.554316   -1.395888    0.478234
     19          1           0        4.659018    1.020622    1.181940
     20          1           0        2.589579    2.396439    1.050648
     21          1           0       -2.557910    2.427740    1.059082
     22          1           0       -4.643576    1.077310    1.196758
     23          1           0       -4.570702   -1.340136    0.492114
     24          1           0       -2.411568   -2.366527   -0.185423
 ---------------------------------------------------------------------

 SCF Done:  E(UB3LYP) =  -1048.93948027     A.U. after    9 cycles

 Alpha  occ. eigenvalues --  -88.68596 -18.81618 -18.77630  -9.94222  -9.94221
 Alpha  occ. eigenvalues --   -9.94026  -9.94025  -9.93869  -9.93645  -9.93644
 Alpha  occ. eigenvalues --   -9.93033  -9.93031  -9.92324  -9.92323  -9.91763
 Alpha  occ. eigenvalues --   -9.91762  -7.76102  -5.72370  -5.72268  -5.71742
 Alpha  occ. eigenvalues --   -0.73050  -0.69272  -0.61171  -0.60497  -0.53926
 Alpha  occ. eigenvalues --   -0.51073  -0.50718  -0.49107  -0.44346  -0.39527
 Alpha  occ. eigenvalues --   -0.37078  -0.34509  -0.33024  -0.29910  -0.28180
 Alpha  occ. eigenvalues --   -0.23934  -0.22146  -0.21967  -0.20796  -0.18899
 Alpha  occ. eigenvalues --   -0.18475  -0.17137  -0.16400  -0.15151  -0.14412
 Alpha  occ. eigenvalues --   -0.12755  -0.12276  -0.11159  -0.10749  -0.09890
 Alpha  occ. eigenvalues --   -0.08494  -0.07737  -0.02154  -0.02128  -0.00766
 Alpha  occ. eigenvalues --    0.00504   0.01021   0.02682   0.04348   0.13356
 Alpha virt. eigenvalues --    0.15069   0.15201   0.16930   0.17007   0.18636
 Alpha virt. eigenvalues --    0.19759   0.20659   0.20809   0.21574   0.22270
 Alpha virt. eigenvalues --    0.23224   0.24134   0.25299   0.25771   0.26037

  Beta  occ. eigenvalues --  -88.68596 -18.81618 -18.77630  -9.94222  -9.94221
  Beta  occ. eigenvalues --   -9.94026  -9.94025  -9.93869  -9.93645  -9.93644
  Beta  occ. eigenvalues --   -9.93033  -9.93031  -9.92324  -9.92323  -9.91763
  Beta  occ. eigenvalues --   -9.91762  -7.76102  -5.72370  -5.72268  -5.71742
  Beta  occ. eigenvalues --   -0.73050  -0.69272  -0.61171  -0.60497  -0.53926
  Beta  occ. eigenvalues --   -0.51073  -0.50718  -0.49107  -0.44346  -0.39527
  Beta  occ. eigenvalues --   -0.37078  -0.34509  -0.33024  -0.29910  -0.28180
  Beta  occ. eigenvalues --   -0.23934  -0.22146  -0.21967  -0.20796  -0.18899
  Beta  occ. eigenvalues --   -0.18475  -0.17137  -0.16400  -0.15151  -0.14412
  Beta  occ. eigenvalues --   -0.12755  -0.12276  -0.11159  -0.10749  -0.09890
  Beta  occ. eigenvalues --   -0.08494  -0.07737  -0.02154  -0.02128  -0.00766
  Beta  occ. eigenvalues --    0.00504   0.01021   0.02682   0.04348   0.13356
  Beta virt. eigenvalues --    0.15069   0.15201   0.16930   0.17007   0.18636
  Beta virt. eigenvalues --    0.19759   0.20659   0.20809   0.21574   0.22270
  Beta virt. eigenvalues --    0.23224   0.24134   0.25299   0.25771   0.26037

 Mulliken charges and spin densities:
               1          2
     1  O   -0.511567   0.000000
     2  C   -0.421400  -0.000000
     3  C    1.592553   0.000000
     4  C    0.033956   0.000000
     5  C   -0.285297  -0.000000
     6  C    0.251688  -0.000000
     7  C   -0.329841   0.000000
     8  C   -1.128775  -0.000000
     9  S   -0.538005   0.000000
    10  O   -0.341217   0.000000
    11  C   -1.129486   0.000000
    12  C   -0.329718  -0.000000
    13  C    0.251623   0.000001
    14  C   -0.285025   0.000001
    15  C    0.034184  -0.000000
    16  C    1.592609  -0.000000
    17  H    0.157511  -0.000000
    18  H   -0.049786   0.000000
    19  H   -0.362026   0.000000
    20  H    0.026273   0.000000
    21  H    0.026200  -0.000000
    22  H   -0.362117  -0.000001
    23  H   -0.049808  -0.000000
    24  H    0.157472   0.000000
 Sum of Mulliken charges =  -2.00000   0.00000

 Dipole moment (field-independent basis, Debye):
    X=              0.0055    Y=             -0.3178    Z=              0.3813  Tot=              0.4964
 Quadrupole moment (field-independent basis, Debye-Ang):
   XX=           -184.0143   YY=           -154.3039   ZZ=           -130.9065
   XY=              0.1841   XZ=              0.0952   YZ=              1.7597

  Exact polarizability:********-196.334 880.774 -48.674 323.980 411.435
 Approx polarizability:4415.081 -21.312 833.045  -4.415 278.859 474.894

                      1                      2                      3
                      A                      A                      A
 Frequencies --     52.0491                99.3719               127.1744
 Red. masses --      6.7700                 3.7644                 7.2030
 Frc consts  --      0.0108                 0.0219                 0.0686
 IR Inten    --      1.0722               921.9719                 3.2399

                      4                      5                      6
                      A                      A                      A
 Frequencies --    152.7031               159.2238               227.6112
 Red. masses --      5.6907                 8.4943                 5.1920
 Frc consts  --      0.0782                 0.1269                 0.1585
 IR Inten    --     14.1788                73.8698                 3.5624

                      7                      8                      9
                      A                      A                      A
 Frequencies --    256.4074               292.0839               302.0739
 Red. masses --      7.9124                 9.0871                 7.0686
 Frc consts  --      0.3065                 0.4568                 0.3800
 IR Inten    --  16775.8706                16.7080               205.1323

                     10                     11                     12
                      A                      A                      A
 Frequencies --    341.5907               394.2627               403.3357
 Red. masses --      6.5561                 7.6975                 3.7757
 Frc consts  --      0.4507                 0.7050                 0.3619
 IR Inten    --     11.2286             12335.9263                43.5987

                     13                     14                     15
                      A                      A                      A
 Frequencies --    449.4398               455.0436               457.8394
 Red. masses --      3.1006                 9.5991                 9.7987
 Frc consts  --      0.3690                 1.1711                 1.2102
 IR Inten    --    348.8435                60.4731               100.0741

                     16                     17                     18
                      A                      A                      A
 Frequencies --    462.6002               518.0871               578.4840
 Red. masses --      4.9288                 7.1119                 6.9623
 Frc consts  --      0.6214                 1.1247                 1.3727
 IR Inten    --  18856.6163                 0.5390                45.2937

                     19                     20                     21
                      A                      A                      A
 Frequencies --    620.7760               627.1401               639.8556
 Red. masses --      4.0276                 3.6928                 1.8273
 Frc consts  --      0.9145                 0.8557                 0.4408
 IR Inten    --  39326.8477                35.4689             74340.3679

                     22                     23                     24
                      A                      A                      A
 Frequencies --    668.6441               697.9214               700.9549
 Red. masses --      6.1974                 1.3183                 2.7424
 Frc consts  --      1.6325                 0.3783                 0.7939
 IR Inten    --      5.5038               201.5445                 1.6534

                     25                     26                     27
                      A                      A                      A
 Frequencies --    719.4798               742.1765               766.2829
 Red. masses --      6.6226                 2.6703                 4.8784
 Frc consts  --      2.0198                 0.8666                 1.6877
 IR Inten    --    108.9918               190.3241                46.0100

                     28                     29                     30
                      A                      A                      A
 Frequencies --    794.0715               811.8936               884.3057
 Red. masses --      1.3991                 2.1643                 1.3651
 Frc consts  --      0.5198                 0.8405                 0.6290
 IR Inten    --   1438.0425               105.0563             23313.4733

                     31                     32                     33
                      A                      A                      A
 Frequencies --    892.6527               898.7671               922.2889
 Red. masses --      1.8241                 3.6166                 5.7968
 Frc consts  --      0.8564                 1.7213                 2.9052
 IR Inten    --    284.9428               211.3880              6988.3100

                     34                     35                     36
                      A                      A                      A
 Frequencies --    951.6387               960.0578               972.0836
 Red. masses --      1.5695                 1.2996                 2.2299
 Frc consts  --      0.8375                 0.7058                 1.2415
 IR Inten    --  35453.8278                16.3734             31928.3796

                     37                     38                     39
                      A                      A                      A
 Frequencies --    995.0082              1028.9933              1048.5871
 Red. masses --      3.1284                 2.5114                 3.5244
 Frc consts  --      1.8249                 1.5667                 2.2832
 IR Inten    --    263.3422               590.0178               106.3427

                     40                     41                     42
                      A                      A                      A
 Frequencies --   1092.1852              1111.0623              1144.9959
 Red. masses --      1.7173                 1.7882                 1.2509
 Frc consts  --      1.2070                 1.3006                 0.9663
 IR Inten    --  16534.2142                27.5589              7580.8751

                     43                     44                     45
                      A                      A                      A
 Frequencies --   1150.4215              1189.9101              1219.0113
 Red. masses --      1.1517                 2.6748                 1.7370
 Frc consts  --      0.8980                 2.2314                 1.5207
 IR Inten    --     66.1771                28.9827              3602.3846

                     46                     47                     48
                      A                      A                      A
 Frequencies --   1224.1139              1311.0068              1328.2816
 Red. masses --      2.2776                 3.5366                 3.2764
 Frc consts  --      2.0108                 3.5813                 3.4059
 IR Inten    --    690.6580             34422.1833               568.1304

                     49                     50                     51
                      A                      A                      A
 Frequencies --   1328.3751              1391.9950              1413.2798
 Red. masses --      5.2757                 5.7338                 2.1467
 Frc consts  --      5.4849                 6.5459                 2.5262
 IR Inten    --  14440.9056              1023.4658             30445.1361

                     52                     53                     54
                      A                      A                      A
 Frequencies --   1443.2510              1455.8567              1457.6275
 Red. masses --      2.6714                 2.8792                 2.9669
 Frc consts  --      3.2785                 3.5955                 3.7141
 IR Inten    --     93.6823               478.4841                47.1711

                     55                     56                     57
                      A                      A                      A
 Frequencies --   1500.1071              1507.8110              1568.8919
 Red. masses --      3.7690                 4.0548                 4.5157
 Frc consts  --      4.9971                 5.4315                 6.5487
 IR Inten    --     52.4008               341.1680             24068.3061

                     58                     59                     60
                      A                      A                      A
 Frequencies --   1576.1624              3094.7293              3095.0661
 Red. masses --      5.1306                 1.0841                 1.0844
 Frc consts  --      7.5097                 6.1171                 6.1204
 IR Inten    --    139.9781               216.6255               690.3854

                     61                     62                     63
                      A                      A                      A
 Frequencies --   3107.5888              3107.6943              3136.2240
 Red. masses --      1.0871                 1.0872                 1.0925
 Frc consts  --      6.1852                 6.1864                 6.3310
 IR Inten    --    137.3396                83.0935             13303.4380

                     64                     65                     66
                      A                      A                      A
 Frequencies --   3137.9660              3165.5779              3165.7781
 Red. masses --      1.0933                 1.0904                 1.0905
 Frc consts  --      6.3430                 6.4376                 6.4392
 IR Inten    --     44.6448                11.3222                52.8379

 - Thermochemistry -
 -------------------
 Temperature   298.150 Kelvin.  Pressure   1.00000 Atm.
 Atom     1 has atomic number  8 and mass  15.99491

 Molecular mass:   228.02450 amu.
 Principal axes and moments of inertia in atomic units:
                           1         2         3
     Eigenvalues --  2047.955484334.064885868.58124
           X            0.99998   0.00614   0.00138
           Y           -0.00609   0.99958  -0.02832
           Z           -0.00156   0.02831   0.99960
 This molecule is an asymmetric top.
 Rotational symmetry number  1.
 Warning -- assumption of classical behavior for rotation
           may cause significant error
 Rotational temperatures (Kelvin)      0.04229     0.01998     0.01476
 Rotational constants (GHZ):           0.88124     0.41641     0.30753
 Zero-point vibrational energy     439615.3 (Joules/Mol)
                                  105.07057 (Kcal/Mol)
 Warning -- explicit consideration of  19 degrees of freedom as
           vibrations may cause significant error
 Vibrational temperatures:     74.89   142.97   182.98   219.71   229.09
          (Kelvin)            327.48   368.91   420.24   434.62   491.47
                              567.26   580.31   646.64   654.71   658.73
                              665.58   745.41   832.31   893.16   902.31
                              920.61   962.03  1004.15  1008.52  1035.17
                             1067.83  1102.51  1142.49  1168.13  1272.32
                             1284.33  1293.13  1326.97  1369.20  1381.31
                             1398.61  1431.59  1480.49  1508.68  1571.41
                             1598.57  1647.39  1655.20  1712.02  1753.89
                             1761.23  1886.25  1911.10  1911.24  2002.77
                             2033.39  2076.52  2094.65  2097.20  2158.32
                             2169.40  2257.29  2267.75  4452.63  4453.11
                             4471.13  4471.28  4512.33  4514.83  4554.56
                             4554.85

 Zero-point correction=                           0.167441 (Hartree/Particle)
 Thermal correction to Energy=                    0.179940
 Thermal correction to Enthalpy=                  0.180884
 Thermal correction to Gibbs Free Energy=         0.128749
 Sum of electronic and zero-point Energies=          -1048.772040
 Sum of electronic and thermal Energies=             -1048.759541
 Sum of electronic and thermal Enthalpies=           -1048.758597
 Sum of electronic and thermal Free Energies=        -1048.810732

                     E (Thermal)             CV                S
                      KCal/Mol        Cal/Mol-Kelvin    Cal/Mol-Kelvin
 Total                  112.914             50.846            109.727
 Electronic               0.000              0.000              0.000
 Translational            0.889              2.981             42.175
 Rotational               0.889              2.981             32.321
 Vibrational            111.136             44.885             35.231
 Vibration     1          0.596              1.977              4.738
 Vibration     2          0.604              1.950              3.467
 Vibration     3          0.611              1.926              2.988
 Vibration     4          0.619              1.900              2.638
 Vibration     5          0.621              1.892              2.559
 Vibration     6          0.651              1.799              1.898
 Vibration     7          0.666              1.752              1.686
 Vibration     8          0.687              1.688              1.462
 Vibration     9          0.694              1.670              1.405
 Vibration    10          0.721              1.592              1.205
 Vibration    11          0.761              1.482              0.984
 Vibration    12          0.769              1.463              0.950
 Vibration    13          0.808              1.362              0.797
 Vibration    14          0.813              1.350              0.781
 Vibration    15          0.816              1.344              0.772
 Vibration    16          0.820              1.333              0.759
 Vibration    17          0.873              1.210              0.614
 Vibration    18          0.935              1.078              0.488
 Vibration    19          0.981              0.988              0.415

 Optimization completed.
    -- Stationary point found.
 Normal termination of Gaussian 16 at Tue Jan  9 21:30:06 2024.
