 Gaussian 16, Revision A.03,
 Gaussian 16:  ES64L-G16RevA.03 25-Dec-2016

 ----------------------------------------------------------------
 #P UB3LYP/6-311++G(d,p) SCRF=(PCM,Solvent=n,n-DiMethylFormamide)
 ----------------------------------------------------------------

 -------
 Reduced
 -------
 Symbolic Z-matrix:
 Charge = -2 Multiplicity = 1

                         Standard orientation:
 ---------------------------------------------------------------------
 Center     Atomic      Atomic             Coordinates (Angstroms)
 Number     Number       Type             X           Y           Z
 ---------------------------------------------------------------------
      1          8           0       -0.000013    2.791878    0.589325
      2          6           0       -0.000032    1.530626    0.308477
      3          6           0        1.227052    0.804573    0.090019
      4          6           0        2.459786    1.529259    0.052852
      5          6           0        3.654496    0.943054   -0.301463
      6          6           0        3.715201   -0.436811   -0.636750
      7          6           0        2.548278   -1.186695   -0.544237
      8          6           0        1.327396   -0.611455   -0.169024
      9         16           0       -0.000011   -1.760247    0.130000
     10          8           0        0.000040   -2.224926    1.610880
     11          6           0       -1.327349   -0.611467   -0.169110
     12          6           0       -2.548194   -1.186670   -0.544482
     13          6           0       -3.715152   -0.436828   -0.636935
     14          6           0       -3.654537    0.942970   -0.301314
     15          6           0       -2.459876    1.529172    0.053146
     16          6           0       -1.227072    0.804577    0.090102
     17          1           0        2.396070    2.583993    0.299553
     18          1           0        4.562561    1.543940   -0.332234
     19          1           0        4.651439   -0.900033   -0.936207
     20          1           0        2.573860   -2.256537   -0.745805
     21          1           0       -2.573731   -2.256484   -0.746232
     22          1           0       -4.651340   -0.900040   -0.936550
     23          1           0       -4.562638    1.543814   -0.331910
     24          1           0       -2.396237    2.583862    0.300072
 ---------------------------------------------------------------------

 SCF Done:  E(UB3LYP) =  -1049.20479100     A.U. after   20 cycles

 The electronic state is 1-A.
 Alpha  occ. eigenvalues --  -88.91396 -19.05317 -19.00726 -10.16352 -10.16351
 Alpha  occ. eigenvalues --  -10.16150 -10.16044 -10.16044 -10.15230 -10.15229
 Alpha  occ. eigenvalues --  -10.14364 -10.14363 -10.14257 -10.14256 -10.14170
 Alpha  occ. eigenvalues --  -10.14169  -7.98918  -5.95204  -5.95062  -5.94551
 Alpha  occ. eigenvalues --   -0.96743  -0.92552  -0.83475  -0.82533  -0.76175
 Alpha  occ. eigenvalues --   -0.73280  -0.72744  -0.71101  -0.66690  -0.61474
 Alpha  occ. eigenvalues --   -0.58997  -0.56439  -0.55283  -0.51728  -0.49998
 Alpha  occ. eigenvalues --   -0.45935  -0.43882  -0.43848  -0.42725  -0.41178
 Alpha  occ. eigenvalues --   -0.40440  -0.39925  -0.38486  -0.38022  -0.36337
 Alpha  occ. eigenvalues --   -0.35203  -0.34498  -0.34357  -0.32571  -0.32073
 Alpha  occ. eigenvalues --   -0.31196  -0.30510  -0.25307  -0.24625  -0.23527
 Alpha  occ. eigenvalues --   -0.21956  -0.21952  -0.21000  -0.19138  -0.09714
 Alpha virt. eigenvalues --   -0.01581  -0.00383   0.00196   0.00734   0.01292
 Alpha virt. eigenvalues --    0.01500   0.02507   0.02570   0.03586   0.04263
 Alpha virt. eigenvalues --    0.04628   0.04645   0.05562   0.06082   0.06420

  Beta  occ. eigenvalues --  -88.91396 -19.05317 -19.00726 -10.16352 -10.16351
  Beta  occ. eigenvalues --  -10.16150 -10.16044 -10.16044 -10.15230 -10.15229
  Beta  occ. eigenvalues --  -10.14364 -10.14363 -10.14257 -10.14256 -10.14170
  Beta  occ. eigenvalues --  -10.14169  -7.98918  -5.95204  -5.95062  -5.94551
  Beta  occ. eigenvalues --   -0.96743  -0.92552  -0.83475  -0.82533  -0.76175
  Beta  occ. eigenvalues --   -0.73280  -0.72744  -0.71101  -0.66690  -0.61474
  Beta  occ. eigenvalues --   -0.58997  -0.56439  -0.55283  -0.51728  -0.49998
  Beta  occ. eigenvalues --   -0.45935  -0.43882  -0.43848  -0.42725  -0.41178
  Beta  occ. eigenvalues --   -0.40440  -0.39925  -0.38486  -0.38022  -0.36337
  Beta  occ. eigenvalues --   -0.35203  -0.34498  -0.34357  -0.32571  -0.32073
  Beta  occ. eigenvalues --   -0.31196  -0.30510  -0.25307  -0.24625  -0.23527
  Beta  occ. eigenvalues --   -0.21956  -0.21952  -0.21000  -0.19138  -0.09714
  Beta virt. eigenvalues --   -0.01581  -0.00383   0.00196   0.00734   0.01292
  Beta virt. eigenvalues --    0.01500   0.02507   0.02570   0.03586   0.04263
  Beta virt. eigenvalues --    0.04628   0.04645   0.05562   0.06082   0.06420

 Mulliken charges and spin densities:
               1          2
     1  O   -0.695331   0.000000
     2  C   -0.140657  -0.000000
     3  C    1.376039   0.000000
     4  C    0.033480   0.000000
     5  C   -0.633451  -0.000000
     6  C   -0.226994   0.000000
     7  C   -0.273584  -0.000000
     8  C   -1.036937  -0.000000
     9  S   -0.408697  -0.000000
    10  O   -0.499085   0.000000
    11  C   -1.037430  -0.000000
    12  C   -0.273326   0.000000
    13  C   -0.227098  -0.000000
    14  C   -0.633250   0.000000
    15  C    0.033455  -0.000000
    16  C    1.376026   0.000000
    17  H    0.163801   0.000000
    18  H    0.154171  -0.000000
    19  H    0.155053   0.000000
    20  H    0.160416  -0.000000
    21  H    0.160404   0.000000
    22  H    0.155042  -0.000000
    23  H    0.154163  -0.000000
    24  H    0.163791   0.000000
 Sum of Mulliken charges =  -2.00000  -0.00000

 Dipole moment (field-independent basis, Debye):
    X=              0.0017    Y=             -4.2760    Z=             -6.2037  Tot=              7.5346
 Quadrupole moment (field-independent basis, Debye-Ang):
   XX=           -127.2855   YY=           -152.1420   ZZ=           -126.0706
   XY=              0.0003   XZ=             -0.0010   YZ=              6.6225

 Normal termination of Gaussian 16 at Sat Jan 13 19:22:05 2024.
