 Q-Chem 5.4, Q-Chem, Inc., Pleasanton, CA (2021)
 Q-Chem 5.4.0 for Intel X86 EM64T Linux

User input:
--------------------------------------------------------------
$molecule
-1 2
C                 -3.9435770000      0.9544450000      0.9299830000
C                 -3.2770390000     -0.0758630000     -0.0124110000
C                 -3.4728970000     -1.4751540000      0.5988300000
C                 -3.9969000000     -0.0477990000     -1.3817330000
C                 -1.7918630000      0.2787180000     -0.2003570000
C                 -1.4365540000      1.5404060000     -0.7535350000
C                 -0.1180180000      1.8951880000     -0.9372190000
C                  0.9356550000      1.0239870000     -0.5855120000
C                  2.3212120000      1.4413970000     -0.7974080000
O                  2.6131140000      2.5614630000     -1.2871080000
C                  3.3482170000      0.4738670000     -0.4038650000
C                  4.7102340000      0.8047990000     -0.5778440000
C                  5.7127220000     -0.0750460000     -0.2217260000
C                  5.3816720000     -1.3336170000      0.3282980000
C                  4.0573900000     -1.6794810000      0.5079340000
C                  3.0137730000     -0.7963980000      0.1514390000
C                  1.6247450000     -1.2099270000      0.3619770000
O                  1.3309120000     -2.3303670000      0.8518690000
C                  0.6002400000     -0.2417940000     -0.0316600000
C                 -0.7623710000     -0.5782200000      0.1453930000
H                 -5.0060570000      0.7211030000      1.0672620000
H                 -3.4612680000      0.9455760000      1.9115320000
H                 -3.8706370000      1.9701720000      0.5338290000
H                 -3.0453910000     -2.2556410000     -0.0357360000
H                 -4.5422870000     -1.6822620000      0.7137940000
H                 -3.0071850000     -1.5532120000      1.5845520000
H                 -3.9255730000      0.9344210000     -1.8551300000
H                 -5.0598490000     -0.2894550000     -1.2638770000
H                 -3.5530970000     -0.7782320000     -2.0640990000
H                 -2.2119210000      2.2444400000     -1.0396640000
H                  0.1499780000      2.8574450000     -1.3588210000
H                  4.9342970000      1.7769550000     -1.0020190000
H                  6.7543450000      0.1981300000     -0.3634300000
H                  6.1692670000     -2.0269570000      0.6089050000
H                  3.7745200000     -2.6380950000      0.9276610000
H                 -0.9498100000     -1.5549910000      0.5713850000
$end

$rem
BASIS  =  6-311++G(d,p)
GUI  =  2
JOB_TYPE  =  SP
METHOD  =  B3LYP
SCF_CONVERGENCE  = 8
SOLVENT_METHOD = sm12
$end

$smx
solvent dimethylformamide
charges CM5
$end

--------------------------------------------------------------

             Standard Nuclear Orientation (Angstroms)
    I     Atom           X                Y                Z
 ----------------------------------------------------------------
    1      C      -3.9435770000     0.9544450000     0.9299830000
    2      C      -3.2770390000    -0.0758630000    -0.0124110000
    3      C      -3.4728970000    -1.4751540000     0.5988300000
    4      C      -3.9969000000    -0.0477990000    -1.3817330000
    5      C      -1.7918630000     0.2787180000    -0.2003570000
    6      C      -1.4365540000     1.5404060000    -0.7535350000
    7      C      -0.1180180000     1.8951880000    -0.9372190000
    8      C       0.9356550000     1.0239870000    -0.5855120000
    9      C       2.3212120000     1.4413970000    -0.7974080000
   10      O       2.6131140000     2.5614630000    -1.2871080000
   11      C       3.3482170000     0.4738670000    -0.4038650000
   12      C       4.7102340000     0.8047990000    -0.5778440000
   13      C       5.7127220000    -0.0750460000    -0.2217260000
   14      C       5.3816720000    -1.3336170000     0.3282980000
   15      C       4.0573900000    -1.6794810000     0.5079340000
   16      C       3.0137730000    -0.7963980000     0.1514390000
   17      C       1.6247450000    -1.2099270000     0.3619770000
   18      O       1.3309120000    -2.3303670000     0.8518690000
   19      C       0.6002400000    -0.2417940000    -0.0316600000
   20      C      -0.7623710000    -0.5782200000     0.1453930000
   21      H      -5.0060570000     0.7211030000     1.0672620000
   22      H      -3.4612680000     0.9455760000     1.9115320000
   23      H      -3.8706370000     1.9701720000     0.5338290000
   24      H      -3.0453910000    -2.2556410000    -0.0357360000
   25      H      -4.5422870000    -1.6822620000     0.7137940000
   26      H      -3.0071850000    -1.5532120000     1.5845520000
   27      H      -3.9255730000     0.9344210000    -1.8551300000
   28      H      -5.0598490000    -0.2894550000    -1.2638770000
   29      H      -3.5530970000    -0.7782320000    -2.0640990000
   30      H      -2.2119210000     2.2444400000    -1.0396640000
   31      H       0.1499780000     2.8574450000    -1.3588210000
   32      H       4.9342970000     1.7769550000    -1.0020190000
   33      H       6.7543450000     0.1981300000    -0.3634300000
   34      H       6.1692670000    -2.0269570000     0.6089050000
   35      H       3.7745200000    -2.6380950000     0.9276610000
   36      H      -0.9498100000    -1.5549910000     0.5713850000
 ----------------------------------------------------------------

   16    -846.3099612079      6.89e-09  Convergence criterion met
 Total energy in the final basis set =     -846.3989605918

                    Orbital Energies (a.u.)
 --------------------------------------------------------------

 Alpha MOs
 -- Occupied --
-19.0778 -19.0774 -10.2269 -10.2259 -10.1953 -10.1853 -10.1828 -10.1823
-10.1800 -10.1796 -10.1790 -10.1789 -10.1782 -10.1776 -10.1769 -10.1762
-10.1719 -10.1629 -10.1629 -10.1601  -1.0040  -1.0017  -0.8692  -0.8615
 -0.8247  -0.7846  -0.7585  -0.7540  -0.7398  -0.6914  -0.6901  -0.6709
 -0.6456  -0.6247  -0.5960  -0.5670  -0.5619  -0.5374  -0.5164  -0.4799
 -0.4753  -0.4663  -0.4629  -0.4441  -0.4360  -0.4344  -0.4313  -0.4262
 -0.4223  -0.4118  -0.4077  -0.3990  -0.3951  -0.3816  -0.3805  -0.3710
 -0.3685  -0.3677  -0.3569  -0.3460  -0.3440  -0.3311  -0.3293  -0.3237
 -0.2707  -0.2657  -0.2602  -0.2509  -0.2472  -0.2382  -0.1453

 Beta MOs
 -- Occupied --
-19.0720 -19.0714 -10.2255 -10.2244 -10.1953 -10.1848 -10.1823 -10.1818
-10.1793 -10.1792 -10.1788 -10.1784 -10.1778 -10.1769 -10.1768 -10.1755
-10.1719 -10.1629 -10.1629 -10.1601  -0.9939  -0.9913  -0.8671  -0.8602
 -0.8235  -0.7813  -0.7563  -0.7523  -0.7381  -0.6910  -0.6901  -0.6639
 -0.6441  -0.6223  -0.5953  -0.5659  -0.5596  -0.5357  -0.5149  -0.4781
 -0.4737  -0.4653  -0.4617  -0.4436  -0.4355  -0.4339  -0.4310  -0.4209
 -0.4145  -0.4070  -0.4048  -0.3979  -0.3930  -0.3804  -0.3701  -0.3667
 -0.3663  -0.3581  -0.3561  -0.3425  -0.3415  -0.3286  -0.3233  -0.3232
 -0.2619  -0.2513  -0.2504  -0.2434  -0.2417  -0.2327

          Ground-State Mulliken Net Atomic Charges

     Atom                 Charge (a.u.)    Spin (a.u.)
  --------------------------------------------------------
      1 C                    -0.233945      -0.000168
      2 C                     3.265676       0.000173
      3 C                    -0.098860       0.000281
      4 C                    -0.233896      -0.000178
      5 C                     0.840617       0.024907
      6 C                     0.735575       0.036457
      7 C                    -0.013291       0.022837
      8 C                    -2.659813       0.035841
      9 C                    -2.848217       0.066156
     10 O                    -0.289271       0.217512
     11 C                    -1.374971       0.043055
     12 C                     0.041767       0.026141
     13 C                     1.057689       0.044497
     14 C                     0.964043       0.036645
     15 C                     0.000416       0.025147
     16 C                    -0.679060       0.044971
     17 C                    -1.602098       0.077209
     18 O                    -0.291634       0.225285
     19 C                    -0.533629       0.063404
     20 C                    -0.363508       0.025204
     21 H                     0.300642      -0.000190
     22 H                     0.092422      -0.000007
     23 H                     0.199567      -0.000365
     24 H                     0.108519       0.000379
     25 H                     0.343972      -0.000101
     26 H                     0.108692       0.000388
     27 H                     0.199843      -0.000355
     28 H                     0.300010      -0.000195
     29 H                     0.092487      -0.000011
     30 H                     0.299205      -0.002579
     31 H                     0.213502      -0.001612
     32 H                     0.160131      -0.001315
     33 H                     0.361579      -0.003359
     34 H                     0.363725      -0.003068
     35 H                     0.156803      -0.001837
     36 H                     0.015312      -0.001150
  --------------------------------------------------------
  Sum of atomic charges =    -1.000000

                    Cartesian Multipole Moments
 -----------------------------------------------------------------
    Charge (ESU x 10^10)
                -4.8032
    Dipole Moment (Debye)
         X     -10.1464      Y      -0.6049      Z       1.0797
       Tot      10.2216
    Quadrupole Moments (Debye-Ang)
        XX    -145.7428     XY      -7.2904     YY    -148.6555
        XZ       4.7975     YZ       9.4849     ZZ    -131.5408

 Total job time:  1309.46s(wall), 9914.40s(cpu)
        *  Thank you very much for using Q-Chem.  Have a nice day.  *
