 Gaussian 16, Revision A.03,
 Gaussian 16:  ES64L-G16RevA.03 25-Dec-2016

 --------------------------------------
 #P UB3LYP/6-311++G(d,p) nosym opt freq
 --------------------------------------

 --------
 Oxidized
 --------
 Symbolic Z-matrix:
 Charge =  0 Multiplicity = 1

 SCF Done:  E(UB3LYP) =  -783.599544729     A.U. after   16 cycles
 SCF Done:  E(UB3LYP) =  -783.626073619     A.U. after   15 cycles
 SCF Done:  E(UB3LYP) =  -783.635740833     A.U. after   15 cycles
 SCF Done:  E(UB3LYP) =  -783.643467788     A.U. after   14 cycles
 SCF Done:  E(UB3LYP) =  -783.648206055     A.U. after   14 cycles
 SCF Done:  E(UB3LYP) =  -783.653508960     A.U. after   14 cycles
 SCF Done:  E(UB3LYP) =  -783.662543246     A.U. after   15 cycles
 SCF Done:  E(UB3LYP) =  -783.665606546     A.U. after   14 cycles
 SCF Done:  E(UB3LYP) =  -783.665932969     A.U. after   13 cycles
 SCF Done:  E(UB3LYP) =  -783.666177540     A.U. after   12 cycles
 SCF Done:  E(UB3LYP) =  -783.666344337     A.U. after   11 cycles
 SCF Done:  E(UB3LYP) =  -783.666353551     A.U. after   11 cycles
 SCF Done:  E(UB3LYP) =  -783.666360297     A.U. after   10 cycles
 SCF Done:  E(UB3LYP) =  -783.666365874     A.U. after   10 cycles
 SCF Done:  E(UB3LYP) =  -783.666370397     A.U. after   10 cycles
 SCF Done:  E(UB3LYP) =  -783.666375705     A.U. after   11 cycles
 SCF Done:  E(UB3LYP) =  -783.666377224     A.U. after   10 cycles
 SCF Done:  E(UB3LYP) =  -783.666377428     A.U. after    9 cycles
 SCF Done:  E(UB3LYP) =  -783.666377479     A.U. after    9 cycles
 Optimization completed.
    -- Stationary point found.
 Normal termination of Gaussian 16 at Thu Dec 21 08:14:07 2023.

 ----------------------------------------------------------------------
 #P Geom=AllCheck Guess=TCheck SCRF=Check GenChk UB3LYP/6-311++G(d,p) F
 req
 ----------------------------------------------------------------------

 Structure from the checkpoint file:  "154.chk"
 --------
 Oxidized
 --------
 Charge =  0 Multiplicity = 1

                          Input orientation:
 ---------------------------------------------------------------------
 Center     Atomic      Atomic             Coordinates (Angstroms)
 Number     Number       Type             X           Y           Z
 ---------------------------------------------------------------------
      1          6           0       -4.404184   -0.345988    0.195955
      2          6           0       -2.926729   -0.631920    0.240641
      3          6           0       -2.453814   -1.918766    0.430818
      4          6           0       -1.087550   -2.206981    0.478855
      5          6           0       -0.164537   -1.184597    0.331634
      6          6           0        1.283546   -1.544787    0.389328
      7          8           0        1.646246   -2.698356    0.563485
      8          6           0        2.272393   -0.445279    0.226012
      9          6           0        3.639388   -0.737363    0.273140
     10          6           0        4.574968    0.278194    0.121401
     11          6           0        4.150460    1.595140   -0.079020
     12          6           0        2.793893    1.892609   -0.126932
     13          6           0        1.844561    0.876159    0.025070
     14          6           0        0.394108    1.229319   -0.030011
     15          8           0        0.073892    2.410105   -0.210646
     16          6           0       -0.592674    0.154656    0.132550
     17          6           0       -1.991912    0.435116    0.088276
     18          7           0       -2.452678    1.701249   -0.088132
     19          1           0       -4.704674    0.092563   -0.763422
     20          1           0       -4.705551    0.353717    0.984638
     21          1           0       -4.979852   -1.262139    0.331374
     22          1           0       -3.170510   -2.725505    0.546608
     23          1           0       -0.730077   -3.216942    0.629149
     24          1           0        3.941405   -1.765580    0.429314
     25          1           0        5.634010    0.049171    0.158369
     26          1           0        4.880989    2.387522   -0.197433
     27          1           0        2.444999    2.905778   -0.280891
     28          1           0       -3.436951    1.882054   -0.166943
     29          1           0       -1.773165    2.440850   -0.221758
 ---------------------------------------------------------------------

 SCF Done:  E(UB3LYP) =  -783.666377479     A.U. after    1 cycles

 Alpha  occ. eigenvalues --  -19.11912 -19.11560 -14.33659 -10.27247 -10.26863
 Alpha  occ. eigenvalues --  -10.24543 -10.20263 -10.20188 -10.19990 -10.19862
 Alpha  occ. eigenvalues --  -10.19771 -10.19587 -10.19519 -10.19367 -10.19200
 Alpha  occ. eigenvalues --  -10.19161 -10.19005 -10.18139  -1.05241  -1.04935
 Alpha  occ. eigenvalues --   -0.94743  -0.88464  -0.86522  -0.81545  -0.78130
 Alpha  occ. eigenvalues --   -0.77249  -0.75617  -0.72004  -0.67837  -0.65667
 Alpha  occ. eigenvalues --   -0.63747  -0.60960  -0.58490  -0.57528  -0.54600
 Alpha  occ. eigenvalues --   -0.52861  -0.50640  -0.49644  -0.47572  -0.47044
 Alpha  occ. eigenvalues --   -0.46633  -0.45502  -0.44647  -0.44399  -0.43932
 Alpha  occ. eigenvalues --   -0.43851  -0.42678  -0.40806  -0.40772  -0.39084
 Alpha  occ. eigenvalues --   -0.38958  -0.37953  -0.37017  -0.36456  -0.36200
 Alpha  occ. eigenvalues --   -0.33199  -0.28151  -0.27641  -0.27239  -0.26836
 Alpha  occ. eigenvalues --   -0.26348  -0.22406
 Alpha virt. eigenvalues --   -0.10798  -0.06159  -0.03113  -0.01747  -0.01197
 Alpha virt. eigenvalues --   -0.00442   0.00296   0.01449   0.01708   0.02449
 Alpha virt. eigenvalues --    0.02962   0.03584   0.03891   0.04066   0.04782

  Beta  occ. eigenvalues --  -19.11912 -19.11560 -14.33659 -10.27247 -10.26863
  Beta  occ. eigenvalues --  -10.24543 -10.20263 -10.20188 -10.19990 -10.19862
  Beta  occ. eigenvalues --  -10.19771 -10.19587 -10.19519 -10.19367 -10.19200
  Beta  occ. eigenvalues --  -10.19161 -10.19005 -10.18139  -1.05241  -1.04935
  Beta  occ. eigenvalues --   -0.94743  -0.88464  -0.86522  -0.81545  -0.78130
  Beta  occ. eigenvalues --   -0.77249  -0.75617  -0.72004  -0.67837  -0.65667
  Beta  occ. eigenvalues --   -0.63747  -0.60960  -0.58490  -0.57528  -0.54600
  Beta  occ. eigenvalues --   -0.52861  -0.50640  -0.49644  -0.47572  -0.47044
  Beta  occ. eigenvalues --   -0.46633  -0.45502  -0.44647  -0.44399  -0.43932
  Beta  occ. eigenvalues --   -0.43851  -0.42678  -0.40806  -0.40772  -0.39084
  Beta  occ. eigenvalues --   -0.38958  -0.37953  -0.37017  -0.36456  -0.36200
  Beta  occ. eigenvalues --   -0.33199  -0.28151  -0.27641  -0.27239  -0.26836
  Beta  occ. eigenvalues --   -0.26348  -0.22406
  Beta virt. eigenvalues --   -0.10798  -0.06159  -0.03113  -0.01747  -0.01197
  Beta virt. eigenvalues --   -0.00442   0.00296   0.01449   0.01708   0.02449
  Beta virt. eigenvalues --    0.02962   0.03584   0.03891   0.04066   0.04782

 Mulliken charges and spin densities:
               1          2
     1  C   -0.425442  -0.000000
     2  C    0.750357  -0.000000
     3  C   -0.781638  -0.000000
     4  C   -0.128645  -0.000000
     5  C    0.545492  -0.000000
     6  C   -0.786820   0.000000
     7  O   -0.215150  -0.000000
     8  C    0.041476   0.000000
     9  C    0.164173   0.000000
    10  C   -0.370982   0.000000
    11  C   -0.445744   0.000000
    12  C    0.221742  -0.000000
    13  C    0.157370  -0.000000
    14  C   -0.494893  -0.000000
    15  O   -0.262016  -0.000000
    16  C    0.110776   0.000000
    17  C    0.182560   0.000000
    18  N   -0.406511  -0.000000
    19  H    0.167534  -0.000000
    20  H    0.169380  -0.000000
    21  H    0.170943   0.000000
    22  H    0.131239  -0.000000
    23  H    0.182074  -0.000000
    24  H    0.180734  -0.000000
    25  H    0.173442   0.000000
    26  H    0.173232   0.000000
    27  H    0.183371   0.000000
    28  H    0.271655   0.000000
    29  H    0.340291  -0.000000
 Sum of Mulliken charges =  -0.00000  -0.00000

 Dipole moment (field-independent basis, Debye):
    X=             -2.2875    Y=              1.3952    Z=             -0.3089  Tot=              2.6972
 Quadrupole moment (field-independent basis, Debye-Ang):
   XX=            -76.9135   YY=           -110.1615   ZZ=           -108.2471
   XY=              5.6963   XZ=             -0.8308   YZ=              0.3182

  Exact polarizability: 299.703  11.884 209.219  -1.395 -17.133  96.681
 Approx polarizability: 433.789  -3.378 401.173   0.938 -37.001 157.976

                      1                      2                      3
                      A                      A                      A
 Frequencies --     36.5708                59.2213               101.3972
 Red. masses --      6.0555                 5.9956                 3.8339
 Frc consts  --      0.0048                 0.0124                 0.0232
 IR Inten    --      9.2373                21.8458                 9.8753

                      4                      5                      6
                      A                      A                      A
 Frequencies --    117.9285               150.7732               181.5330
 Red. masses --      4.2522                 1.4037                 3.8133
 Frc consts  --      0.0348                 0.0188                 0.0740
 IR Inten    --      7.2312                59.7741                15.3655

                      7                      8                      9
                      A                      A                      A
 Frequencies --    200.3513               209.6691               256.0955
 Red. masses --      4.2853                 1.1457                 5.7748
 Frc consts  --      0.1013                 0.0297                 0.2231
 IR Inten    --      0.8476                 8.9536                 0.0655

                     10                     11                     12
                      A                      A                      A
 Frequencies --    295.8343               307.6884               329.4745
 Red. masses --      4.3954                 2.9211                 6.4187
 Frc consts  --      0.2266                 0.1629                 0.4105
 IR Inten    --      0.6584                23.8981                 0.2854

                     13                     14                     15
                      A                      A                      A
 Frequencies --    360.5503               390.1287               421.9326
 Red. masses --      4.0815                 6.8021                 8.7418
 Frc consts  --      0.3126                 0.6100                 0.9169
 IR Inten    --      2.9824                 2.9801                21.4403

                     16                     17                     18
                      A                      A                      A
 Frequencies --    428.4389               445.4945               472.3609
 Red. masses --      3.3487                 4.8904                 9.7725
 Frc consts  --      0.3622                 0.5718                 1.2847
 IR Inten    --      0.3853                 2.8051                 0.1828

                     19                     20                     21
                      A                      A                      A
 Frequencies --    475.1640               496.6683               568.4375
 Red. masses --      4.5094                 3.5893                 5.7033
 Frc consts  --      0.5999                 0.5217                 1.0858
 IR Inten    --      6.0063                 9.5477                 0.7349

                     22                     23                     24
                      A                      A                      A
 Frequencies --    578.0551               608.0776               667.0307
 Red. masses --      4.9445                 5.1365                 1.5602
 Frc consts  --      0.9734                 1.1190                 0.4090
 IR Inten    --      0.2889                 2.5886                 9.0670

                     25                     26                     27
                      A                      A                      A
 Frequencies --    670.0747               692.6237               696.6178
 Red. masses --      6.4926                 5.6585                 2.0817
 Frc consts  --      1.7176                 1.5994                 0.5952
 IR Inten    --     10.3149                 0.6764                 3.8939

                     28                     29                     30
                      A                      A                      A
 Frequencies --    733.1275               750.7946               753.3482
 Red. masses --      2.4303                 5.8252                 3.5971
 Frc consts  --      0.7696                 1.9346                 1.2028
 IR Inten    --     60.5564                 0.4925                33.2729

                     31                     32                     33
                      A                      A                      A
 Frequencies --    799.5875               812.2938               817.2298
 Red. masses --      2.8909                 2.4258                 5.6382
 Frc consts  --      1.0890                 0.9430                 2.2186
 IR Inten    --      0.3292                 2.4958                 4.6391

                     34                     35                     36
                      A                      A                      A
 Frequencies --    861.5197               909.1001               915.1713
 Red. masses --      1.5173                 6.7196                 1.3971
 Frc consts  --      0.6635                 3.2720                 0.6894
 IR Inten    --     21.1761                18.5454                 0.0767

                     37                     38                     39
                      A                      A                      A
 Frequencies --    968.0086               976.0156              1001.8913
 Red. masses --      2.6841                 1.3462                 1.3824
 Frc consts  --      1.4819                 0.7556                 0.8176
 IR Inten    --     23.3995                 0.0933                 1.9751

                     40                     41                     42
                      A                      A                      A
 Frequencies --   1002.0720              1016.6572              1053.1491
 Red. masses --      2.0070                 1.3225                 2.1407
 Frc consts  --      1.1874                 0.8054                 1.3989
 IR Inten    --     94.4734                 0.0008                 2.3963

                     43                     44                     45
                      A                      A                      A
 Frequencies --   1057.3272              1068.1307              1112.1527
 Red. masses --      1.5094                 2.3079                 2.2765
 Frc consts  --      0.9942                 1.5514                 1.6590
 IR Inten    --      1.1759                 4.6783                 0.3008

                     46                     47                     48
                      A                      A                      A
 Frequencies --   1145.7149              1176.5696              1182.1595
 Red. masses --      1.8194                 1.6660                 1.1466
 Frc consts  --      1.4071                 1.3588                 0.9441
 IR Inten    --      3.7124                 9.7818                 7.5995

                     49                     50                     51
                      A                      A                      A
 Frequencies --   1215.1589              1219.8443              1274.9281
 Red. masses --      2.0482                 3.3143                 1.7479
 Frc consts  --      1.7820                 2.9057                 1.6740
 IR Inten    --     11.3535                 3.1352                 9.2529

                     52                     53                     54
                      A                      A                      A
 Frequencies --   1294.9015              1315.8535              1355.8141
 Red. masses --      5.0999                 1.9824                 3.9866
 Frc consts  --      5.0383                 2.0224                 4.3177
 IR Inten    --    757.5291                61.4969                 3.1212

                     55                     56                     57
                      A                      A                      A
 Frequencies --   1358.0160              1381.1714              1408.8222
 Red. masses --      7.3852                 5.5929                 1.5433
 Frc consts  --      8.0245                 6.2861                 1.8047
 IR Inten    --     12.8139                10.4482                41.6170

                     58                     59                     60
                      A                      A                      A
 Frequencies --   1436.1760              1479.7084              1486.7677
 Red. masses --      2.3148                 2.5399                 1.0430
 Frc consts  --      2.8130                 3.2766                 1.3584
 IR Inten    --     62.2375                 3.5371                 9.2884

                     61                     62                     63
                      A                      A                      A
 Frequencies --   1490.9838              1503.9743              1508.5431
 Red. masses --      3.1928                 1.1880                 2.4582
 Frc consts  --      4.1818                 1.5832                 3.2959
 IR Inten    --      8.2766                 5.1125                 0.6538

                     64                     65                     66
                      A                      A                      A
 Frequencies --   1585.3011              1603.9905              1612.6319
 Red. masses --      2.8531                 3.6520                 6.5944
 Frc consts  --      4.2246                 5.5359                10.1041
 IR Inten    --    273.9101                19.2852                 7.2029

                     67                     68                     69
                      A                      A                      A
 Frequencies --   1629.2510              1638.8190              1673.3246
 Red. masses --      5.6853                 2.6071                 7.0600
 Frc consts  --      8.8917                 4.1254                11.6470
 IR Inten    --     62.2783               200.7568               103.2487

                     70                     71                     72
                      A                      A                      A
 Frequencies --   1717.9991              3003.3167              3044.5449
 Red. masses --     12.0043                 1.0410                 1.0998
 Frc consts  --     20.8752                 5.5322                 6.0063
 IR Inten    --    195.5795                36.6198                17.5870

                     73                     74                     75
                      A                      A                      A
 Frequencies --   3110.8846              3162.3639              3168.3069
 Red. masses --      1.0959                 1.0898                 1.0869
 Frc consts  --      6.2487                 6.4211                 6.4285
 IR Inten    --     12.9045                19.3284                 3.7398

                     76                     77                     78
                      A                      A                      A
 Frequencies --   3183.1863              3200.5121              3204.6659
 Red. masses --      1.0921                 1.0930                 1.0936
 Frc consts  --      6.5200                 6.5966                 6.6175
 IR Inten    --     14.0392                 3.7698                 9.4635

                     79                     80                     81
                      A                      A                      A
 Frequencies --   3208.7220              3501.1590              3715.6381
 Red. masses --      1.0921                 1.0565                 1.0941
 Frc consts  --      6.6249                 7.6303                 8.8994
 IR Inten    --      1.4583                78.6436                88.6856

 - Thermochemistry -
 -------------------
 Temperature   298.150 Kelvin.  Pressure   1.00000 Atm.
 Atom     1 has atomic number  6 and mass  12.00000

 Molecular mass:   237.07898 amu.
 Principal axes and moments of inertia in atomic units:
                           1         2         3
     Eigenvalues --  2007.798565725.988727722.49665
           X            0.99254  -0.12194  -0.00174
           Y            0.12086   0.98162   0.14773
           Z           -0.01630  -0.14684   0.98903
 This molecule is an asymmetric top.
 Rotational symmetry number  1.
 Warning -- assumption of classical behavior for rotation
           may cause significant error
 Rotational temperatures (Kelvin)      0.04314     0.01513     0.01122
 Rotational constants (GHZ):           0.89887     0.31518     0.23370
 Zero-point vibrational energy     586322.7 (Joules/Mol)
                                  140.13448 (Kcal/Mol)
 Warning -- explicit consideration of  23 degrees of freedom as
           vibrations may cause significant error
 Vibrational temperatures:     52.62    85.21   145.89   169.67   216.93
          (Kelvin)            261.19   288.26   301.67   368.46   425.64
                              442.69   474.04   518.75   561.31   607.07
                              616.43   640.97   679.62   683.66   714.59
                              817.85   831.69   874.89   959.71   964.09
                              996.53  1002.28  1054.81  1080.23  1083.90
                             1150.43  1168.71  1175.81  1239.53  1307.99
                             1316.73  1392.75  1404.27  1441.50  1441.76
                             1462.74  1515.25  1521.26  1536.80  1600.14
                             1648.43  1692.82  1700.86  1748.34  1755.08
                             1834.34  1863.07  1893.22  1950.71  1953.88
                             1987.20  2026.98  2066.34  2128.97  2139.13
                             2145.19  2163.88  2170.46  2280.89  2307.78
                             2320.22  2344.13  2357.90  2407.54  2471.82
                             4321.10  4380.42  4475.87  4549.94  4558.49
                             4579.90  4604.82  4610.80  4616.64  5037.39
                             5345.97

 Zero-point correction=                           0.223319 (Hartree/Particle)
 Thermal correction to Energy=                    0.237698
 Thermal correction to Enthalpy=                  0.238642
 Thermal correction to Gibbs Free Energy=         0.182029
 Sum of electronic and zero-point Energies=           -783.443059
 Sum of electronic and thermal Energies=              -783.428679
 Sum of electronic and thermal Enthalpies=            -783.427735
 Sum of electronic and thermal Free Energies=         -783.484348

                     E (Thermal)             CV                S
                      KCal/Mol        Cal/Mol-Kelvin    Cal/Mol-Kelvin
 Total                  149.158             57.305            119.152
 Electronic               0.000              0.000              0.000
 Translational            0.889              2.981             42.291
 Rotational               0.889              2.981             32.851
 Vibrational            147.380             51.343             44.010
 Vibration     1          0.594              1.982              5.437
 Vibration     2          0.597              1.974              4.483
 Vibration     3          0.604              1.948              3.427
 Vibration     4          0.608              1.934              3.134
 Vibration     5          0.618              1.902              2.662
 Vibration     6          0.630              1.865              2.313
 Vibration     7          0.638              1.839              2.130
 Vibration     8          0.642              1.826              2.047
 Vibration     9          0.666              1.752              1.688
 Vibration    10          0.690              1.681              1.440
 Vibration    11          0.698              1.659              1.375
 Vibration    12          0.712              1.617              1.263
 Vibration    13          0.735              1.554              1.120
 Vibration    14          0.758              1.491              1.000
 Vibration    15          0.784              1.423              0.885
 Vibration    16          0.790              1.408              0.864
 Vibration    17          0.805              1.371              0.810
 Vibration    18          0.829              1.311              0.731
 Vibration    19          0.832              1.305              0.723
 Vibration    20          0.852              1.257              0.667
 Vibration    21          0.924              1.100              0.507
 Vibration    22          0.935              1.079              0.489
 Vibration    23          0.967              1.015              0.436

                           ! Non-Optimized Parameters !
 Normal termination of Gaussian 16 at Thu Dec 21 09:41:11 2023.
