 Q-Chem 5.4, Q-Chem, Inc., Pleasanton, CA (2021)
 Q-Chem 5.4.0 for Intel X86 EM64T Linux

User input:
--------------------------------------------------------------
$molecule
-1 2
C                  1.3692450000      1.1349290000     -2.6834090000
C                 -0.0352210000      1.4745390000     -2.8705030000
C                 -1.0536070000      0.9675260000     -2.1186070000
C                 -0.7698620000      0.0163270000     -1.0378530000
C                  0.6106640000     -0.3312160000     -0.8478160000
O                  2.2615570000      1.6999300000     -3.3629550000
O                 -1.6980010000     -0.4652180000     -0.3278360000
H                 -0.2334920000      2.1964320000     -3.6593120000
C                  1.6445240000      0.1505650000     -1.6367070000
C                  3.0189030000     -0.3081650000     -1.3258290000
C                  4.0271530000     -0.5300600000     -2.4275390000
C                  5.3880730000     -0.4671060000     -2.1085800000
C                  3.6537290000     -0.9034230000     -3.7225160000
C                  6.3575610000     -0.7481330000     -3.0675060000
C                  5.9757830000     -1.1266520000     -4.3549900000
C                  4.6206220000     -1.2111720000     -4.6758970000
O                  3.3584190000     -0.5908570000     -0.1772210000
H                  5.6668770000     -0.1979360000     -1.0967880000
H                  2.6037320000     -0.9517680000     -3.9803860000
H                  7.4099580000     -0.6783570000     -2.8107470000
H                  6.7286290000     -1.3536060000     -5.1033480000
H                  4.3164790000     -1.5060570000     -5.6749200000
C                 -2.4898930000      1.3520370000     -2.3429160000
H                  0.8349530000     -1.0278550000     -0.0473190000
H                 -2.5850940000      2.0606790000     -3.1699980000
H                 -2.9176710000      1.7975790000     -1.4389330000
H                 -3.0983720000      0.4673090000     -2.5570790000
$end
$rem
MAX_SCF_CYCLES=200
BASIS  =  6-311++G(d,p)
GUI  =  2
JOB_TYPE  =  SP
METHOD  =  B3LYP
SOLVENT_METHOD = PCM
$end
$pcm
theory = CPCM
$end
$solvent
dielectric 37.219
opticaldielectric 1.43
$end

--------------------------------------------------------------

             Standard Nuclear Orientation (Angstroms)
    I     Atom           X                Y                Z
 ----------------------------------------------------------------
    1      C       1.3692450000     1.1349290000    -2.6834090000
    2      C      -0.0352210000     1.4745390000    -2.8705030000
    3      C      -1.0536070000     0.9675260000    -2.1186070000
    4      C      -0.7698620000     0.0163270000    -1.0378530000
    5      C       0.6106640000    -0.3312160000    -0.8478160000
    6      O       2.2615570000     1.6999300000    -3.3629550000
    7      O      -1.6980010000    -0.4652180000    -0.3278360000
    8      H      -0.2334920000     2.1964320000    -3.6593120000
    9      C       1.6445240000     0.1505650000    -1.6367070000
   10      C       3.0189030000    -0.3081650000    -1.3258290000
   11      C       4.0271530000    -0.5300600000    -2.4275390000
   12      C       5.3880730000    -0.4671060000    -2.1085800000
   13      C       3.6537290000    -0.9034230000    -3.7225160000
   14      C       6.3575610000    -0.7481330000    -3.0675060000
   15      C       5.9757830000    -1.1266520000    -4.3549900000
   16      C       4.6206220000    -1.2111720000    -4.6758970000
   17      O       3.3584190000    -0.5908570000    -0.1772210000
   18      H       5.6668770000    -0.1979360000    -1.0967880000
   19      H       2.6037320000    -0.9517680000    -3.9803860000
   20      H       7.4099580000    -0.6783570000    -2.8107470000
   21      H       6.7286290000    -1.3536060000    -5.1033480000
   22      H       4.3164790000    -1.5060570000    -5.6749200000
   23      C      -2.4898930000     1.3520370000    -2.3429160000
   24      H       0.8349530000    -1.0278550000    -0.0473190000
   25      H      -2.5850940000     2.0606790000    -3.1699980000
   26      H      -2.9176710000     1.7975790000    -1.4389330000
   27      H      -3.0983720000     0.4673090000    -2.5570790000
 ----------------------------------------------------------------

    8    -765.5338518176      9.80e-06  Convergence criterion met
 Total energy in the final basis set =     -765.5338518176

                    Orbital Energies (a.u.)
 --------------------------------------------------------------

 Alpha MOs
 -- Occupied --
-19.1109 -19.0858 -19.0854 -10.2636 -10.2344 -10.2256 -10.1853 -10.1818
-10.1805 -10.1799 -10.1786 -10.1775 -10.1770 -10.1767 -10.1731 -10.1651
-10.1591  -1.0431  -1.0113  -1.0063  -0.8636  -0.8339  -0.7823  -0.7614
 -0.7519  -0.7033  -0.6905  -0.6342  -0.6114  -0.5962  -0.5832  -0.5460
 -0.5106  -0.4906  -0.4785  -0.4597  -0.4536  -0.4432  -0.4382  -0.4291
 -0.4242  -0.4233  -0.4114  -0.4069  -0.3933  -0.3881  -0.3764  -0.3739
 -0.3659  -0.3602  -0.3587  -0.3457  -0.2889  -0.2753  -0.2644  -0.2600
 -0.2548  -0.2488  -0.2391  -0.1717

 Beta MOs
 -- Occupied --
-19.1102 -19.0801 -19.0784 -10.2634 -10.2335 -10.2242 -10.1853 -10.1814
-10.1805 -10.1799 -10.1786 -10.1775 -10.1770 -10.1755 -10.1708 -10.1643
-10.1592  -1.0418  -1.0013  -0.9937  -0.8635  -0.8282  -0.7800  -0.7606
 -0.7517  -0.6998  -0.6827  -0.6323  -0.6112  -0.5930  -0.5806  -0.5446
 -0.5087  -0.4888  -0.4762  -0.4587  -0.4514  -0.4406  -0.4359  -0.4263
 -0.4220  -0.4190  -0.4058  -0.4047  -0.3873  -0.3813  -0.3719  -0.3638
 -0.3598  -0.3568  -0.3503  -0.3446  -0.2752  -0.2647  -0.2593  -0.2531
 -0.2490  -0.2432  -0.2344

          Ground-State Mulliken Net Atomic Charges

     Atom                 Charge (a.u.)    Spin (a.u.)
  --------------------------------------------------------
      1 C                    -1.097605       0.047455
      2 C                    -0.495291       0.061989
      3 C                     0.879639       0.033448
      4 C                    -0.760348       0.115495
      5 C                     0.308668       0.138719
      6 O                    -0.423072       0.209026
      7 O                    -0.486176       0.260376
      8 H                     0.195128      -0.005728
      9 C                     1.486966       0.083654
     10 C                    -1.208515       0.026783
     11 C                     1.342704      -0.004222
     12 C                     0.319754      -0.002120
     13 C                    -0.925501       0.013874
     14 C                    -0.457437       0.001564
     15 C                    -0.313343       0.003071
     16 C                    -0.399359      -0.004485
     17 O                    -0.315841       0.022358
     18 H                     0.219542      -0.000441
     19 H                     0.193336       0.001831
     20 H                     0.211426       0.000075
     21 H                     0.197869      -0.000144
     22 H                     0.215188      -0.000082
     23 C                    -0.433086       0.007521
     24 H                     0.227225      -0.012974
     25 H                     0.158885      -0.000414
     26 H                     0.179318       0.001457
     27 H                     0.179927       0.001913
  --------------------------------------------------------
  Sum of atomic charges =    -1.000000

                    Cartesian Multipole Moments
 -----------------------------------------------------------------
    Charge (ESU x 10^10)
                -4.8032
    Dipole Moment (Debye)
         X      -4.5623      Y      -1.3779      Z       4.3396
       Tot       6.4455
    Quadrupole Moments (Debye-Ang)
        XX    -121.8263     XY     -11.4905     YY    -110.8103
        XZ      10.2764     YZ      15.0291     ZZ    -113.2586

 Total job time:  45.64s(wall), 347.59s(cpu)
        *  Thank you very much for using Q-Chem.  Have a nice day.  *
