 Gaussian 16, Revision A.03,
 Gaussian 16:  ES64L-G16RevA.03 25-Dec-2016

 ----------------------------------------------------------------------
 #P UB3LYP/6-311++G(d,p) nosym opt freq SCRF=(PCM,Solvent=n,n-DiMethylF
 ormamide)
 ----------------------------------------------------------------------

 -------
 Reduced
 -------
 Symbolic Z-matrix:
 Charge = -2 Multiplicity = 1

 SCF Done:  E(UB3LYP) =  -2220.33041530     A.U. after   19 cycles
 SCF Done:  E(UB3LYP) =  -2220.33279837     A.U. after   14 cycles
 SCF Done:  E(UB3LYP) =  -2220.33421608     A.U. after   14 cycles
 SCF Done:  E(UB3LYP) =  -2220.33462437     A.U. after   14 cycles
 SCF Done:  E(UB3LYP) =  -2220.33498589     A.U. after   13 cycles
 SCF Done:  E(UB3LYP) =  -2220.33505818     A.U. after   13 cycles
 SCF Done:  E(UB3LYP) =  -2220.33502881     A.U. after   13 cycles
 SCF Done:  E(UB3LYP) =  -2220.33512459     A.U. after   12 cycles
 SCF Done:  E(UB3LYP) =  -2220.33512665     A.U. after   11 cycles
 Optimization completed.
    -- Stationary point found.
 Normal termination of Gaussian 16 at Sun Feb 11 15:54:44 2024.

 ----------------------------------------------------------------------
 #P Geom=AllCheck Guess=TCheck SCRF=Check GenChk UB3LYP/6-311++G(d,p) F
 req
 ----------------------------------------------------------------------

 Structure from the checkpoint file:  "317-an.chk"
 -------
 Reduced
 -------
 Charge = -2 Multiplicity = 1

                          Input orientation:
 ---------------------------------------------------------------------
 Center     Atomic      Atomic             Coordinates (Angstroms)
 Number     Number       Type             X           Y           Z
 ---------------------------------------------------------------------
      1         17           0        3.110027    0.388331   -0.011224
      2          6           0        1.356806    0.169464   -0.005827
      3          6           0        0.793272   -1.126697   -0.057947
      4         17           0        1.873844   -2.538451   -0.127784
      5          6           0       -0.597324   -1.398211   -0.060467
      6          8           0       -1.086191   -2.579542   -0.116712
      7          6           0       -1.505464   -0.216995    0.009338
      8          8           0       -2.774150   -0.384537    0.023731
      9          6           0       -0.885311    1.055875    0.055125
     10          6           0        0.513025    1.266712    0.049220
     11         17           0        1.175434    2.903392    0.110390
     12         17           0       -1.973969    2.461059    0.126159
 ---------------------------------------------------------------------

 SCF Done:  E(UB3LYP) =  -2220.33512665     A.U. after    1 cycles

 Alpha  occ. eigenvalues -- -101.54636-101.54633-101.53343-101.53341 -19.03315
 Alpha  occ. eigenvalues --  -19.03308 -10.21589 -10.21533 -10.19585 -10.19579
 Alpha  occ. eigenvalues --  -10.19438 -10.19411  -9.46095  -9.46092  -9.44789
 Alpha  occ. eigenvalues --   -9.44787  -7.22548  -7.22545  -7.21589  -7.21586
 Alpha  occ. eigenvalues --   -7.21544  -7.21541  -7.21209  -7.21207  -7.20312
 Alpha  occ. eigenvalues --   -7.20310  -7.20251  -7.20249  -0.96690  -0.93585
 Alpha  occ. eigenvalues --   -0.89414  -0.85529  -0.83289  -0.82128  -0.77248
 Alpha  occ. eigenvalues --   -0.67490  -0.66768  -0.55539  -0.55347  -0.48712
 Alpha  occ. eigenvalues --   -0.46536  -0.42761  -0.41128  -0.40742  -0.39534
 Alpha  occ. eigenvalues --   -0.36867  -0.36795  -0.35867  -0.35818  -0.32393
 Alpha  occ. eigenvalues --   -0.32387  -0.31632  -0.31365  -0.29677  -0.28530
 Alpha  occ. eigenvalues --   -0.28495  -0.26871  -0.21930  -0.20230  -0.19511
 Alpha  occ. eigenvalues --   -0.14441
 Alpha virt. eigenvalues --   -0.02394   0.01671   0.01812   0.02766   0.02925
 Alpha virt. eigenvalues --    0.02995   0.03865   0.04597   0.05350   0.05467
 Alpha virt. eigenvalues --    0.06289   0.07147   0.07410   0.08106   0.08739

  Beta  occ. eigenvalues -- -101.54636-101.54633-101.53343-101.53341 -19.03315
  Beta  occ. eigenvalues --  -19.03308 -10.21589 -10.21533 -10.19585 -10.19579
  Beta  occ. eigenvalues --  -10.19438 -10.19411  -9.46095  -9.46092  -9.44789
  Beta  occ. eigenvalues --   -9.44787  -7.22548  -7.22545  -7.21589  -7.21586
  Beta  occ. eigenvalues --   -7.21544  -7.21541  -7.21209  -7.21207  -7.20312
  Beta  occ. eigenvalues --   -7.20310  -7.20251  -7.20249  -0.96690  -0.93585
  Beta  occ. eigenvalues --   -0.89414  -0.85529  -0.83289  -0.82128  -0.77248
  Beta  occ. eigenvalues --   -0.67490  -0.66768  -0.55539  -0.55347  -0.48712
  Beta  occ. eigenvalues --   -0.46536  -0.42761  -0.41128  -0.40742  -0.39534
  Beta  occ. eigenvalues --   -0.36867  -0.36795  -0.35867  -0.35818  -0.32393
  Beta  occ. eigenvalues --   -0.32387  -0.31632  -0.31365  -0.29677  -0.28530
  Beta  occ. eigenvalues --   -0.28495  -0.26871  -0.21930  -0.20230  -0.19511
  Beta  occ. eigenvalues --   -0.14441
  Beta virt. eigenvalues --   -0.02394   0.01671   0.01812   0.02766   0.02925
  Beta virt. eigenvalues --    0.02995   0.03865   0.04597   0.05350   0.05467
  Beta virt. eigenvalues --    0.06289   0.07147   0.07410   0.08106   0.08739

 Mulliken charges and spin densities:
               1          2
     1  Cl   0.467883  -0.000000
     2  C   -0.552815  -0.000000
     3  C    0.313746  -0.000000
     4  Cl   0.154809   0.000000
     5  C   -0.775567   0.000000
     6  O   -0.609325   0.000000
     7  C   -0.779391   0.000000
     8  O   -0.608759   0.000000
     9  C    0.315531  -0.000000
    10  C   -0.548170  -0.000000
    11  Cl   0.467520   0.000000
    12  Cl   0.154538   0.000000
 Sum of Mulliken charges =  -2.00000  -0.00000

 Dipole moment (field-independent basis, Debye):
    X=              8.7753    Y=              6.7392    Z=              0.2135  Tot=             11.0665
 Quadrupole moment (field-independent basis, Debye-Ang):
   XX=           -148.1380   YY=           -144.2251   ZZ=           -102.7719
   XY=             -7.2156   XZ=              0.2056   YZ=             -1.8499

  Exact polarizability: 257.777   0.634 257.194  -1.548   6.575 109.164
 Approx polarizability: 286.019   8.568 281.118  -1.371   7.086 120.738

                      1                      2                      3
                      A                      A                      A
 Frequencies --     60.0087                69.6340               120.2318
 Red. masses --     25.0547                30.0930                17.6491
 Frc consts  --      0.0532                 0.0860                 0.1503
 IR Inten    --      4.5209                 0.0511                 0.0541

                      4                      5                      6
                      A                      A                      A
 Frequencies --    165.5148               209.3430               212.7893
 Red. masses --     13.9060                30.5636                28.8530
 Frc consts  --      0.2245                 0.7892                 0.7697
 IR Inten    --      1.4009                 2.3588                 2.7716

                      7                      8                      9
                      A                      A                      A
 Frequencies --    222.8458               278.3365               288.2120
 Red. masses --     34.8310                12.4880                18.8744
 Frc consts  --      1.0191                 0.5700                 0.9237
 IR Inten    --      0.1119                 0.0085                 2.4996

                     10                     11                     12
                      A                      A                      A
 Frequencies --    296.5321               303.3840               335.7257
 Red. masses --     12.6694                27.2772                27.8495
 Frc consts  --      0.6564                 1.4792                 1.8494
 IR Inten    --      2.5875                 6.5042                 0.8703

                     13                     14                     15
                      A                      A                      A
 Frequencies --    379.7394               413.7313               477.8694
 Red. masses --     17.0725                19.0645                16.7644
 Frc consts  --      1.4505                 1.9227                 2.2556
 IR Inten    --      0.3146                 4.3969                 0.6811

                     16                     17                     18
                      A                      A                      A
 Frequencies --    509.7206               582.3318               651.8476
 Red. masses --     12.0151                12.2887                13.8240
 Frc consts  --      1.8392                 2.4553                 3.4608
 IR Inten    --      0.0148                18.4467               154.0055

                     19                     20                     21
                      A                      A                      A
 Frequencies --    737.6487               755.2969               768.5736
 Red. masses --     12.9971                13.3020                12.2220
 Frc consts  --      4.1667                 4.4710                 4.2537
 IR Inten    --    154.1894                95.5200                 0.1477

                     22                     23                     24
                      A                      A                      A
 Frequencies --    910.0006               939.4975              1220.9837
 Red. masses --     13.0255                12.5014                12.0595
 Frc consts  --      6.3552                 6.5013                10.5925
 IR Inten    --     19.2608               101.3215               161.3428

                     25                     26                     27
                      A                      A                      A
 Frequencies --   1237.2948              1289.4851              1402.0718
 Red. masses --     12.3868                12.3533                12.5942
 Frc consts  --     11.1727                12.1022                14.5869
 IR Inten    --     19.6587               110.9010               136.4257

                     28                     29                     30
                      A                      A                      A
 Frequencies --   1469.8601              1472.0567              1507.8599
 Red. masses --     12.4830                12.1746                12.2364
 Frc consts  --     15.8899                15.5437                16.3917
 IR Inten    --   1611.6892               385.4536               544.1309

 - Thermochemistry -
 -------------------
 Temperature   298.150 Kelvin.  Pressure   1.00000 Atm.
 Atom     1 has atomic number 17 and mass  34.96885

 Molecular mass:   243.86524 amu.
 Principal axes and moments of inertia in atomic units:
                           1         2         3
     Eigenvalues --  2620.049823589.703526209.69722
           X           -0.60964   0.79261   0.00999
           Y            0.79164   0.60944  -0.04358
           Z            0.04063   0.01866   0.99900
 This molecule is an asymmetric top.
 Rotational symmetry number  1.
 Warning -- assumption of classical behavior for rotation
           may cause significant error
 Rotational temperatures (Kelvin)      0.03306     0.02413     0.01395
 Rotational constants (GHZ):           0.68882     0.50275     0.29063
 Zero-point vibrational energy     115370.4 (Joules/Mol)
                                   27.57419 (Kcal/Mol)
 Warning -- explicit consideration of  17 degrees of freedom as
           vibrations may cause significant error
 Vibrational temperatures:     86.34   100.19   172.99   238.14   301.20
          (Kelvin)            306.16   320.63   400.46   414.67   426.64
                              436.50   483.03   546.36   595.27   687.55
                              733.37   837.85   937.86  1061.31  1086.70
                             1105.81  1309.29  1351.73  1756.72  1780.19
                             1855.28  2017.27  2114.80  2117.96  2169.47

 Zero-point correction=                           0.043942 (Hartree/Particle)
 Thermal correction to Energy=                    0.055240
 Thermal correction to Enthalpy=                  0.056184
 Thermal correction to Gibbs Free Energy=         0.005143
 Sum of electronic and zero-point Energies=          -2220.291184
 Sum of electronic and thermal Energies=             -2220.279887
 Sum of electronic and thermal Enthalpies=           -2220.278943
 Sum of electronic and thermal Free Energies=        -2220.329983

                     E (Thermal)             CV                S
                      KCal/Mol        Cal/Mol-Kelvin    Cal/Mol-Kelvin
 Total                   34.663             39.006            107.424
 Electronic               0.000              0.000              0.000
 Translational            0.889              2.981             42.375
 Rotational               0.889              2.981             32.435
 Vibrational             32.886             33.044             32.614
 Vibration     1          0.597              1.973              4.457
 Vibration     2          0.598              1.969              4.164
 Vibration     3          0.609              1.932              3.097
 Vibration     4          0.624              1.885              2.486
 Vibration     5          0.642              1.826              2.049
 Vibration     6          0.644              1.821              2.020
 Vibration     7          0.649              1.806              1.936
 Vibration     8          0.679              1.714              1.544
 Vibration     9          0.685              1.696              1.484
 Vibration    10          0.690              1.680              1.436
 Vibration    11          0.695              1.667              1.398
 Vibration    12          0.717              1.604              1.232
 Vibration    13          0.750              1.513              1.040
 Vibration    14          0.777              1.440              0.914
 Vibration    15          0.834              1.299              0.716
 Vibration    16          0.865              1.228              0.634
 Vibration    17          0.939              1.070              0.481

                           ! Non-Optimized Parameters !
 Normal termination of Gaussian 16 at Sun Feb 11 16:01:48 2024.
