 Gaussian 16, Revision A.03,
 Gaussian 16:  ES64L-G16RevA.03 25-Dec-2016

 ----------------------------------------------------------------
 #P UB3LYP/6-311++G(d,p) SCRF=(PCM,Solvent=n,n-DiMethylFormamide)
 ----------------------------------------------------------------

 ------------------
 Radical PCM in DMF
 ------------------
 Symbolic Z-matrix:
 Charge = -1 Multiplicity = 2

                         Standard orientation:
 ---------------------------------------------------------------------
 Center     Atomic      Atomic             Coordinates (Angstroms)
 Number     Number       Type             X           Y           Z
 ---------------------------------------------------------------------
      1          6           0        2.473270   -0.828914   -0.358925
      2          6           0        3.650414   -0.128651   -0.296998
      3          6           0        3.678654    1.271797   -0.169288
      4          6           0        1.238633   -0.145738   -0.289176
      5          6           0        1.241683    1.272798   -0.157256
      6          6           0        2.479133    1.949303   -0.099205
      7          6           0       -0.000037   -0.918777   -0.364119
      8          6           0       -1.238675   -0.145706   -0.289139
      9          6           0       -1.241721    1.272821   -0.157083
     10          6           0       -0.000006    2.046873   -0.087983
     11          6           0       -2.473336   -0.828863   -0.359011
     12          6           0       -3.650448   -0.128582   -0.296905
     13          6           0       -3.678666    1.271834   -0.168829
     14          6           0       -2.479149    1.949336   -0.098778
     15          8           0       -0.000059   -2.169746   -0.487620
     16          8           0        0.000018    3.296134    0.019974
     17          1           0        2.453137    3.027944    0.001410
     18          1           0       -2.453122    3.027964    0.001976
     19          1           0        2.462821   -1.906056   -0.470724
     20          1           0       -2.462882   -1.905976   -0.471081
     21          1           0       -4.625176    1.795882   -0.118559
     22          8           0       -4.854952   -0.852190   -0.475399
     23          6           0       -5.787450   -0.888986    0.504812
     24          6           0       -6.954471   -1.745277    0.067188
     25          8           0       -5.701160   -0.331083    1.568475
     26          8           0        4.854764   -0.852574   -0.475215
     27          1           0       -6.617932   -2.774657   -0.079356
     28          1           0       -7.346181   -1.390094   -0.888413
     29          1           0       -7.732236   -1.716096    0.828018
     30          6           0        5.787697   -0.888592    0.504622
     31          6           0        6.953775   -1.746593    0.067844
     32          8           0        5.702308   -0.329117    1.567534
     33          1           0        4.625155    1.795865   -0.119196
     34          1           0        6.616864   -2.776686   -0.072899
     35          1           0        7.733410   -1.713998    0.826622
     36          1           0        7.343005   -1.395980   -0.890427
 ---------------------------------------------------------------------

 SCF Done:  E(UB3LYP) =  -1144.99519566     A.U. after   19 cycles

 The electronic state is 2-A.
 Alpha  occ. eigenvalues --  -19.18536 -19.18536 -19.12746 -19.12746 -19.08118
 Alpha  occ. eigenvalues --  -19.08025 -10.31944 -10.31944 -10.24308 -10.24307
 Alpha  occ. eigenvalues --  -10.23061 -10.22811 -10.18279 -10.18278 -10.18202
 Alpha  occ. eigenvalues --  -10.18201 -10.18107 -10.18107 -10.17984 -10.17984
 Alpha  occ. eigenvalues --  -10.17884 -10.17884 -10.17844 -10.17843  -1.12462
 Alpha  occ. eigenvalues --   -1.12462  -1.04320  -1.04319  -1.00915  -1.00596
 Alpha  occ. eigenvalues --   -0.87255  -0.86400  -0.80243  -0.77938  -0.76989
 Alpha  occ. eigenvalues --   -0.75956  -0.75009  -0.73433  -0.68236  -0.65995
 Alpha  occ. eigenvalues --   -0.65300  -0.61024  -0.60958  -0.58318  -0.56454
 Alpha  occ. eigenvalues --   -0.52455  -0.52289  -0.50459  -0.50262  -0.50121
 Alpha  occ. eigenvalues --   -0.49358  -0.49187  -0.48383  -0.46544  -0.46495
 Alpha  occ. eigenvalues --   -0.44523  -0.44008  -0.43370  -0.43000  -0.42704
 Alpha  occ. eigenvalues --   -0.42097  -0.41943  -0.41769  -0.41071  -0.40927
 Alpha  occ. eigenvalues --   -0.39450  -0.39284  -0.38813  -0.38555  -0.37560
 Alpha  occ. eigenvalues --   -0.36684  -0.36125  -0.35553  -0.34227  -0.33124
 Alpha  occ. eigenvalues --   -0.32790  -0.29803  -0.29803  -0.27150  -0.26620
 Alpha  occ. eigenvalues --   -0.26146  -0.25199  -0.25077  -0.24282  -0.14706
 Alpha virt. eigenvalues --   -0.06007  -0.02992  -0.01526  -0.01045  -0.00586
 Alpha virt. eigenvalues --   -0.00242  -0.00231   0.00709   0.01484   0.01733
 Alpha virt. eigenvalues --    0.02978   0.03085   0.03364   0.03713   0.03915

  Beta  occ. eigenvalues --  -19.18534 -19.18533 -19.12747 -19.12746 -19.07587
  Beta  occ. eigenvalues --  -19.07440 -10.31940 -10.31940 -10.24267 -10.24267
  Beta  occ. eigenvalues --  -10.22907 -10.22623 -10.18222 -10.18222 -10.18122
  Beta  occ. eigenvalues --  -10.18121 -10.18107 -10.18107 -10.17994 -10.17994
  Beta  occ. eigenvalues --  -10.17870 -10.17870 -10.17762 -10.17761  -1.12450
  Beta  occ. eigenvalues --   -1.12450  -1.04313  -1.04313  -0.99977  -0.99571
  Beta  occ. eigenvalues --   -0.87008  -0.86291  -0.79913  -0.77873  -0.76780
  Beta  occ. eigenvalues --   -0.75824  -0.74863  -0.73327  -0.67633  -0.65790
  Beta  occ. eigenvalues --   -0.65169  -0.60915  -0.60784  -0.58192  -0.56184
  Beta  occ. eigenvalues --   -0.52348  -0.52123  -0.50441  -0.50232  -0.50036
  Beta  occ. eigenvalues --   -0.49310  -0.49044  -0.48328  -0.46462  -0.46372
  Beta  occ. eigenvalues --   -0.44356  -0.43962  -0.43325  -0.42592  -0.42264
  Beta  occ. eigenvalues --   -0.42064  -0.41557  -0.41274  -0.40856  -0.40620
  Beta  occ. eigenvalues --   -0.39321  -0.39258  -0.38724  -0.37391  -0.36566
  Beta  occ. eigenvalues --   -0.36217  -0.35980  -0.35247  -0.33709  -0.33076
  Beta  occ. eigenvalues --   -0.32178  -0.29785  -0.29781  -0.26246  -0.25355
  Beta  occ. eigenvalues --   -0.24960  -0.24683  -0.24576  -0.23764
  Beta virt. eigenvalues --   -0.08781  -0.05115  -0.02168  -0.01253  -0.00987
  Beta virt. eigenvalues --   -0.00577  -0.00228  -0.00051   0.00721   0.01501
  Beta virt. eigenvalues --    0.01732   0.03074   0.03084   0.03403   0.03727

 Mulliken charges and spin densities:
               1          2
     1  C    0.003828   0.028344
     2  C   -0.802741   0.024784
     3  C    0.096907   0.047506
     4  C    0.418358   0.052093
     5  C    0.318367   0.034526
     6  C    0.194649   0.017416
     7  C   -0.846220   0.109730
     8  C    0.418573   0.052115
     9  C    0.317572   0.034507
    10  C   -0.558153   0.077350
    11  C    0.004526   0.028333
    12  C   -0.803694   0.024796
    13  C    0.097329   0.047510
    14  C    0.194898   0.017401
    15  O   -0.442743   0.217860
    16  O   -0.438372   0.197028
    17  H    0.179037  -0.000674
    18  H    0.179033  -0.000674
    19  H    0.189666  -0.002246
    20  H    0.189639  -0.002245
    21  H    0.219782  -0.003736
    22  O   -0.020193   0.000816
    23  C    0.139424   0.000119
    24  C   -0.539893   0.000666
    25  O   -0.307092  -0.000685
    26  O   -0.020284   0.000817
    27  H    0.190844   0.000041
    28  H    0.187749   0.000075
    29  H    0.174197  -0.000029
    30  C    0.139636   0.000120
    31  C   -0.540180   0.000666
    32  O   -0.307118  -0.000682
    33  H    0.219789  -0.003735
    34  H    0.191007   0.000041
    35  H    0.174190  -0.000029
    36  H    0.187682   0.000075
 Sum of Mulliken charges =  -1.00000   1.00000

 Dipole moment (field-independent basis, Debye):
    X=             -0.0021    Y=             -3.9908    Z=             -3.3528  Tot=              5.2122
 Quadrupole moment (field-independent basis, Debye-Ang):
   XX=           -130.4345   YY=           -164.9073   ZZ=           -155.6994
   XY=             -0.0291   XZ=              0.0098   YZ=             -3.5306

 Normal termination of Gaussian 16 at Sun Jan 14 01:22:12 2024.
