 Q-Chem 5.4, Q-Chem, Inc., Pleasanton, CA (2021)
 Q-Chem 5.4.0 for Intel X86 EM64T Linux

User input:
--------------------------------------------------------------
$molecule
-2 1
C                 -1.7862620000      1.1306190000      0.6301910000
C                 -1.1358370000     -0.0936430000     -0.0593010000
C                 -1.6833650000     -1.3652380000      0.6182730000
C                 -1.5778150000     -0.1310560000     -1.5450930000
C                  0.4024410000      0.0272360000      0.0150330000
C                  1.1774050000     -0.9498060000      0.6526380000
C                  2.6082300000     -0.9227550000      0.7827900000
O                  3.2810640000     -1.8539940000      1.3832940000
C                  3.2111420000      0.2359980000      0.1957240000
C                  2.4633530000      1.2235260000     -0.4369490000
C                  1.0394480000      1.1895860000     -0.5810440000
O                  0.3944610000      2.1388160000     -1.1953580000
H                 -2.8805900000      1.1037520000      0.5338720000
H                 -1.5377640000      1.1351370000      1.6987900000
H                 -1.3994500000      2.0442300000      0.1722990000
H                 -2.7768550000     -1.3968050000      0.5296630000
H                 -1.4316250000     -1.3975780000      1.6831050000
H                 -1.2836650000     -2.2735520000      0.1543970000
H                 -1.1611760000     -1.0179610000     -2.0362700000
H                 -2.6754240000     -0.1822020000     -1.6282190000
H                 -1.2075580000      0.7610290000     -2.0532340000
H                  0.7023780000     -1.8200760000      1.0962630000
H                  4.2964630000      0.3244880000      0.2630220000
H                  2.9610010000      2.0902460000     -0.8738830000
$end

$rem
BASIS  =  6-311++G(d,p)
GUI  =  2
JOB_TYPE  =  SP
METHOD  =  B3LYP
SCF_CONVERGENCE  = 8
SOLVENT_METHOD = sm12
$end

$smx
solvent dimethylformamide
charges CM5
$end

--------------------------------------------------------------

             Standard Nuclear Orientation (Angstroms)
    I     Atom           X                Y                Z
 ----------------------------------------------------------------
    1      C      -1.7862620000     1.1306190000     0.6301910000
    2      C      -1.1358370000    -0.0936430000    -0.0593010000
    3      C      -1.6833650000    -1.3652380000     0.6182730000
    4      C      -1.5778150000    -0.1310560000    -1.5450930000
    5      C       0.4024410000     0.0272360000     0.0150330000
    6      C       1.1774050000    -0.9498060000     0.6526380000
    7      C       2.6082300000    -0.9227550000     0.7827900000
    8      O       3.2810640000    -1.8539940000     1.3832940000
    9      C       3.2111420000     0.2359980000     0.1957240000
   10      C       2.4633530000     1.2235260000    -0.4369490000
   11      C       1.0394480000     1.1895860000    -0.5810440000
   12      O       0.3944610000     2.1388160000    -1.1953580000
   13      H      -2.8805900000     1.1037520000     0.5338720000
   14      H      -1.5377640000     1.1351370000     1.6987900000
   15      H      -1.3994500000     2.0442300000     0.1722990000
   16      H      -2.7768550000    -1.3968050000     0.5296630000
   17      H      -1.4316250000    -1.3975780000     1.6831050000
   18      H      -1.2836650000    -2.2735520000     0.1543970000
   19      H      -1.1611760000    -1.0179610000    -2.0362700000
   20      H      -2.6754240000    -0.1822020000    -1.6282190000
   21      H      -1.2075580000     0.7610290000    -2.0532340000
   22      H       0.7023780000    -1.8200760000     1.0962630000
   23      H       4.2964630000     0.3244880000     0.2630220000
   24      H       2.9610010000     2.0902460000    -0.8738830000
 ----------------------------------------------------------------

   28    -538.8210483420      2.02e-09  Convergence criterion met
 Total energy in the final basis set =     -539.1242916788

                    Orbital Energies (a.u.)
 --------------------------------------------------------------

 Alpha MOs
 -- Occupied --
-19.0228 -19.0203 -10.1931 -10.1837 -10.1825 -10.1717 -10.1638 -10.1634
-10.1525 -10.1444 -10.1438 -10.1413  -0.9350  -0.9319  -0.8278  -0.7856
 -0.7150  -0.6952  -0.6910  -0.6571  -0.5961  -0.5589  -0.5225  -0.4653
 -0.4555  -0.4448  -0.4421  -0.4251  -0.4170  -0.4040  -0.3851  -0.3755
 -0.3630  -0.3603  -0.3593  -0.3390  -0.3372  -0.3276  -0.3211  -0.3125
 -0.2364  -0.2302  -0.1983  -0.1966  -0.1267

          Ground-State Mulliken Net Atomic Charges

     Atom                 Charge (a.u.)
  ----------------------------------------
      1 C                    -0.175788
      2 C                     1.933875
      3 C                     0.867225
      4 C                    -0.166601
      5 C                     0.558418
      6 C                    -1.967922
      7 C                    -1.335147
      8 O                    -0.405096
      9 C                    -0.646266
     10 C                    -1.164565
     11 C                    -0.873230
     12 O                    -0.230965
     13 H                     0.384145
     14 H                     0.038791
     15 H                     0.088359
     16 H                     0.496009
     17 H                     0.122060
     18 H                     0.123902
     19 H                     0.043986
     20 H                     0.390563
     21 H                     0.083630
     22 H                    -0.127153
     23 H                    -0.028803
     24 H                    -0.009430
  ----------------------------------------
  Sum of atomic charges =    -2.000000

                    Cartesian Multipole Moments
 -----------------------------------------------------------------
    Charge (ESU x 10^10)
                -9.6064
    Dipole Moment (Debye)
         X     -16.8565      Y      -0.8691      Z      -1.1568
       Tot      16.9185
    Quadrupole Moments (Debye-Ang)
        XX    -144.2562     XY      16.5095     YY    -117.4678
        XZ     -15.1388     YZ      18.8642     ZZ     -99.7072

 Total job time:  640.13s(wall), 4994.66s(cpu)
        *  Thank you very much for using Q-Chem.  Have a nice day.  *
