 Q-Chem 5.4, Q-Chem, Inc., Pleasanton, CA (2021)
 Q-Chem 5.4.0 for Intel X86 EM64T Linux

User input:
--------------------------------------------------------------
$molecule
-2 1
C                 -5.4413060000     -0.2435350000     -0.5722080000
C                 -5.5823800000     -0.6377690000     -1.8913890000
C                 -4.4803140000     -0.5359850000     -2.7726820000
C                 -4.2218360000      0.2625170000     -0.0709880000
C                 -3.1034460000      0.3657920000     -0.9652810000
C                 -3.2746690000     -0.0431370000     -2.3069190000
C                 -4.1528410000      0.6729370000      1.3402050000
C                 -2.8641310000      1.1615510000      1.7208290000
C                 -1.7594760000      1.2530260000      0.8383560000
C                 -1.8007240000      0.8815200000     -0.5278040000
S                 -2.6455390000      1.8692190000      3.3545360000
C                 -2.6659760000      0.5312280000      4.5307890000
C                 -3.0868970000     -0.7702590000      4.2163300000
C                 -2.2616840000      0.8110340000      5.8458940000
C                 -2.2572250000     -0.1695050000      6.8421530000
C                 -3.0742410000     -1.7508640000      5.2025600000
C                 -2.6644830000     -1.4658690000      6.5083620000
C                 -1.8028610000      0.1658990000      8.2472280000
O                 -5.1589790000      0.5721900000      2.1181770000
O                 -0.8019710000      0.9713720000     -1.3315980000
H                 -6.2657410000     -0.3078840000      0.1309270000
H                 -6.5344630000     -1.0253450000     -2.2488720000
H                 -4.5823820000     -0.8442190000     -3.8117150000
H                 -2.4078520000      0.0492250000     -2.9540620000
H                 -0.8156420000      1.6329380000      1.2179890000
H                 -3.4407290000     -0.9830350000      3.2171220000
H                 -1.9342230000      1.8187750000      6.0903570000
H                 -3.4046000000     -2.7551290000      4.9514720000
H                 -2.6664040000     -2.2432770000      7.2671750000
H                 -0.7708490000      0.5384360000      8.2613680000
H                 -1.8404960000     -0.7088410000      8.9042630000
H                 -2.4288410000      0.9428040000      8.7003360000
$end
$rem
MAX_SCF_CYCLES=200
BASIS  =  6-311++G(d,p)
GUI  =  2
JOB_TYPE  =  SP
METHOD  =  B3LYP
SOLVENT_METHOD = PCM
$end
$pcm
theory = CPCM
$end
$solvent
dielectric 37.219
opticaldielectric 1.43
$end

--------------------------------------------------------------

             Standard Nuclear Orientation (Angstroms)
    I     Atom           X                Y                Z
 ----------------------------------------------------------------
    1      C      -5.4413060000    -0.2435350000    -0.5722080000
    2      C      -5.5823800000    -0.6377690000    -1.8913890000
    3      C      -4.4803140000    -0.5359850000    -2.7726820000
    4      C      -4.2218360000     0.2625170000    -0.0709880000
    5      C      -3.1034460000     0.3657920000    -0.9652810000
    6      C      -3.2746690000    -0.0431370000    -2.3069190000
    7      C      -4.1528410000     0.6729370000     1.3402050000
    8      C      -2.8641310000     1.1615510000     1.7208290000
    9      C      -1.7594760000     1.2530260000     0.8383560000
   10      C      -1.8007240000     0.8815200000    -0.5278040000
   11      S      -2.6455390000     1.8692190000     3.3545360000
   12      C      -2.6659760000     0.5312280000     4.5307890000
   13      C      -3.0868970000    -0.7702590000     4.2163300000
   14      C      -2.2616840000     0.8110340000     5.8458940000
   15      C      -2.2572250000    -0.1695050000     6.8421530000
   16      C      -3.0742410000    -1.7508640000     5.2025600000
   17      C      -2.6644830000    -1.4658690000     6.5083620000
   18      C      -1.8028610000     0.1658990000     8.2472280000
   19      O      -5.1589790000     0.5721900000     2.1181770000
   20      O      -0.8019710000     0.9713720000    -1.3315980000
   21      H      -6.2657410000    -0.3078840000     0.1309270000
   22      H      -6.5344630000    -1.0253450000    -2.2488720000
   23      H      -4.5823820000    -0.8442190000    -3.8117150000
   24      H      -2.4078520000     0.0492250000    -2.9540620000
   25      H      -0.8156420000     1.6329380000     1.2179890000
   26      H      -3.4407290000    -0.9830350000     3.2171220000
   27      H      -1.9342230000     1.8187750000     6.0903570000
   28      H      -3.4046000000    -2.7551290000     4.9514720000
   29      H      -2.6664040000    -2.2432770000     7.2671750000
   30      H      -0.7708490000     0.5384360000     8.2613680000
   31      H      -1.8404960000    -0.7088410000     8.9042630000
   32      H      -2.4288410000     0.9428040000     8.7003360000
 ----------------------------------------------------------------

    9   -1204.1748260412      3.09e-06  Convergence criterion met
 Total energy in the final basis set =    -1204.1748260412

                    Orbital Energies (a.u.)
 --------------------------------------------------------------

 Alpha MOs
 -- Occupied --
-88.8331 -19.0270 -19.0216 -10.1965 -10.1839 -10.1791 -10.1760 -10.1679
-10.1650 -10.1617 -10.1615 -10.1593 -10.1559 -10.1548 -10.1540 -10.1507
-10.1498 -10.1466 -10.1453 -10.1250  -7.9190  -5.8828  -5.8787  -5.8737
 -0.9500  -0.9395  -0.8577  -0.8319  -0.7947  -0.7672  -0.7542  -0.7278
 -0.7220  -0.6823  -0.6753  -0.6398  -0.5946  -0.5892  -0.5854  -0.5554
 -0.5286  -0.4991  -0.4783  -0.4706  -0.4594  -0.4397  -0.4326  -0.4199
 -0.4140  -0.4063  -0.4049  -0.4011  -0.3848  -0.3801  -0.3766  -0.3694
 -0.3636  -0.3576  -0.3439  -0.3372  -0.3314  -0.3252  -0.3214  -0.3122
 -0.3041  -0.2789  -0.2448  -0.2346  -0.2316  -0.2240  -0.2081  -0.2044
 -0.1964  -0.1202

          Ground-State Mulliken Net Atomic Charges

     Atom                 Charge (a.u.)
  ----------------------------------------
      1 C                     0.098907
      2 C                    -0.487094
      3 C                    -0.559588
      4 C                    -0.010113
      5 C                     0.290131
      6 C                    -0.122636
      7 C                    -0.750422
      8 C                     1.725690
      9 C                    -0.353765
     10 C                    -0.672107
     11 S                    -0.383881
     12 C                     0.233996
     13 C                    -0.059011
     14 C                     0.000619
     15 C                     0.073181
     16 C                    -0.171010
     17 C                    -1.186945
     18 C                    -0.423933
     19 O                    -0.620268
     20 O                    -0.725899
     21 H                     0.166228
     22 H                     0.179773
     23 H                     0.176672
     24 H                     0.157303
     25 H                     0.166076
     26 H                     0.165329
     27 H                     0.198460
     28 H                     0.226695
     29 H                     0.152377
     30 H                     0.172986
     31 H                     0.166632
     32 H                     0.175614
  ----------------------------------------
  Sum of atomic charges =    -2.000005

                    Cartesian Multipole Moments
 -----------------------------------------------------------------
    Charge (ESU x 10^10)
                -9.6064
    Dipole Moment (Debye)
         X      28.2148      Y      -8.3883      Z      -5.5835
       Tot      29.9602
    Quadrupole Moments (Debye-Ang)
        XX    -254.3572     XY      22.9467     YY    -142.4012
        XZ      42.9553     YZ      -6.5630     ZZ    -163.4026

 Total job time:  334.61s(wall), 485.14s(cpu)
        *  Thank you very much for using Q-Chem.  Have a nice day.  *
