 Gaussian 16, Revision A.03,
 Gaussian 16:  ES64L-G16RevA.03 25-Dec-2016

 ----------------------------------------------------------------------
 #P UB3LYP/6-311++G(d,p) nosym opt freq SCRF=(PCM,Solvent=n,n-DiMethylF
 ormamide)
 ----------------------------------------------------------------------

 -------
 Radical
 -------
 Symbolic Z-matrix:
 Charge = -1 Multiplicity = 2

 SCF Done:  E(UB3LYP) =  -764.347499128     A.U. after   20 cycles
 SCF Done:  E(UB3LYP) =  -764.347794049     A.U. after   16 cycles
 SCF Done:  E(UB3LYP) =  -764.347851119     A.U. after   15 cycles
 SCF Done:  E(UB3LYP) =  -764.347856014     A.U. after   14 cycles
 SCF Done:  E(UB3LYP) =  -764.347856556     A.U. after   12 cycles
 Optimization completed.
    -- Stationary point found.
 Normal termination of Gaussian 16 at Sun Feb 11 15:30:27 2024.

 ----------------------------------------------------------------------
 #P Geom=AllCheck Guess=TCheck SCRF=Check GenChk UB3LYP/6-311++G(d,p) F
 req
 ----------------------------------------------------------------------

 Structure from the checkpoint file:  "329-rad.chk"
 -------
 Radical
 -------
 Charge = -1 Multiplicity = 2

                          Input orientation:
 ---------------------------------------------------------------------
 Center     Atomic      Atomic             Coordinates (Angstroms)
 Number     Number       Type             X           Y           Z
 ---------------------------------------------------------------------
      1          6           0       -0.639590    2.681129   -0.965091
      2          6           0       -1.712304    2.063741   -0.371290
      3          6           0       -1.585989    0.751082    0.158509
      4          6           0        0.621458    2.022107   -1.063393
      5          6           0        0.748119    0.693980   -0.527325
      6          6           0       -0.386565    0.086149    0.081101
      7          6           0        1.743308    2.623716   -1.663956
      8          6           0        2.968228    1.967770   -1.750864
      9          6           0        3.094419    0.635429   -1.213762
     10          6           0        1.994116    0.038946   -0.622740
     11          6           0        4.113784    2.611487   -2.374324
     12          6           0        5.336247    1.855130   -2.418628
     13          6           0        5.474168    0.579696   -1.909835
     14          6           0        4.384661   -0.100430   -1.286839
     15          8           0        4.106761    3.785973   -2.877422
     16          8           0        4.493150   -1.266608   -0.814283
     17          8           0        6.382099    2.491444   -3.009803
     18          1           0       -0.737125    3.683576   -1.369063
     19          1           0       -2.665231    2.576821   -0.303125
     20          1           0       -2.442975    0.277843    0.624510
     21          1           0       -0.286938   -0.916241    0.484902
     22          1           0        1.658308    3.624913   -2.071670
     23          1           0        2.103010   -0.963174   -0.223345
     24          1           0        6.428874    0.069258   -1.977853
     25          1           0        6.008306    3.358530   -3.270673
 ---------------------------------------------------------------------

 SCF Done:  E(UB3LYP) =  -764.347856556     A.U. after    1 cycles

 Alpha  occ. eigenvalues --  -19.14934 -19.08572 -19.07541 -10.22916 -10.22901
 Alpha  occ. eigenvalues --  -10.22207 -10.18719 -10.18641 -10.17987 -10.17918
 Alpha  occ. eigenvalues --  -10.17899 -10.17853 -10.17836 -10.17767 -10.17559
 Alpha  occ. eigenvalues --  -10.17457 -10.15748  -1.06816  -0.99841  -0.99552
 Alpha  occ. eigenvalues --   -0.87991  -0.83672  -0.79366  -0.77955  -0.74065
 Alpha  occ. eigenvalues --   -0.73061  -0.67565  -0.64545  -0.61800  -0.60199
 Alpha  occ. eigenvalues --   -0.57878  -0.54288  -0.53163  -0.50436  -0.49115
 Alpha  occ. eigenvalues --   -0.46616  -0.45975  -0.44417  -0.43631  -0.43365
 Alpha  occ. eigenvalues --   -0.42058  -0.41210  -0.40993  -0.40070  -0.39947
 Alpha  occ. eigenvalues --   -0.38054  -0.37688  -0.36451  -0.36238  -0.34694
 Alpha  occ. eigenvalues --   -0.33277  -0.32221  -0.29388  -0.26402  -0.25939
 Alpha  occ. eigenvalues --   -0.24247  -0.23840  -0.22843  -0.15083
 Alpha virt. eigenvalues --   -0.06354  -0.02002  -0.00326  -0.00079   0.00415
 Alpha virt. eigenvalues --    0.01067   0.02210   0.02328   0.04062   0.04253
 Alpha virt. eigenvalues --    0.04310   0.04928   0.04942   0.05959   0.06548

  Beta  occ. eigenvalues --  -19.14876 -19.07919 -19.07070 -10.22807 -10.22761
  Beta  occ. eigenvalues --  -10.21903 -10.18735 -10.18583 -10.18008 -10.17945
  Beta  occ. eigenvalues --  -10.17893 -10.17818 -10.17791 -10.17717 -10.17588
  Beta  occ. eigenvalues --  -10.17341 -10.15649  -1.06589  -0.99016  -0.98424
  Beta  occ. eigenvalues --   -0.87888  -0.83430  -0.79000  -0.77835  -0.73933
  Beta  occ. eigenvalues --   -0.72867  -0.66656  -0.64397  -0.61556  -0.60154
  Beta  occ. eigenvalues --   -0.57623  -0.54083  -0.53025  -0.50342  -0.48827
  Beta  occ. eigenvalues --   -0.46449  -0.45877  -0.44332  -0.43271  -0.42294
  Beta  occ. eigenvalues --   -0.42018  -0.40816  -0.40578  -0.39969  -0.39549
  Beta  occ. eigenvalues --   -0.37559  -0.36635  -0.36269  -0.34601  -0.34567
  Beta  occ. eigenvalues --   -0.33208  -0.31128  -0.28951  -0.25351  -0.24831
  Beta  occ. eigenvalues --   -0.23792  -0.22919  -0.22139
  Beta virt. eigenvalues --   -0.08698  -0.05773  -0.01178  -0.00306   0.00244
  Beta virt. eigenvalues --    0.00438   0.01077   0.02226   0.02340   0.04071
  Beta virt. eigenvalues --    0.04326   0.04965   0.05074   0.05341   0.06508

 Mulliken charges and spin densities:
               1          2
     1  C   -0.191691   0.033748
     2  C   -0.343648  -0.012019
     3  C   -0.355139   0.043569
     4  C    0.194865  -0.013108
     5  C    0.201001   0.047993
     6  C   -0.179772  -0.023651
     7  C    0.084803   0.130659
     8  C    0.326536  -0.032216
     9  C    0.327869   0.043823
    10  C    0.147567  -0.020424
    11  C   -0.799768   0.163553
    12  C   -0.402827   0.102361
    13  C    0.466685   0.071092
    14  C   -0.647199   0.056114
    15  O   -0.518344   0.241762
    16  O   -0.490291   0.169409
    17  O   -0.288886   0.019209
    18  H    0.163172  -0.001395
    19  H    0.188158   0.000487
    20  H    0.186965  -0.003012
    21  H    0.164250   0.001682
    22  H    0.142375  -0.008043
    23  H    0.136351  -0.000149
    24  H    0.196346  -0.008335
    25  H    0.290621  -0.003110
 Sum of Mulliken charges =  -1.00000   1.00000

 Dipole moment (field-independent basis, Debye):
    X=            -21.8638    Y=             -5.0310    Z=              8.7940  Tot=             24.0972
 Quadrupole moment (field-independent basis, Debye-Ang):
   XX=           -199.3431   YY=           -130.9853   ZZ=           -123.9944
   XY=            -21.1738   XZ=             37.7085   YZ=             17.6274

  Exact polarizability: 446.507 -21.808 313.832 -87.740 -74.528 184.830
 Approx polarizability: 474.895 -21.921 374.483 -90.605 -92.500 212.379

                      1                      2                      3
                      A                      A                      A
 Frequencies --     64.4515                83.9605               119.4025
 Red. masses --      6.7633                 5.0463                 9.0888
 Frc consts  --      0.0166                 0.0210                 0.0763
 IR Inten    --      3.1456                 0.1124                 6.7583

                      4                      5                      6
                      A                      A                      A
 Frequencies --    171.1871               196.5999               244.6015
 Red. masses --      7.0457                 7.1639                 4.3775
 Frc consts  --      0.1217                 0.1631                 0.1543
 IR Inten    --      2.6051                 2.4108                 0.0232

                      7                      8                      9
                      A                      A                      A
 Frequencies --    270.2970               301.6274               314.1430
 Red. masses --      5.4811                 5.9521                 7.9437
 Frc consts  --      0.2359                 0.3191                 0.4619
 IR Inten    --      1.4938                 1.4931                46.1116

                     10                     11                     12
                      A                      A                      A
 Frequencies --    336.8029               389.6690               410.1720
 Red. masses --      6.2541                 3.9344                10.7678
 Frc consts  --      0.4180                 0.3520                 1.0674
 IR Inten    --      4.6504                 0.3903                 7.8244

                     13                     14                     15
                      A                      A                      A
 Frequencies --    448.0092               480.9159               492.7813
 Red. masses --      5.2939                 2.5789                11.1595
 Frc consts  --      0.6260                 0.3514                 1.5966
 IR Inten    --      0.0271                30.8753                 3.1536

                     16                     17                     18
                      A                      A                      A
 Frequencies --    499.1320               525.7854               591.1746
 Red. masses --      6.6960                 3.8035                 7.2178
 Frc consts  --      0.9829                 0.6195                 1.4862
 IR Inten    --     30.8957                 1.9413                18.4553

                     19                     20                     21
                      A                      A                      A
 Frequencies --    613.9163               622.4015               644.4008
 Red. masses --      3.1029                 6.7728                 1.2260
 Frc consts  --      0.6890                 1.5458                 0.3000
 IR Inten    --     17.2514                12.6167               128.3143

                     22                     23                     24
                      A                      A                      A
 Frequencies --    659.7160               708.1671               709.0046
 Red. masses --      6.4566                 5.1676                 5.5299
 Frc consts  --      1.6556                 1.5269                 1.6378
 IR Inten    --     13.4922                 3.7003                 4.6090

                     25                     26                     27
                      A                      A                      A
 Frequencies --    742.2155               760.4973               765.9101
 Red. masses --      4.6289                 1.3509                 5.8585
 Frc consts  --      1.5024                 0.4603                 2.0249
 IR Inten    --      5.7276                82.0396                69.8586

                     28                     29                     30
                      A                      A                      A
 Frequencies --    767.2432               789.3683               822.6902
 Red. masses --      3.4781                 4.5117                 1.5653
 Frc consts  --      1.2063                 1.6563                 0.6242
 IR Inten    --      0.0815                35.3749                77.7151

                     31                     32                     33
                      A                      A                      A
 Frequencies --    860.0720               906.7250               908.0032
 Red. masses --      1.3533                 1.5340                 5.1226
 Frc consts  --      0.5898                 0.7431                 2.4884
 IR Inten    --      0.3776                19.9633                10.4677

                     34                     35                     36
                      A                      A                      A
 Frequencies --    932.5055               978.8753               996.2401
 Red. masses --      1.4406                 1.3801                 1.2928
 Frc consts  --      0.7381                 0.7792                 0.7560
 IR Inten    --     28.6539                 9.4830                 0.6293

                     37                     38                     39
                      A                      A                      A
 Frequencies --    996.5429              1028.5861              1074.8986
 Red. masses --      3.9409                 2.3603                 3.0172
 Frc consts  --      2.3059                 1.4713                 2.0539
 IR Inten    --     73.6534                26.9385                33.9041

                     40                     41                     42
                      A                      A                      A
 Frequencies --   1152.3937              1166.4755              1177.0014
 Red. masses --      1.6086                 1.3370                 1.7573
 Frc consts  --      1.2587                 1.0719                 1.4343
 IR Inten    --     14.1690                 6.0663                45.9997

                     43                     44                     45
                      A                      A                      A
 Frequencies --   1203.8544              1220.6686              1231.5246
 Red. masses --      1.4024                 3.9514                 1.5650
 Frc consts  --      1.1975                 3.4689                 1.3985
 IR Inten    --    462.0357                74.3763               120.6052

                     46                     47                     48
                      A                      A                      A
 Frequencies --   1272.0613              1278.5146              1286.8668
 Red. masses --      1.9945                 3.0050                 3.9595
 Frc consts  --      1.9015                 2.8940                 3.8633
 IR Inten    --     13.0330                 4.1185                 6.9587

                     49                     50                     51
                      A                      A                      A
 Frequencies --   1357.9915              1381.6284              1398.7013
 Red. masses --      2.2905                 4.4540                 5.5392
 Frc consts  --      2.4887                 5.0094                 6.3847
 IR Inten    --    122.1268                43.6882                 4.3169

                     52                     53                     54
                      A                      A                      A
 Frequencies --   1439.8868              1445.7610              1466.4573
 Red. masses --      3.1151                 3.1934                 3.7167
 Frc consts  --      3.8052                 3.9328                 4.7092
 IR Inten    --    638.7597               170.2173               783.0064

                     55                     56                     57
                      A                      A                      A
 Frequencies --   1495.2717              1513.0665              1536.1881
 Red. masses --      4.8973                 3.2307                 5.3178
 Frc consts  --      6.4513                 4.3577                 7.3939
 IR Inten    --   1087.8025               230.1632                79.6307

                     58                     59                     60
                      A                      A                      A
 Frequencies --   1581.9419              1612.0267              1627.0031
 Red. masses --      6.1302                 6.2282                 6.4481
 Frc consts  --      9.0387                 9.5359                10.0567
 IR Inten    --      4.7793                83.7394                92.4905

                     61                     62                     63
                      A                      A                      A
 Frequencies --   1648.7326              3157.6789              3161.9155
 Red. masses --      5.9608                 1.0858                 1.0881
 Frc consts  --      9.5467                 6.3790                 6.4095
 IR Inten    --     19.6461                 4.8597                 0.0924

                     64                     65                     66
                      A                      A                      A
 Frequencies --   3171.2741              3173.3686              3174.6208
 Red. masses --      1.0901                 1.0915                 1.0919
 Frc consts  --      6.4595                 6.4760                 6.4835
 IR Inten    --     32.1763                 6.1353                48.0670

                     67                     68                     69
                      A                      A                      A
 Frequencies --   3178.8347              3186.1892              3544.4350
 Red. masses --      1.0894                 1.0972                 1.0639
 Frc consts  --      6.4860                 6.5625                 7.8749
 IR Inten    --      5.8762                51.8239               159.1185

 - Thermochemistry -
 -------------------
 Temperature   298.150 Kelvin.  Pressure   1.00000 Atm.
 Atom     1 has atomic number  6 and mass  12.00000

 Molecular mass:   224.04734 amu.
 Principal axes and moments of inertia in atomic units:
                           1         2         3
     Eigenvalues --  1745.219455696.998547442.21548
           X            0.94826  -0.17007   0.26809
           Y            0.05746   0.92242   0.38190
           Z           -0.31224  -0.34673   0.88447
 This molecule is an asymmetric top.
 Rotational symmetry number  1.
 Warning -- assumption of classical behavior for rotation
           may cause significant error
 Rotational temperatures (Kelvin)      0.04963     0.01520     0.01164
 Rotational constants (GHZ):           1.03411     0.31679     0.24250
 Zero-point vibrational energy     475342.3 (Joules/Mol)
                                  113.60954 (Kcal/Mol)
 Warning -- explicit consideration of  19 degrees of freedom as
           vibrations may cause significant error
 Vibrational temperatures:     92.73   120.80   171.79   246.30   282.86
          (Kelvin)            351.93   388.90   433.97   451.98   484.58
                              560.65   590.15   644.59   691.93   709.00
                              718.14   756.49   850.57   883.29   895.50
                              927.15   949.18  1018.89  1020.10  1067.88
                             1094.19  1101.97  1103.89  1135.72  1183.67
                             1237.45  1304.58  1306.41  1341.67  1408.38
                             1433.37  1433.80  1479.91  1546.54  1658.04
                             1678.30  1693.44  1732.08  1756.27  1771.89
                             1830.21  1839.50  1851.51  1953.85  1987.86
                             2012.42  2071.68  2080.13  2109.91  2151.36
                             2176.97  2210.23  2276.06  2319.35  2340.89
                             2372.16  4543.20  4549.29  4562.76  4565.77
                             4567.57  4573.63  4584.22  5099.65

 Zero-point correction=                           0.181048 (Hartree/Particle)
 Thermal correction to Energy=                    0.193325
 Thermal correction to Enthalpy=                  0.194270
 Thermal correction to Gibbs Free Energy=         0.141903
 Sum of electronic and zero-point Energies=           -764.166808
 Sum of electronic and thermal Energies=              -764.154531
 Sum of electronic and thermal Enthalpies=            -764.153587
 Sum of electronic and thermal Free Energies=         -764.205954

                     E (Thermal)             CV                S
                      KCal/Mol        Cal/Mol-Kelvin    Cal/Mol-Kelvin
 Total                  121.314             50.522            110.215
 Electronic               0.000              0.000              1.377
 Translational            0.889              2.981             42.123
 Rotational               0.889              2.981             32.670
 Vibrational            119.536             44.560             34.045
 Vibration     1          0.597              1.971              4.316
 Vibration     2          0.601              1.960              3.796
 Vibration     3          0.609              1.933              3.110
 Vibration     4          0.626              1.878              2.422
 Vibration     5          0.636              1.845              2.165
 Vibration     6          0.660              1.772              1.769
 Vibration     7          0.674              1.728              1.594
 Vibration     8          0.694              1.671              1.408
 Vibration     9          0.702              1.647              1.340
 Vibration    10          0.718              1.602              1.227
 Vibration    11          0.758              1.492              1.001
 Vibration    12          0.774              1.448              0.926
 Vibration    13          0.807              1.365              0.802
 Vibration    14          0.837              1.292              0.708
 Vibration    15          0.848              1.266              0.676
 Vibration    16          0.855              1.252              0.660
 Vibration    17          0.881              1.193              0.597
 Vibration    18          0.949              1.051              0.465
 Vibration    19          0.973              1.002              0.426

 Optimization completed.
    -- Stationary point found.
 Normal termination of Gaussian 16 at Sun Feb 11 16:19:18 2024.
