 Q-Chem 5.4, Q-Chem, Inc., Pleasanton, CA (2021)
 Q-Chem 5.4.0 for Intel X86 EM64T Linux

User input:
--------------------------------------------------------------
$molecule
0 1
N                 -2.9519990000     -1.7958310000     -0.4675520000
C                 -2.5472220000     -0.5283080000     -0.2007530000
C                 -3.5120800000      0.4927590000     -0.0341690000
C                 -3.1348960000      1.7911090000      0.2378480000
C                 -1.7841600000      2.1365330000      0.3570760000
C                 -0.8121980000      1.1598720000      0.1994980000
C                  0.6178590000      1.5946570000      0.3391100000
O                  0.8732130000      2.7604650000      0.5793310000
C                  1.6856550000      0.5603600000      0.1744340000
C                  3.0634380000      0.8407280000      0.2824030000
Cl                 3.7069270000      2.4323830000      0.6228800000
C                  4.0150260000     -0.1651340000      0.1188640000
C                  3.6196770000     -1.4685620000     -0.1549830000
C                  2.2702780000     -1.7732880000     -0.2667290000
C                  1.3105680000     -0.7743850000     -0.1047800000
C                 -0.1242070000     -1.1908260000     -0.2415730000
O                 -0.3764700000     -2.3757110000     -0.4864920000
C                 -1.1661830000     -0.1829340000     -0.0804550000
H                 -3.9317890000     -2.0067560000     -0.5457740000
H                 -2.2492760000     -2.5146940000     -0.5839270000
H                 -4.5625700000      0.2358980000     -0.1246100000
H                 -3.8972810000      2.5524240000      0.3604560000
H                 -1.4770100000      3.1511970000      0.5700370000
H                  5.0634500000      0.0883790000      0.2090310000
H                  4.3689990000     -2.2416570000     -0.2800260000
H                  1.9322520000     -2.7786780000     -0.4791450000
$end

$rem
BASIS  =  6-311++G(d,p)
GUI  =  2
JOB_TYPE  =  SP
METHOD  =  B3LYP
SCF_CONVERGENCE  = 8
SOLVENT_METHOD = sm12
$end

$smx
solvent dimethylformamide
charges CM5
$end

--------------------------------------------------------------

             Standard Nuclear Orientation (Angstroms)
    I     Atom           X                Y                Z
 ----------------------------------------------------------------
    1      N      -2.9519990000    -1.7958310000    -0.4675520000
    2      C      -2.5472220000    -0.5283080000    -0.2007530000
    3      C      -3.5120800000     0.4927590000    -0.0341690000
    4      C      -3.1348960000     1.7911090000     0.2378480000
    5      C      -1.7841600000     2.1365330000     0.3570760000
    6      C      -0.8121980000     1.1598720000     0.1994980000
    7      C       0.6178590000     1.5946570000     0.3391100000
    8      O       0.8732130000     2.7604650000     0.5793310000
    9      C       1.6856550000     0.5603600000     0.1744340000
   10      C       3.0634380000     0.8407280000     0.2824030000
   11      Cl      3.7069270000     2.4323830000     0.6228800000
   12      C       4.0150260000    -0.1651340000     0.1188640000
   13      C       3.6196770000    -1.4685620000    -0.1549830000
   14      C       2.2702780000    -1.7732880000    -0.2667290000
   15      C       1.3105680000    -0.7743850000    -0.1047800000
   16      C      -0.1242070000    -1.1908260000    -0.2415730000
   17      O      -0.3764700000    -2.3757110000    -0.4864920000
   18      C      -1.1661830000    -0.1829340000    -0.0804550000
   19      H      -3.9317890000    -2.0067560000    -0.5457740000
   20      H      -2.2492760000    -2.5146940000    -0.5839270000
   21      H      -4.5625700000     0.2358980000    -0.1246100000
   22      H      -3.8972810000     2.5524240000     0.3604560000
   23      H      -1.4770100000     3.1511970000     0.5700370000
   24      H       5.0634500000     0.0883790000     0.2090310000
   25      H       4.3689990000    -2.2416570000    -0.2800260000
   26      H       1.9322520000    -2.7786780000    -0.4791450000
 ----------------------------------------------------------------

   15   -1203.9465449882      7.12e-09  Convergence criterion met
 Total energy in the final basis set =    -1203.9705474329

                    Orbital Energies (a.u.)
 --------------------------------------------------------------

 Alpha MOs
 -- Occupied --
******** -19.1238 -19.1236 -14.3339 -10.2816 -10.2777 -10.2623 -10.2479
-10.2206 -10.2142 -10.2058 -10.2043 -10.2026 -10.2003 -10.1967 -10.1963
-10.1915 -10.1848  -9.4744  -7.2392  -7.2296  -7.2283  -1.0626  -1.0577
 -0.9437  -0.9118  -0.8719  -0.8554  -0.8125  -0.7739  -0.7625  -0.7541
 -0.6878  -0.6680  -0.6530  -0.6122  -0.5837  -0.5770  -0.5598  -0.5265
 -0.5089  -0.5053  -0.4907  -0.4784  -0.4713  -0.4583  -0.4552  -0.4512
 -0.4451  -0.4310  -0.4219  -0.4077  -0.3986  -0.3889  -0.3849  -0.3819
 -0.3733  -0.3462  -0.3322  -0.3287  -0.2911  -0.2820  -0.2782  -0.2666
 -0.2645  -0.2255

          Ground-State Mulliken Net Atomic Charges

     Atom                 Charge (a.u.)
  ----------------------------------------
      1 N                    -0.300187
      2 C                     0.329981
      3 C                     1.370893
      4 C                     0.293746
      5 C                    -0.201808
      6 C                    -0.567623
      7 C                    -2.719698
      8 O                    -0.158345
      9 C                    -1.203280
     10 C                     0.504889
     11 Cl                    0.333248
     12 C                     0.964458
     13 C                     0.386510
     14 C                     1.028129
     15 C                     0.112571
     16 C                    -1.854009
     17 O                    -0.239812
     18 C                    -0.462960
     19 H                     0.439470
     20 H                     0.294755
     21 H                     0.321671
     22 H                     0.320163
     23 H                     0.148958
     24 H                     0.274115
     25 H                     0.364713
     26 H                     0.219451
  ----------------------------------------
  Sum of atomic charges =     0.000000

                    Cartesian Multipole Moments
 -----------------------------------------------------------------
    Charge (ESU x 10^10)
                 0.0000
    Dipole Moment (Debye)
         X      -3.0958      Y      -3.3554      Z      -0.7785
       Tot       4.6313
    Quadrupole Moments (Debye-Ang)
        XX     -78.2065     XY      -8.8955     YY    -116.3177
        XZ      -0.4242     YZ      -0.8432     ZZ    -113.9252

 Total job time:  532.30s(wall), 4145.91s(cpu)
        *  Thank you very much for using Q-Chem.  Have a nice day.  *
