 Q-Chem 5.4, Q-Chem, Inc., Pleasanton, CA (2021)
 Q-Chem 5.4.0 for Intel X86 EM64T Linux

User input:
--------------------------------------------------------------
$molecule
-2 1
C                 -2.8885130000      1.3070220000     -0.7442200000
C                 -2.1568070000      0.0858080000     -0.1531120000
C                 -2.7053350000     -0.1413840000      1.2780930000
C                 -2.5119460000     -1.1423190000     -1.0285320000
C                 -0.6212880000      0.2494780000     -0.0953760000
C                 -0.0038860000      1.4406350000     -0.5610190000
C                  1.3861690000      1.7121100000     -0.5625690000
O                  1.9077720000      2.8169560000     -0.9989430000
C                  2.1915380000      0.6255390000     -0.0235020000
C                  3.5990680000      0.7505380000      0.0400350000
C                  4.4088010000     -0.2521930000      0.5431580000
C                  3.8164350000     -1.4544300000      1.0155750000
C                  2.4427450000     -1.6058880000      0.9663990000
C                  1.5856380000     -0.5980110000      0.4571000000
C                  0.1505980000     -0.8289840000      0.4375940000
O                 -0.3561720000     -1.9490440000      0.8813120000
H                 -2.5725090000      1.5102980000     -1.7722990000
H                 -3.9709050000      1.1152160000     -0.7514230000
H                 -2.7074260000      2.2117940000     -0.1554180000
H                 -2.1856010000     -0.9939040000      1.7216660000
H                 -3.7911270000     -0.3335710000      1.2604520000
H                 -2.5257660000      0.7477900000      1.8939700000
H                 -3.5991840000     -1.3269930000     -1.0297650000
H                 -1.9882530000     -2.0167310000     -0.6349840000
H                 -2.1935500000     -0.9697450000     -2.0634180000
H                 -0.6166410000      2.2438550000     -0.9610980000
H                  4.0141800000      1.6839820000     -0.3304320000
H                  5.4903170000     -0.1233170000      0.5777770000
H                  4.4425150000     -2.2523840000      1.4144660000
H                  1.9591290000     -2.5121240000      1.3194200000
$end

$rem
BASIS  =  6-311++G(d,p)
GUI  =  2
JOB_TYPE  =  SP
METHOD  =  B3LYP
SCF_CONVERGENCE  = 8
SOLVENT_METHOD = sm12
$end

$smx
solvent dimethylformamide
charges CM5
$end

--------------------------------------------------------------

             Standard Nuclear Orientation (Angstroms)
    I     Atom           X                Y                Z
 ----------------------------------------------------------------
    1      C      -2.8885130000     1.3070220000    -0.7442200000
    2      C      -2.1568070000     0.0858080000    -0.1531120000
    3      C      -2.7053350000    -0.1413840000     1.2780930000
    4      C      -2.5119460000    -1.1423190000    -1.0285320000
    5      C      -0.6212880000     0.2494780000    -0.0953760000
    6      C      -0.0038860000     1.4406350000    -0.5610190000
    7      C       1.3861690000     1.7121100000    -0.5625690000
    8      O       1.9077720000     2.8169560000    -0.9989430000
    9      C       2.1915380000     0.6255390000    -0.0235020000
   10      C       3.5990680000     0.7505380000     0.0400350000
   11      C       4.4088010000    -0.2521930000     0.5431580000
   12      C       3.8164350000    -1.4544300000     1.0155750000
   13      C       2.4427450000    -1.6058880000     0.9663990000
   14      C       1.5856380000    -0.5980110000     0.4571000000
   15      C       0.1505980000    -0.8289840000     0.4375940000
   16      O      -0.3561720000    -1.9490440000     0.8813120000
   17      H      -2.5725090000     1.5102980000    -1.7722990000
   18      H      -3.9709050000     1.1152160000    -0.7514230000
   19      H      -2.7074260000     2.2117940000    -0.1554180000
   20      H      -2.1856010000    -0.9939040000     1.7216660000
   21      H      -3.7911270000    -0.3335710000     1.2604520000
   22      H      -2.5257660000     0.7477900000     1.8939700000
   23      H      -3.5991840000    -1.3269930000    -1.0297650000
   24      H      -1.9882530000    -2.0167310000    -0.6349840000
   25      H      -2.1935500000    -0.9697450000    -2.0634180000
   26      H      -0.6166410000     2.2438550000    -0.9610980000
   27      H       4.0141800000     1.6839820000    -0.3304320000
   28      H       5.4903170000    -0.1233170000     0.5777770000
   29      H       4.4425150000    -2.2523840000     1.4144660000
   30      H       1.9591290000    -2.5121240000     1.3194200000
 ----------------------------------------------------------------

   17    -692.5227088611      7.56e-09  Convergence criterion met
 Total energy in the final basis set =     -692.8081157145

                    Orbital Energies (a.u.)
 --------------------------------------------------------------

 Alpha MOs
 -- Occupied --
-19.0231 -19.0204 -10.1872 -10.1829 -10.1810 -10.1760 -10.1755 -10.1705
-10.1688 -10.1666 -10.1580 -10.1580 -10.1558 -10.1552 -10.1473 -10.1359
 -0.9352  -0.9317  -0.8443  -0.8221  -0.7722  -0.7431  -0.7167  -0.6904
 -0.6853  -0.6554  -0.6105  -0.6009  -0.5542  -0.5339  -0.4932  -0.4843
 -0.4576  -0.4483  -0.4396  -0.4376  -0.4226  -0.4126  -0.4017  -0.4015
 -0.3811  -0.3775  -0.3702  -0.3697  -0.3588  -0.3471  -0.3376  -0.3273
 -0.3266  -0.3228  -0.3163  -0.3121  -0.2480  -0.2347  -0.2255  -0.2004
 -0.1962  -0.1231

          Ground-State Mulliken Net Atomic Charges

     Atom                 Charge (a.u.)
  ----------------------------------------
      1 C                     1.001838
      2 C                     2.018749
      3 C                    -0.216731
      4 C                    -0.217377
      5 C                     0.834636
      6 C                    -1.311770
      7 C                    -2.409561
      8 O                    -0.395919
      9 C                    -2.247232
     10 C                    -0.221931
     11 C                     1.721004
     12 C                     1.764451
     13 C                     0.062711
     14 C                    -1.632430
     15 C                    -3.207768
     16 O                    -0.216616
     17 H                     0.126030
     18 H                     0.491153
     19 H                     0.126357
     20 H                     0.097970
     21 H                     0.346172
     22 H                     0.044878
     23 H                     0.346173
     24 H                     0.097603
     25 H                     0.045136
     26 H                    -0.072207
     27 H                     0.080594
     28 H                     0.419637
     29 H                     0.416373
     30 H                     0.108076
  ----------------------------------------
  Sum of atomic charges =    -2.000000

                    Cartesian Multipole Moments
 -----------------------------------------------------------------
    Charge (ESU x 10^10)
                -9.6064
    Dipole Moment (Debye)
         X      -9.1106      Y      -3.4046      Z       0.0950
       Tot       9.7264
    Quadrupole Moments (Debye-Ang)
        XX    -150.8917     XY     -16.7891     YY    -151.8729
        XZ       3.4720     YZ      15.5382     ZZ    -118.7869

 Total job time:  847.28s(wall), 6041.38s(cpu)
        *  Thank you very much for using Q-Chem.  Have a nice day.  *
