 Q-Chem 5.4, Q-Chem, Inc., Pleasanton, CA (2021)
 Q-Chem 5.4.0 for Intel X86 EM64T Linux

User input:
--------------------------------------------------------------
$molecule
-1 2
C                  0.2273250000      1.7349000000     -1.7781430000
C                 -1.2044660000      1.8556870000     -1.5345720000
C                 -2.0585190000      0.7970840000     -1.5900500000
C                 -1.6041620000     -0.5495670000     -1.9031300000
C                 -0.1897230000     -0.6801970000     -2.1386530000
C                  0.7026730000      0.3768170000     -2.0468000000
O                  0.9691560000      2.7487840000     -1.7926390000
O                 -2.4007690000     -1.5289890000     -1.9567090000
C                  3.2133500000      0.7829390000     -1.5025510000
C                  4.4979500000      0.8717290000     -2.0499580000
C                  3.0011020000      1.2417480000     -0.1986190000
C                  4.0524690000      1.7739310000      0.5429460000
C                  5.5451980000      1.4273480000     -1.3200900000
C                  5.3260370000      1.8763440000     -0.0173370000
H                 -1.5609150000      2.8595560000     -1.3208680000
H                 -3.1229550000      0.9210460000     -1.4089570000
H                  0.1825000000     -1.6696710000     -2.3816560000
H                  4.6563060000      0.4948040000     -3.0533080000
H                  2.0102500000      1.1803840000      0.2325190000
H                  3.8753300000      2.1202400000      1.5559180000
H                  6.5329730000      1.5056670000     -1.7632870000
H                  6.1417320000      2.3038040000      0.5572910000
C                  2.1366870000      0.0890650000     -2.3012630000
O                  2.4859920000     -0.7685520000     -3.1099240000
$end
$rem
MAX_SCF_CYCLES=200
BASIS  =  6-311++G(d,p)
GUI  =  2
JOB_TYPE  =  SP
METHOD  =  B3LYP
SOLVENT_METHOD = PCM
$end
$pcm
theory = CPCM
$end
$solvent
dielectric 37.219
opticaldielectric 1.43
$end

--------------------------------------------------------------

             Standard Nuclear Orientation (Angstroms)
    I     Atom           X                Y                Z
 ----------------------------------------------------------------
    1      C       0.2273250000     1.7349000000    -1.7781430000
    2      C      -1.2044660000     1.8556870000    -1.5345720000
    3      C      -2.0585190000     0.7970840000    -1.5900500000
    4      C      -1.6041620000    -0.5495670000    -1.9031300000
    5      C      -0.1897230000    -0.6801970000    -2.1386530000
    6      C       0.7026730000     0.3768170000    -2.0468000000
    7      O       0.9691560000     2.7487840000    -1.7926390000
    8      O      -2.4007690000    -1.5289890000    -1.9567090000
    9      C       3.2133500000     0.7829390000    -1.5025510000
   10      C       4.4979500000     0.8717290000    -2.0499580000
   11      C       3.0011020000     1.2417480000    -0.1986190000
   12      C       4.0524690000     1.7739310000     0.5429460000
   13      C       5.5451980000     1.4273480000    -1.3200900000
   14      C       5.3260370000     1.8763440000    -0.0173370000
   15      H      -1.5609150000     2.8595560000    -1.3208680000
   16      H      -3.1229550000     0.9210460000    -1.4089570000
   17      H       0.1825000000    -1.6696710000    -2.3816560000
   18      H       4.6563060000     0.4948040000    -3.0533080000
   19      H       2.0102500000     1.1803840000     0.2325190000
   20      H       3.8753300000     2.1202400000     1.5559180000
   21      H       6.5329730000     1.5056670000    -1.7632870000
   22      H       6.1417320000     2.3038040000     0.5572910000
   23      C       2.1366870000     0.0890650000    -2.3012630000
   24      O       2.4859920000    -0.7685520000    -3.1099240000
 ----------------------------------------------------------------

    9    -726.2049176851      5.25e-06  Convergence criterion met
 Total energy in the final basis set =     -726.2049176851

                    Orbital Energies (a.u.)
 --------------------------------------------------------------

 Alpha MOs
 -- Occupied --
-19.1137 -19.0880 -19.0876 -10.2657 -10.2364 -10.2286 -10.1859 -10.1814
-10.1812 -10.1801 -10.1796 -10.1782 -10.1778 -10.1763 -10.1738 -10.1725
 -1.0458  -1.0132  -1.0078  -0.8645  -0.8332  -0.7737  -0.7561  -0.7518
 -0.6973  -0.6507  -0.6157  -0.6046  -0.5880  -0.5508  -0.5129  -0.4851
 -0.4813  -0.4685  -0.4600  -0.4454  -0.4398  -0.4280  -0.4277  -0.4157
 -0.4136  -0.4040  -0.3854  -0.3845  -0.3701  -0.3664  -0.3612  -0.3466
 -0.2926  -0.2784  -0.2692  -0.2644  -0.2576  -0.2508  -0.2416  -0.1747

 Beta MOs
 -- Occupied --
-19.1132 -19.0814 -19.0806 -10.2656 -10.2355 -10.2273 -10.1859 -10.1813
-10.1811 -10.1796 -10.1791 -10.1782 -10.1778 -10.1740 -10.1733 -10.1715
 -1.0449  -1.0025  -0.9948  -0.8644  -0.8270  -0.7724  -0.7550  -0.7510
 -0.6875  -0.6480  -0.6150  -0.6029  -0.5843  -0.5496  -0.5113  -0.4830
 -0.4785  -0.4661  -0.4592  -0.4436  -0.4380  -0.4268  -0.4266  -0.4089
 -0.4061  -0.3933  -0.3812  -0.3682  -0.3660  -0.3626  -0.3543  -0.3457
 -0.2771  -0.2661  -0.2625  -0.2583  -0.2535  -0.2448  -0.2367

          Ground-State Mulliken Net Atomic Charges

     Atom                 Charge (a.u.)    Spin (a.u.)
  --------------------------------------------------------
      1 C                    -1.059664       0.035922
      2 C                    -0.005859       0.099195
      3 C                     0.037403       0.026377
      4 C                    -0.458782       0.143253
      5 C                     0.070427       0.099653
      6 C                     1.583665       0.090327
      7 O                    -0.423085       0.223673
      8 O                    -0.503001       0.261254
      9 C                     1.255866      -0.002221
     10 C                     0.458738      -0.004286
     11 C                    -1.036000       0.015462
     12 C                    -0.372148      -0.004478
     13 C                    -0.422587       0.002096
     14 C                    -0.318815       0.002598
     15 H                     0.219052      -0.006712
     16 H                     0.215108      -0.003421
     17 H                     0.230507      -0.012452
     18 H                     0.219016      -0.000409
     19 H                     0.191040       0.001600
     20 H                     0.217130      -0.000120
     21 H                     0.213692       0.000067
     22 H                     0.196992      -0.000105
     23 C                    -1.201942       0.016214
     24 O                    -0.306753       0.016514
  --------------------------------------------------------
  Sum of atomic charges =    -1.000000

                    Cartesian Multipole Moments
 -----------------------------------------------------------------
    Charge (ESU x 10^10)
                -4.8032
    Dipole Moment (Debye)
         X       1.1538      Y       0.6117      Z      12.2082
       Tot      12.2778
    Quadrupole Moments (Debye-Ang)
        XX    -106.5798     XY     -10.1639     YY    -120.3200
        XZ       4.0054     YZ      -0.3038     ZZ    -122.5438

 Total job time:  46.87s(wall), 325.13s(cpu)
        *  Thank you very much for using Q-Chem.  Have a nice day.  *
