 Q-Chem 5.4, Q-Chem, Inc., Pleasanton, CA (2021)
 Q-Chem 5.4.0 for Intel X86 EM64T Linux

User input:
--------------------------------------------------------------
$molecule
0 1
C                  2.7881340000      3.5993300000      4.1674500000
C                  3.8121040000      2.8068570000      3.4465910000
C                  3.4743800000      1.7929260000      2.6424820000
C                  2.0498180000      1.4147860000      2.4353420000
C                  1.3467110000      3.2195950000      3.9603630000
C                  1.0232930000      2.1926540000      3.1444000000
O                  3.1006080000      4.5210280000      4.8983550000
O                  1.7566290000      0.4850260000      1.6963170000
S                  0.2395470000      4.2463290000      4.8786180000
C                 -1.3609950000      3.5599650000      4.4320260000
C                 -1.9293450000      2.5517640000      5.2153300000
C                 -2.0624160000      4.0818290000      3.3417840000
C                 -3.3276040000      3.5862400000      3.0318800000
C                 -3.1949130000      2.0610520000      4.8994850000
C                 -3.8933730000      2.5761300000      3.8084120000
H                  4.8394180000      3.1080030000      3.6190440000
H                  4.2071640000      1.2004340000      2.1060420000
H                 -0.0014390000      1.8892700000      2.9698050000
H                 -1.3842240000      2.1590100000      6.0653120000
H                 -1.6201630000      4.8706520000      2.7450790000
H                 -3.8703750000      3.9917730000      2.1857430000
H                 -3.6343350000      1.2786600000      5.5075610000
H                 -4.8782730000      2.1936970000      3.5660680000
$end
$rem
MAX_SCF_CYCLES=200
BASIS  =  6-311++G(d,p)
GUI  =  2
JOB_TYPE  =  SP
METHOD  =  B3LYP
SOLVENT_METHOD = COSMO
$end
$solvent
dielectric 37.219
opticaldielectric 1.43
$end

--------------------------------------------------------------

             Standard Nuclear Orientation (Angstroms)
    I     Atom           X                Y                Z
 ----------------------------------------------------------------
    1      C       2.4052122639    -1.0894692286     0.0001949994
    2      C       3.5725034675    -0.1764539166     0.0001716472
    3      C       3.4217571247     1.1524479775    -0.0002192733
    4      C       2.0698210957     1.7749772455    -0.0003421586
    5      C       1.0367256824    -0.4633475319    -0.0000454485
    6      C       0.9026701001     0.8809112534    -0.0002832063
    7      O       2.5476608833    -2.2982279738     0.0002927084
    8      O       1.9481160296     2.9922525942    -0.0003218336
    9      S      -0.2566130105    -1.6676988505    -0.0000047639
   10      C      -1.7274936868    -0.6338784201    -0.0000535581
   11      C      -2.3167139417    -0.2613651508    -1.2112965109
   12      C      -2.3158433147    -0.2604813967     1.2113012416
   13      C      -3.4877921798     0.4937545276     1.2076067033
   14      C      -3.4886204711     0.4928481951    -1.2072954200
   15      C      -4.0734210242     0.8715746341     0.0002502753
   16      H       4.5422399077    -0.6616489181     0.0003999721
   17      H       4.2617459412     1.8381635169    -0.0003661720
   18      H      -0.0640619101     1.3687945808    -0.0004123528
   19      H      -1.8607918973    -0.5631107134    -2.1466930655
   20      H      -1.8593714808    -0.5616161817     2.1466287802
   21      H      -3.9428660338     0.7829237899     2.1479758438
   22      H      -3.9442852879     0.7815663641    -2.1475064342
   23      H      -4.9858470696     1.4568030735     0.0003469056
 ----------------------------------------------------------------

   10   -1010.8854497940      3.49e-06  Convergence criterion met
 Total energy in the final basis set =    -1010.8854497940
    5   -1010.9022714091      5.86e-06  Convergence criterion met
 Total energy in the final basis set =    -1010.9022714091

                    Orbital Energies (a.u.)
 --------------------------------------------------------------

 Alpha MOs
 -- Occupied --
-88.8840 -19.1533 -19.1413 -10.3004 -10.2877 -10.2490 -10.2217 -10.2138
-10.2128 -10.2051 -10.1933 -10.1933 -10.1885 -10.1878 -10.1876  -7.9696
 -5.9333  -5.9292  -5.9243  -1.0864  -1.0712  -0.8874  -0.8699  -0.8255
 -0.7804  -0.7644  -0.7350  -0.7023  -0.6434  -0.6231  -0.6101  -0.5918
 -0.5379  -0.5246  -0.5150  -0.4886  -0.4738  -0.4673  -0.4596  -0.4579
 -0.4479  -0.4401  -0.4370  -0.4265  -0.4102  -0.4004  -0.3791  -0.3631
 -0.3480  -0.3414  -0.3138  -0.3015  -0.2873  -0.2736  -0.2713  -0.2526

          Ground-State Mulliken Net Atomic Charges

     Atom                 Charge (a.u.)
  ----------------------------------------
      1 C                    -0.722672
      2 C                     0.030805
      3 C                     0.179168
      4 C                    -0.315550
      5 C                     0.337176
      6 C                    -0.218008
      7 O                    -0.255910
      8 O                    -0.323782
      9 S                    -0.025791
     10 C                     1.184712
     11 C                    -0.334817
     12 C                    -0.336331
     13 C                    -0.412003
     14 C                    -0.412517
     15 C                    -0.303021
     16 H                     0.262051
     17 H                     0.270463
     18 H                     0.261372
     19 H                     0.238156
     20 H                     0.238245
     21 H                     0.223276
     22 H                     0.223295
     23 H                     0.211680
  ----------------------------------------
  Sum of atomic charges =     0.000000

                    Cartesian Multipole Moments
 -----------------------------------------------------------------
    Charge (ESU x 10^10)
                 0.0000
    Dipole Moment (Debye)
         X      -2.2131      Y       0.8074      Z      -0.0003
       Tot       2.3558
    Quadrupole Moments (Debye-Ang)
        XX     -72.1289     XY      -2.5546     YY    -119.1296
        XZ      -0.0016     YZ       0.0043     ZZ     -87.1528

 Total job time:  79.25s(wall), 279.27s(cpu)
        *  Thank you very much for using Q-Chem.  Have a nice day.  *
