 Q-Chem 5.4, Q-Chem, Inc., Pleasanton, CA (2021)
 Q-Chem 5.4.0 for Intel X86 EM64T Linux

User input:
--------------------------------------------------------------
$molecule
-2 1
C                 -2.9900410000     -1.5361610000     -0.1538250000
O                 -2.2716350000     -0.5538980000      0.5729550000
C                 -0.9001240000     -0.5415910000      0.2978440000
C                 -0.3549050000      0.6280610000     -0.2547790000
O                 -1.2443770000      1.6350550000     -0.6455160000
C                 -1.0679120000      2.8557970000      0.0517900000
C                  1.0494670000      0.8055710000     -0.4994520000
O                  1.5556760000      1.8871620000     -1.0171860000
C                  1.8522960000     -0.3274670000     -0.1375470000
C                  1.2940230000     -1.4953000000      0.3883410000
C                 -0.0988410000     -1.6836700000      0.6512950000
O                 -0.5925460000     -2.7681230000      1.1688750000
C                  3.3363340000     -0.2209710000     -0.3822860000
H                 -2.5728090000     -2.5303860000      0.0368060000
H                 -4.0320560000     -1.4904110000      0.1908590000
H                 -2.9701540000     -1.3172450000     -1.2349280000
H                 -1.3115080000      2.7355310000      1.1210360000
H                 -1.7706000000      3.5777660000     -0.3858460000
H                 -0.0396860000      3.2142950000     -0.0626880000
H                  1.9446760000     -2.3310640000      0.6510060000
H                  3.7767110000      0.6257570000      0.1641250000
H                  3.8512470000     -1.1418650000     -0.0792430000
H                  3.5567640000     -0.0268430000     -1.4427160000
$end
$rem
MAX_SCF_CYCLES=200
BASIS  =  6-311++G(d,p)
GUI  =  2
JOB_TYPE  =  SP
METHOD  =  B3LYP
SOLVENT_METHOD = COSMO
$end
$solvent
dielectric 37.219
opticaldielectric 1.43
$end

--------------------------------------------------------------

             Standard Nuclear Orientation (Angstroms)
    I     Atom           X                Y                Z
 ----------------------------------------------------------------
    1      C      -3.1861745267    -0.0495743909     0.7259610073
    2      O      -2.2620331198    -0.4568647931    -0.2686414957
    3      C      -0.9882869661     0.1007368527    -0.1152430336
    4      C       0.0874228127    -0.7756828934     0.0980141812
    5      O      -0.2101080464    -2.1266594357     0.3082771788
    6      C       0.3377466749    -2.9917867747    -0.6710064759
    7      C       1.4546213164    -0.3424697463     0.1800508323
    8      O       2.4523457933    -1.1531807766     0.3835910767
    9      C       1.6270832709     1.0747056894     0.0346018706
   10      C       0.5452656213     1.9389112714    -0.1521603633
   11      C      -0.8195124082     1.5236278007    -0.2502356127
   12      O      -1.8072945690     2.3424434595    -0.4539494130
   13      C       3.0352229705     1.6059093718     0.1271901839
   14      H      -3.2678276094     1.0421694062     0.7442455942
   15      H      -4.1547245109    -0.4973476719     0.4649908949
   16      H      -2.8847268875    -0.4241925501     1.7188829378
   17      H      -0.1189964687    -2.8062869398    -1.6579540138
   18      H       0.0945387118    -4.0175847373    -0.3625857287
   19      H       1.4236061676    -2.8631291317    -0.7278493167
   20      H       0.7252341529     3.0098121066    -0.2599862470
   21      H       3.6869199712     1.1600848693    -0.6383009795
   22      H       3.0514370269     2.6973967784     0.0113948379
   23      H       3.5009263876     1.3469071538     1.0899077066
 ----------------------------------------------------------------

   13    -649.9706975705      3.66e-06  Convergence criterion met
 Total energy in the final basis set =     -649.9706975705
    5    -650.2696450212      8.37e-06  Convergence criterion met
 Total energy in the final basis set =     -650.2696450212

                    Orbital Energies (a.u.)
 --------------------------------------------------------------

 Alpha MOs
 -- Occupied --
-19.1124 -19.1122 -19.0191 -19.0169 -10.1885 -10.1884 -10.1752 -10.1735
-10.1700 -10.1660 -10.1386 -10.1280 -10.1177  -1.0311  -1.0137  -0.9291
 -0.9255  -0.7828  -0.7308  -0.6815  -0.6744  -0.6362  -0.6142  -0.5482
 -0.5267  -0.4791  -0.4610  -0.4546  -0.4422  -0.4248  -0.4203  -0.4051
 -0.3933  -0.3899  -0.3645  -0.3593  -0.3458  -0.3392  -0.3325  -0.3238
 -0.3158  -0.3084  -0.2616  -0.2588  -0.2240  -0.1982  -0.1951  -0.1918
 -0.1193

          Ground-State Mulliken Net Atomic Charges

     Atom                 Charge (a.u.)
  ----------------------------------------
      1 C                    -0.252841
      2 O                    -0.239068
      3 C                     0.094578
      4 C                    -0.264854
      5 O                    -0.231970
      6 C                    -0.252470
      7 C                    -0.386589
      8 O                    -0.759535
      9 C                     1.056946
     10 C                    -0.789012
     11 C                    -0.205263
     12 O                    -0.774998
     13 C                    -0.430727
     14 H                     0.170931
     15 H                     0.145718
     16 H                     0.126587
     17 H                     0.127492
     18 H                     0.146566
     19 H                     0.167383
     20 H                     0.119207
     21 H                     0.146435
     22 H                     0.140680
     23 H                     0.144806
  ----------------------------------------
  Sum of atomic charges =    -2.000000

                    Cartesian Multipole Moments
 -----------------------------------------------------------------
    Charge (ESU x 10^10)
                -9.6064
    Dipole Moment (Debye)
         X      -1.3486      Y      -4.1761      Z       0.3300
       Tot       4.4008
    Quadrupole Moments (Debye-Ang)
        XX    -123.3232     XY      23.0872     YY    -115.5001
        XZ     -11.0151     YZ       9.4290     ZZ     -88.0335

 Total job time:  39.73s(wall), 295.16s(cpu)
        *  Thank you very much for using Q-Chem.  Have a nice day.  *
