 Q-Chem 5.4, Q-Chem, Inc., Pleasanton, CA (2021)
 Q-Chem 5.4.0 for Intel X86 EM64T Linux

User input:
--------------------------------------------------------------
$molecule
-2 1
C                  1.0905590000      1.7416310000     -0.6813450000
C                 -0.1103610000      1.2619340000     -0.0227480000
C                 -0.4025380000     -0.0905740000      0.1219400000
C                  0.4671600000     -1.1533540000     -0.3717130000
C                  1.6351970000     -0.6941620000     -1.0229820000
C                  1.9220710000      0.6820980000     -1.1819890000
O                  1.3695430000      2.9946250000     -0.7696050000
O                  0.1659640000     -2.4048160000     -0.2242270000
S                  3.4217860000      1.1147450000     -2.0133990000
C                  4.4509350000      1.9912830000     -0.7974130000
C                  4.2001190000      3.3344740000     -0.4844660000
C                  5.4924000000      1.2979130000     -0.1732980000
C                  6.2972220000      1.9480910000      0.7594430000
C                  5.0098360000      3.9713980000      0.4549840000
C                  6.0614170000      3.2916240000      1.0766960000
O                  3.2283080000      2.0543390000     -3.1421860000
O                  4.1857890000     -0.1262640000     -2.3191080000
H                  3.3489900000      3.8194810000     -0.9445440000
H                  5.6565960000      0.2605020000     -0.4391150000
H                  4.8132620000      5.0098190000      0.7084150000
H                  2.3181410000     -1.4283330000     -1.4322510000
H                  7.1097420000      1.4085650000      1.2389840000
C                 -1.6662970000     -0.5318080000      0.8230480000
C                 -1.0402720000      2.3204500000      0.5254730000
H                  6.6866560000      3.7991590000      1.8065930000
H                 -1.7069020000     -0.1826490000      1.8659970000
H                 -1.6928070000     -1.6242550000      0.8116320000
H                 -2.5708660000     -0.1440360000      0.3306400000
H                 -0.6287280000      3.3027490000      0.2834370000
H                 -1.1553210000      2.2491070000      1.6182260000
H                 -2.0528520000      2.2439530000      0.1016420000
$end

$rem
BASIS  =  6-311++G(d,p)
GUI  =  2
JOB_TYPE  =  SP
METHOD  =  B3LYP
SCF_CONVERGENCE  = 8
SOLVENT_METHOD = sm12
$end

$smx
solvent dimethylformamide
charges CM5
$end

--------------------------------------------------------------

             Standard Nuclear Orientation (Angstroms)
    I     Atom           X                Y                Z
 ----------------------------------------------------------------
    1      C       1.0905590000     1.7416310000    -0.6813450000
    2      C      -0.1103610000     1.2619340000    -0.0227480000
    3      C      -0.4025380000    -0.0905740000     0.1219400000
    4      C       0.4671600000    -1.1533540000    -0.3717130000
    5      C       1.6351970000    -0.6941620000    -1.0229820000
    6      C       1.9220710000     0.6820980000    -1.1819890000
    7      O       1.3695430000     2.9946250000    -0.7696050000
    8      O       0.1659640000    -2.4048160000    -0.2242270000
    9      S       3.4217860000     1.1147450000    -2.0133990000
   10      C       4.4509350000     1.9912830000    -0.7974130000
   11      C       4.2001190000     3.3344740000    -0.4844660000
   12      C       5.4924000000     1.2979130000    -0.1732980000
   13      C       6.2972220000     1.9480910000     0.7594430000
   14      C       5.0098360000     3.9713980000     0.4549840000
   15      C       6.0614170000     3.2916240000     1.0766960000
   16      O       3.2283080000     2.0543390000    -3.1421860000
   17      O       4.1857890000    -0.1262640000    -2.3191080000
   18      H       3.3489900000     3.8194810000    -0.9445440000
   19      H       5.6565960000     0.2605020000    -0.4391150000
   20      H       4.8132620000     5.0098190000     0.7084150000
   21      H       2.3181410000    -1.4283330000    -1.4322510000
   22      H       7.1097420000     1.4085650000     1.2389840000
   23      C      -1.6662970000    -0.5318080000     0.8230480000
   24      C      -1.0402720000     2.3204500000     0.5254730000
   25      H       6.6866560000     3.7991590000     1.8065930000
   26      H      -1.7069020000    -0.1826490000     1.8659970000
   27      H      -1.6928070000    -1.6242550000     0.8116320000
   28      H      -2.5708660000    -0.1440360000     0.3306400000
   29      H      -0.6287280000     3.3027490000     0.2834370000
   30      H      -1.1553210000     2.2491070000     1.6182260000
   31      H      -2.0528520000     2.2439530000     0.1016420000
 ----------------------------------------------------------------

   18   -1239.9754807106      5.06e-09  Convergence criterion met
 Total energy in the final basis set =    -1240.2510541143

                    Orbital Energies (a.u.)
 --------------------------------------------------------------

 Alpha MOs
 -- Occupied --
-89.0283 -19.0927 -19.0924 -19.0290 -19.0161 -10.2044 -10.1952 -10.1907
-10.1904 -10.1892 -10.1872 -10.1831 -10.1802 -10.1637 -10.1628 -10.1625
-10.1535 -10.1511 -10.1365  -8.0916  -6.0547  -6.0536  -6.0522  -1.0804
 -0.9746  -0.9496  -0.9303  -0.8700  -0.8092  -0.7787  -0.7616  -0.7593
 -0.7208  -0.6908  -0.6531  -0.6362  -0.6183  -0.5948  -0.5503  -0.5441
 -0.5215  -0.4821  -0.4733  -0.4661  -0.4595  -0.4515  -0.4363  -0.4320
 -0.4303  -0.4228  -0.3968  -0.3925  -0.3853  -0.3838  -0.3812  -0.3790
 -0.3647  -0.3562  -0.3526  -0.3400  -0.3246  -0.3199  -0.3138  -0.3003
 -0.2842  -0.2811  -0.2692  -0.2657  -0.2361  -0.2231  -0.2071  -0.1944
 -0.1293

          Ground-State Mulliken Net Atomic Charges

     Atom                 Charge (a.u.)
  ----------------------------------------
      1 C                    -0.865099
      2 C                    -0.810312
      3 C                     0.048702
      4 C                    -2.113290
      5 C                    -1.239460
      6 C                    -0.538589
      7 O                    -0.253392
      8 O                    -0.433436
      9 S                     0.133925
     10 C                    -2.370953
     11 C                    -1.678674
     12 C                     0.035454
     13 C                     1.212590
     14 C                     0.796466
     15 C                     1.865350
     16 O                    -0.072688
     17 O                    -0.156279
     18 H                     0.124361
     19 H                     0.243114
     20 H                     0.353249
     21 H                    -0.011366
     22 H                     0.399778
     23 C                     0.730182
     24 C                     0.903549
     25 H                     0.475865
     26 H                     0.221072
     27 H                     0.171566
     28 H                     0.221417
     29 H                     0.218246
     30 H                     0.191323
     31 H                     0.197327
  ----------------------------------------
  Sum of atomic charges =    -2.000000

                    Cartesian Multipole Moments
 -----------------------------------------------------------------
    Charge (ESU x 10^10)
                -9.6064
    Dipole Moment (Debye)
         X     -13.5446      Y      -2.1698      Z      11.0789
       Tot      17.6326
    Quadrupole Moments (Debye-Ang)
        XX    -176.3481     XY     -16.0131     YY    -179.0793
        XZ      39.4504     YZ      14.5988     ZZ    -157.5450

 Total job time:  1006.09s(wall), 7746.72s(cpu)
        *  Thank you very much for using Q-Chem.  Have a nice day.  *
