 Q-Chem 5.4, Q-Chem, Inc., Pleasanton, CA (2021)
 Q-Chem 5.4.0 for Intel X86 EM64T Linux

User input:
--------------------------------------------------------------
$molecule
0 1
C                 -1.8553760000      1.7421730000     -0.7954900000
C                 -2.6110940000      0.8871480000     -1.5897300000
C                 -2.1500160000     -0.4128810000     -1.8540680000
C                 -0.6428370000      1.3114370000     -0.2619070000
C                 -0.1837620000      0.0168890000     -0.5243540000
C                 -0.9398410000     -0.8410410000     -1.3200320000
C                  0.1621030000      2.2342400000      0.5861540000
C                  1.4634990000      1.7489430000      1.1386600000
C                  1.9013200000      0.4848770000      0.9049200000
C                  1.1107140000     -0.4529730000      0.0461380000
O                 -0.2295950000      3.3651670000      0.8276760000
O                  1.5166550000     -1.5813540000     -0.1835860000
C                  2.2006810000      2.7691190000      1.9593440000
C                  3.1990560000     -0.0736410000      1.4314700000
C                  4.3828700000      0.1519080000      0.4662160000
C                  5.6900220000     -0.4559420000      0.9855310000
C                  6.8766820000     -0.2415450000      0.0391630000
C                  8.1869510000     -0.8486750000      0.5535890000
C                  9.3739900000     -0.6373460000     -0.3929670000
C                 10.6844570000     -1.2453390000      0.1197430000
C                 11.8714710000     -1.0349870000     -0.8267830000
C                 13.1826080000     -1.6428550000     -0.3155360000
C                 14.3623100000     -1.4279240000     -1.2681970000
Cl                -3.0674010000     -1.5140660000     -2.8450780000
Cl                -4.1223560000      1.4607040000     -2.2402210000
H                 -2.2012970000      2.7458700000     -0.5855930000
H                 -0.5761730000     -1.8409570000     -1.5173070000
H                  2.3131010000      3.6957940000      1.3912730000
H                  3.1840620000      2.4238030000      2.2687110000
H                  1.6202580000      3.0315370000      2.8491300000
H                  3.0739220000     -1.1481250000      1.5801440000
H                  3.4309650000      0.3652880000      2.4042580000
H                  4.5170800000      1.2272710000      0.2991440000
H                  4.1366860000     -0.2871360000     -0.5062130000
H                  5.5461320000     -1.5310430000      1.1498100000
H                  5.9269610000     -0.0256540000      1.9674150000
H                  7.0175790000      0.8342120000     -0.1279330000
H                  6.6384580000     -0.6728810000     -0.9414250000
H                  8.0452140000     -1.9240800000      0.7214580000
H                  8.4252220000     -0.4172680000      1.5345310000
H                  9.5157520000      0.4382130000     -0.5608710000
H                  9.1350240000     -1.0682600000     -1.3738490000
H                 10.5424360000     -2.3208290000      0.2877700000
H                 10.9236230000     -0.8143960000      1.1007130000
H                 12.0145840000      0.0404800000     -0.9952830000
H                 11.6331730000     -1.4659260000     -1.8080750000
H                 13.0402450000     -2.7174150000     -0.1476430000
H                 13.4216650000     -1.2119450000      0.6644420000
H                 14.1677840000     -1.8785740000     -2.2466530000
H                 15.2805870000     -1.8729520000     -0.8749020000
H                 14.5523650000     -0.3618310000     -1.4283670000
$end
$rem
MAX_SCF_CYCLES=200
BASIS  =  6-311++G(d,p)
GUI  =  2
JOB_TYPE  =  SP
METHOD  =  B3LYP
SCF_CONVERGENCE = 8
SCF_ALGORITHM = RCA_DIIS
THRESH = 14
scf_guess = GWH
SOLVENT_METHOD = PCM
$end
$pcm
theory = CPCM
$end
$solvent
dielectric 37.219
opticaldielectric 1.43
$end

--------------------------------------------------------------

             Standard Nuclear Orientation (Angstroms)
    I     Atom           X                Y                Z
 ----------------------------------------------------------------
    1      C      -1.8553760000     1.7421730000    -0.7954900000
    2      C      -2.6110940000     0.8871480000    -1.5897300000
    3      C      -2.1500160000    -0.4128810000    -1.8540680000
    4      C      -0.6428370000     1.3114370000    -0.2619070000
    5      C      -0.1837620000     0.0168890000    -0.5243540000
    6      C      -0.9398410000    -0.8410410000    -1.3200320000
    7      C       0.1621030000     2.2342400000     0.5861540000
    8      C       1.4634990000     1.7489430000     1.1386600000
    9      C       1.9013200000     0.4848770000     0.9049200000
   10      C       1.1107140000    -0.4529730000     0.0461380000
   11      O      -0.2295950000     3.3651670000     0.8276760000
   12      O       1.5166550000    -1.5813540000    -0.1835860000
   13      C       2.2006810000     2.7691190000     1.9593440000
   14      C       3.1990560000    -0.0736410000     1.4314700000
   15      C       4.3828700000     0.1519080000     0.4662160000
   16      C       5.6900220000    -0.4559420000     0.9855310000
   17      C       6.8766820000    -0.2415450000     0.0391630000
   18      C       8.1869510000    -0.8486750000     0.5535890000
   19      C       9.3739900000    -0.6373460000    -0.3929670000
   20      C      10.6844570000    -1.2453390000     0.1197430000
   21      C      11.8714710000    -1.0349870000    -0.8267830000
   22      C      13.1826080000    -1.6428550000    -0.3155360000
   23      C      14.3623100000    -1.4279240000    -1.2681970000
   24      Cl     -3.0674010000    -1.5140660000    -2.8450780000
   25      Cl     -4.1223560000     1.4607040000    -2.2402210000
   26      H      -2.2012970000     2.7458700000    -0.5855930000
   27      H      -0.5761730000    -1.8409570000    -1.5173070000
   28      H       2.3131010000     3.6957940000     1.3912730000
   29      H       3.1840620000     2.4238030000     2.2687110000
   30      H       1.6202580000     3.0315370000     2.8491300000
   31      H       3.0739220000    -1.1481250000     1.5801440000
   32      H       3.4309650000     0.3652880000     2.4042580000
   33      H       4.5170800000     1.2272710000     0.2991440000
   34      H       4.1366860000    -0.2871360000    -0.5062130000
   35      H       5.5461320000    -1.5310430000     1.1498100000
   36      H       5.9269610000    -0.0256540000     1.9674150000
   37      H       7.0175790000     0.8342120000    -0.1279330000
   38      H       6.6384580000    -0.6728810000    -0.9414250000
   39      H       8.0452140000    -1.9240800000     0.7214580000
   40      H       8.4252220000    -0.4172680000     1.5345310000
   41      H       9.5157520000     0.4382130000    -0.5608710000
   42      H       9.1350240000    -1.0682600000    -1.3738490000
   43      H      10.5424360000    -2.3208290000     0.2877700000
   44      H      10.9236230000    -0.8143960000     1.1007130000
   45      H      12.0145840000     0.0404800000    -0.9952830000
   46      H      11.6331730000    -1.4659260000    -1.8080750000
   47      H      13.0402450000    -2.7174150000    -0.1476430000
   48      H      13.4216650000    -1.2119450000     0.6644420000
   49      H      14.1677840000    -1.8785740000    -2.2466530000
   50      H      15.2805870000    -1.8729520000    -0.8749020000
   51      H      14.5523650000    -0.3618310000    -1.4283670000
 ----------------------------------------------------------------

   92   -1887.0871811041      2.22E-09 Convergence criterion met
 Total energy in the final basis set = -1887.08718110

                    Orbital Energies (a.u.)
 --------------------------------------------------------------

 Alpha MOs
 -- Occupied --
********-101.5766 -19.1383 -19.1381 -10.2870 -10.2863 -10.2727 -10.2722
-10.2181 -10.2176 -10.2162 -10.2147 -10.2147 -10.2135 -10.1748 -10.1722
-10.1672 -10.1599 -10.1584 -10.1576 -10.1565 -10.1561 -10.1559 -10.1557
-10.1520  -9.4913  -9.4913  -7.2561  -7.2560  -7.2462  -7.2461  -7.2455
 -7.2454  -1.0729  -1.0711  -0.9400  -0.8809  -0.8804  -0.8492  -0.8102
 -0.7969  -0.7841  -0.7783  -0.7694  -0.7466  -0.7209  -0.6953  -0.6818
 -0.6604  -0.6436  -0.6191  -0.6016  -0.5895  -0.5790  -0.5717  -0.5693
 -0.5559  -0.5217  -0.5205  -0.4930  -0.4817  -0.4734  -0.4693  -0.4670
 -0.4659  -0.4655  -0.4454  -0.4393  -0.4361  -0.4311  -0.4287  -0.4264
 -0.4193  -0.4161  -0.4087  -0.4052  -0.3988  -0.3950  -0.3932  -0.3848
 -0.3798  -0.3680  -0.3638  -0.3573  -0.3514  -0.3486  -0.3445  -0.3412
 -0.3365  -0.3290  -0.3271  -0.3242  -0.3203  -0.3179  -0.3164  -0.3019
 -0.2945  -0.2856  -0.2835  -0.2770  -0.2676

          Ground-State Mulliken Net Atomic Charges

     Atom                 Charge (a.u.)
  ----------------------------------------
      1 C                    -0.383822
      2 C                     0.357403
      3 C                     0.218343
      4 C                    -0.528892
      5 C                    -0.282913
      6 C                    -0.200043
      7 C                    -0.221750
      8 C                     0.311086
      9 C                     0.586911
     10 C                    -0.831231
     11 O                    -0.289079
     12 O                    -0.261050
     13 C                    -0.395050
     14 C                    -0.498113
     15 C                    -0.913903
     16 C                    -0.314579
     17 C                     0.023251
     18 C                     0.073569
     19 C                    -0.011855
     20 C                    -0.244120
     21 C                    -0.466387
     22 C                    -0.293670
     23 C                    -0.712268
     24 Cl                    0.567854
     25 Cl                    0.540533
     26 H                     0.242035
     27 H                     0.246065
     28 H                     0.197068
     29 H                     0.154548
     30 H                     0.216908
     31 H                     0.226360
     32 H                     0.221577
     33 H                     0.152648
     34 H                     0.205453
     35 H                     0.128467
     36 H                     0.138159
     37 H                     0.136791
     38 H                     0.131370
     39 H                     0.136703
     40 H                     0.134926
     41 H                     0.134971
     42 H                     0.134705
     43 H                     0.131209
     44 H                     0.131457
     45 H                     0.128199
     46 H                     0.128623
     47 H                     0.135156
     48 H                     0.135242
     49 H                     0.144735
     50 H                     0.151640
     51 H                     0.144763
  ----------------------------------------
  Sum of atomic charges =     0.000000

                    Cartesian Multipole Moments
 -----------------------------------------------------------------
    Charge (ESU x 10^10)
                 0.0000
    Dipole Moment (Debye)
         X       2.8052      Y       0.5118      Z       1.6415
       Tot       3.2902
    Quadrupole Moments (Debye-Ang)
        XX    -164.3858     XY       7.7951     YY    -178.4462
        XZ       4.3369     YZ      -0.0490     ZZ    -166.8853

 Total job time:  3150.27s(wall), 18866.29s(cpu)
        *  Thank you very much for using Q-Chem.  Have a nice day.  *
