 Q-Chem 5.4, Q-Chem, Inc., Pleasanton, CA (2021)
 Q-Chem 5.4.0 for Intel X86 EM64T Linux

User input:
--------------------------------------------------------------
$molecule
0 1
C                  3.6677520000     -1.3648870000      0.2900990000
C                  2.5453500000     -0.5934330000     -0.3350300000
O                  2.2278170000     -0.5796880000     -1.4893050000
O                  1.8889860000      0.1526920000      0.6291300000
C                  0.7020450000      0.7750310000      0.2925050000
C                  0.7269580000      2.1632230000      0.2016750000
C                 -0.4404130000      2.8695930000     -0.0653350000
C                 -1.6391560000      2.1874770000     -0.2421600000
C                 -1.6711360000      0.7977840000     -0.1447490000
C                 -2.9878290000      0.1099000000     -0.3269740000
O                 -4.0093720000      0.7281920000     -0.5765900000
C                 -3.0141260000     -1.3614840000     -0.1864570000
C                 -1.9056600000     -2.0586660000      0.0885460000
C                 -0.5736420000     -1.4251580000      0.2585360000
O                  0.3911830000     -2.1341440000      0.4987510000
C                 -0.4965820000      0.0598880000      0.1279440000
H                  4.2265010000     -0.7414640000      0.9896250000
H                  4.3217670000     -1.7515800000     -0.4886770000
H                  3.2323940000     -2.1955980000      0.8511430000
H                  1.6733390000      2.6707870000      0.3424930000
H                 -0.4117060000      3.9504670000     -0.1380030000
H                 -2.5624530000      2.7117700000     -0.4533210000
H                 -3.9818350000     -1.8327300000     -0.3189390000
H                 -1.9101800000     -3.1379700000      0.1950940000
$end

$rem
BASIS  =  6-311++G(d,p)
GUI  =  2
JOB_TYPE  =  SP
METHOD  =  B3LYP
SCF_CONVERGENCE  = 8
SOLVENT_METHOD = sm12
$end

$smx
solvent dimethylformamide
charges CM5
$end

--------------------------------------------------------------

             Standard Nuclear Orientation (Angstroms)
    I     Atom           X                Y                Z
 ----------------------------------------------------------------
    1      C       3.6677520000    -1.3648870000     0.2900990000
    2      C       2.5453500000    -0.5934330000    -0.3350300000
    3      O       2.2278170000    -0.5796880000    -1.4893050000
    4      O       1.8889860000     0.1526920000     0.6291300000
    5      C       0.7020450000     0.7750310000     0.2925050000
    6      C       0.7269580000     2.1632230000     0.2016750000
    7      C      -0.4404130000     2.8695930000    -0.0653350000
    8      C      -1.6391560000     2.1874770000    -0.2421600000
    9      C      -1.6711360000     0.7977840000    -0.1447490000
   10      C      -2.9878290000     0.1099000000    -0.3269740000
   11      O      -4.0093720000     0.7281920000    -0.5765900000
   12      C      -3.0141260000    -1.3614840000    -0.1864570000
   13      C      -1.9056600000    -2.0586660000     0.0885460000
   14      C      -0.5736420000    -1.4251580000     0.2585360000
   15      O       0.3911830000    -2.1341440000     0.4987510000
   16      C      -0.4965820000     0.0598880000     0.1279440000
   17      H       4.2265010000    -0.7414640000     0.9896250000
   18      H       4.3217670000    -1.7515800000    -0.4886770000
   19      H       3.2323940000    -2.1955980000     0.8511430000
   20      H       1.6733390000     2.6707870000     0.3424930000
   21      H      -0.4117060000     3.9504670000    -0.1380030000
   22      H      -2.5624530000     2.7117700000    -0.4533210000
   23      H      -3.9818350000    -1.8327300000    -0.3189390000
   24      H      -1.9101800000    -3.1379700000     0.1950940000
 ----------------------------------------------------------------

   16    -763.1963419111      1.64e-09  Convergence criterion met
 Total energy in the final basis set =     -763.2187833806

                    Orbital Energies (a.u.)
 --------------------------------------------------------------

 Alpha MOs
 -- Occupied --
-19.1847 -19.1366 -19.1355 -19.1268 -10.3187 -10.2885 -10.2845 -10.2682
-10.2186 -10.2150 -10.2122 -10.2107 -10.2038 -10.2024 -10.1996 -10.1773
 -1.1277  -1.0697  -1.0675  -1.0464  -0.8954  -0.8440  -0.7951  -0.7841
 -0.7508  -0.7044  -0.6651  -0.6537  -0.6289  -0.5619  -0.5440  -0.5419
 -0.5113  -0.5022  -0.4957  -0.4900  -0.4789  -0.4648  -0.4563  -0.4517
 -0.4337  -0.4282  -0.4233  -0.4173  -0.4113  -0.3954  -0.3887  -0.3842
 -0.3759  -0.3384  -0.3093  -0.2994  -0.2887  -0.2869  -0.2776  -0.2723

          Ground-State Mulliken Net Atomic Charges

     Atom                 Charge (a.u.)
  ----------------------------------------
      1 C                    -0.172298
      2 C                    -0.336795
      3 O                    -0.303092
      4 O                     0.012803
      5 C                    -0.692895
      6 C                     0.950682
      7 C                     0.310583
      8 C                     0.154328
      9 C                    -0.065572
     10 C                    -0.994119
     11 O                    -0.308978
     12 C                     0.570069
     13 C                     0.491196
     14 C                    -0.921236
     15 O                    -0.298108
     16 C                    -0.520161
     17 H                     0.227296
     18 H                     0.193035
     19 H                     0.208727
     20 H                     0.276690
     21 H                     0.366936
     22 H                     0.196213
     23 H                     0.331564
     24 H                     0.323130
  ----------------------------------------
  Sum of atomic charges =     0.000000

                    Cartesian Multipole Moments
 -----------------------------------------------------------------
    Charge (ESU x 10^10)
                 0.0000
    Dipole Moment (Debye)
         X       1.2454      Y       1.1184      Z       1.9289
       Tot       2.5540
    Quadrupole Moments (Debye-Ang)
        XX     -91.8170     XY       8.4860     YY     -78.5360
        XZ       2.4294     YZ      -0.1210     ZZ     -98.2687

 Total job time:  433.41s(wall), 3311.98s(cpu)
        *  Thank you very much for using Q-Chem.  Have a nice day.  *
