 Gaussian 16, Revision A.03,
 Gaussian 16:  ES64L-G16RevA.03 25-Dec-2016

 ----------------------------------------------------------------------
 #P UB3LYP/6-311++G(d,p) nosym opt freq SCRF=(PCM,Solvent=n,n-DiMethylF
 ormamide)
 ----------------------------------------------------------------------

 --------
 Oxidized
 --------
 Symbolic Z-matrix:
 Charge =  0 Multiplicity = 1

 SCF Done:  E(UB3LYP) =  -763.210408353     A.U. after   16 cycles
 SCF Done:  E(UB3LYP) =  -763.210614570     A.U. after   12 cycles
 SCF Done:  E(UB3LYP) =  -763.210465910     A.U. after   13 cycles
 SCF Done:  E(UB3LYP) =  -763.210711842     A.U. after   11 cycles
 SCF Done:  E(UB3LYP) =  -763.210716727     A.U. after   11 cycles
 SCF Done:  E(UB3LYP) =  -763.210736020     A.U. after   11 cycles
 SCF Done:  E(UB3LYP) =  -763.210739185     A.U. after   11 cycles
 SCF Done:  E(UB3LYP) =  -763.210742969     A.U. after   11 cycles
 SCF Done:  E(UB3LYP) =  -763.210744635     A.U. after   11 cycles
 SCF Done:  E(UB3LYP) =  -763.210745351     A.U. after   11 cycles
 SCF Done:  E(UB3LYP) =  -763.210745644     A.U. after    9 cycles
 SCF Done:  E(UB3LYP) =  -763.210746237     A.U. after   10 cycles
 SCF Done:  E(UB3LYP) =  -763.210746835     A.U. after   10 cycles
 SCF Done:  E(UB3LYP) =  -763.210747402     A.U. after    9 cycles
 SCF Done:  E(UB3LYP) =  -763.210747727     A.U. after    9 cycles
 SCF Done:  E(UB3LYP) =  -763.210747803     A.U. after    9 cycles
 Optimization completed.
    -- Stationary point found.
 Normal termination of Gaussian 16 at Sun Feb 11 01:14:58 2024.

 ----------------------------------------------------------------------
 #P Geom=AllCheck Guess=TCheck SCRF=Check GenChk UB3LYP/6-311++G(d,p) F
 req
 ----------------------------------------------------------------------

 Structure from the checkpoint file:  "262.chk"
 --------
 Oxidized
 --------
 Charge =  0 Multiplicity = 1

                          Input orientation:
 ---------------------------------------------------------------------
 Center     Atomic      Atomic             Coordinates (Angstroms)
 Number     Number       Type             X           Y           Z
 ---------------------------------------------------------------------
      1          6           0        3.729729   -1.309041    0.294153
      2          6           0        2.573407   -0.580234   -0.317247
      3          8           0        2.277885   -0.540750   -1.483518
      4          8           0        1.857920    0.081578    0.649538
      5          6           0        0.682156    0.728044    0.294488
      6          6           0        0.736466    2.115185    0.203506
      7          6           0       -0.416926    2.841231   -0.071226
      8          6           0       -1.627241    2.178325   -0.249273
      9          6           0       -1.686584    0.789722   -0.150571
     10          6           0       -3.011169    0.120867   -0.328120
     11          8           0       -4.024417    0.755821   -0.589415
     12          6           0       -3.066702   -1.345641   -0.170204
     13          6           0       -1.968710   -2.062466    0.097011
     14          6           0       -0.624395   -1.452943    0.235193
     15          8           0        0.341190   -2.180472    0.427777
     16          6           0       -0.524366    0.030929    0.123236
     17          1           0        4.284237   -0.650972    0.964964
     18          1           0        4.381846   -1.687876   -0.489544
     19          1           0        3.344317   -2.142324    0.886746
     20          1           0        1.688697    2.608926    0.352752
     21          1           0       -0.369742    3.920834   -0.143894
     22          1           0       -2.535931    2.726555   -0.460701
     23          1           0       -4.041818   -1.805020   -0.285621
     24          1           0       -1.999845   -3.140277    0.209970
 ---------------------------------------------------------------------

 SCF Done:  E(UB3LYP) =  -763.210747803     A.U. after    1 cycles

 Alpha  occ. eigenvalues --  -19.19242 -19.14260 -19.14231 -19.13468 -10.32749
 Alpha  occ. eigenvalues --  -10.29453 -10.29118 -10.27328 -10.22357 -10.21977
 Alpha  occ. eigenvalues --  -10.21717 -10.21569 -10.20829 -10.20708 -10.20463
 Alpha  occ. eigenvalues --  -10.18562  -1.13589  -1.07432  -1.07226  -1.05138
 Alpha  occ. eigenvalues --   -0.90088  -0.84884  -0.80175  -0.78890  -0.75803
 Alpha  occ. eigenvalues --   -0.71007  -0.67160  -0.65877  -0.63535  -0.56808
 Alpha  occ. eigenvalues --   -0.54911  -0.54649  -0.51814  -0.51068  -0.50352
 Alpha  occ. eigenvalues --   -0.49656  -0.48481  -0.47116  -0.46240  -0.45786
 Alpha  occ. eigenvalues --   -0.43972  -0.43482  -0.42928  -0.42293  -0.41982
 Alpha  occ. eigenvalues --   -0.40168  -0.39458  -0.39084  -0.38133  -0.34372
 Alpha  occ. eigenvalues --   -0.31460  -0.30634  -0.29472  -0.29150  -0.28373
 Alpha  occ. eigenvalues --   -0.27916
 Alpha virt. eigenvalues --   -0.13474  -0.06420  -0.04381  -0.01710  -0.00594
 Alpha virt. eigenvalues --    0.00333   0.00617   0.01603   0.02130   0.02702
 Alpha virt. eigenvalues --    0.03044   0.03366   0.04516   0.04842   0.05174

  Beta  occ. eigenvalues --  -19.19242 -19.14260 -19.14231 -19.13468 -10.32749
  Beta  occ. eigenvalues --  -10.29453 -10.29118 -10.27328 -10.22357 -10.21977
  Beta  occ. eigenvalues --  -10.21717 -10.21569 -10.20829 -10.20708 -10.20463
  Beta  occ. eigenvalues --  -10.18562  -1.13589  -1.07432  -1.07226  -1.05138
  Beta  occ. eigenvalues --   -0.90088  -0.84884  -0.80175  -0.78890  -0.75803
  Beta  occ. eigenvalues --   -0.71007  -0.67160  -0.65877  -0.63535  -0.56808
  Beta  occ. eigenvalues --   -0.54911  -0.54649  -0.51814  -0.51068  -0.50352
  Beta  occ. eigenvalues --   -0.49656  -0.48481  -0.47116  -0.46240  -0.45786
  Beta  occ. eigenvalues --   -0.43972  -0.43482  -0.42928  -0.42293  -0.41982
  Beta  occ. eigenvalues --   -0.40168  -0.39458  -0.39084  -0.38133  -0.34372
  Beta  occ. eigenvalues --   -0.31460  -0.30634  -0.29472  -0.29150  -0.28373
  Beta  occ. eigenvalues --   -0.27916
  Beta virt. eigenvalues --   -0.13474  -0.06420  -0.04381  -0.01710  -0.00594
  Beta virt. eigenvalues --    0.00333   0.00617   0.01603   0.02130   0.02702
  Beta virt. eigenvalues --    0.03044   0.03366   0.04516   0.04842   0.05174

 Mulliken charges and spin densities:
               1          2
     1  C   -0.491840  -0.000000
     2  C    0.044942   0.000000
     3  O   -0.277533  -0.000000
     4  O    0.009723  -0.000000
     5  C   -0.092755   0.000000
     6  C    0.248042   0.000000
     7  C   -0.563329  -0.000000
     8  C    0.128665   0.000000
     9  C    0.313932  -0.000000
    10  C   -0.375756   0.000000
    11  O   -0.287608  -0.000000
    12  C   -0.034328   0.000000
    13  C   -0.184245  -0.000000
    14  C   -0.274181  -0.000000
    15  O   -0.282468   0.000000
    16  C    0.436922  -0.000000
    17  H    0.186503   0.000000
    18  H    0.177367  -0.000000
    19  H    0.197667  -0.000000
    20  H    0.223960  -0.000000
    21  H    0.224928  -0.000000
    22  H    0.194774  -0.000000
    23  H    0.239504   0.000000
    24  H    0.237114  -0.000000
 Sum of Mulliken charges =  -0.00000  -0.00000

 Dipole moment (field-independent basis, Debye):
    X=              1.3403    Y=              1.4392    Z=              2.5305  Tot=              3.2048
 Quadrupole moment (field-independent basis, Debye-Ang):
   XX=            -91.8346   YY=            -79.1008   ZZ=            -98.5494
   XY=             10.1264   XZ=              2.7719   YZ=             -0.0813

  Exact polarizability: 260.420 -19.945 239.430  23.284 -10.716 123.068
 Approx polarizability: 311.674 -39.098 282.960  36.317 -16.721 151.695

                      1                      2                      3
                      A                      A                      A
 Frequencies --     39.6967                56.5578                60.9045
 Red. masses --      6.1611                 5.7363                 1.9319
 Frc consts  --      0.0057                 0.0108                 0.0042
 IR Inten    --      3.9383                 5.8239                 3.9745

                      4                      5                      6
                      A                      A                      A
 Frequencies --     73.0361                93.7415               124.1271
 Red. masses --      2.5789                 2.5450                 7.1508
 Frc consts  --      0.0081                 0.0132                 0.0649
 IR Inten    --     10.7339                 6.4003                 4.0565

                      7                      8                      9
                      A                      A                      A
 Frequencies --    179.0278               251.4696               262.8445
 Red. masses --      5.1228                 4.7719                 8.7679
 Frc consts  --      0.0967                 0.1778                 0.3569
 IR Inten    --      0.0092                 0.0875                 2.5383

                     10                     11                     12
                      A                      A                      A
 Frequencies --    273.3901               304.2378               368.2970
 Red. masses --      5.3743                 3.8910                 8.8136
 Frc consts  --      0.2367                 0.2122                 0.7044
 IR Inten    --      0.9730                 4.0510                11.8788

                     13                     14                     15
                      A                      A                      A
 Frequencies --    412.2339               447.8182               465.6101
 Red. masses --      7.5137                10.6413                 6.0740
 Frc consts  --      0.7523                 1.2573                 0.7758
 IR Inten    --     18.8684                15.1521                 3.2326

                     16                     17                     18
                      A                      A                      A
 Frequencies --    471.2740               515.9012               534.5069
 Red. masses --      3.9404                 4.7155                 5.8119
 Frc consts  --      0.5156                 0.7395                 0.9783
 IR Inten    --      0.3478                 4.0458                22.0963

                     19                     20                     21
                      A                      A                      A
 Frequencies --    579.5852               603.1882               622.6681
 Red. masses --      3.0408                 5.1349                 2.8520
 Frc consts  --      0.6018                 1.1008                 0.6515
 IR Inten    --     20.3243                10.9251                 0.8676

                     22                     23                     24
                      A                      A                      A
 Frequencies --    626.1843               673.8040               724.3306
 Red. masses --      3.5458                 5.9193                 3.6813
 Frc consts  --      0.8192                 1.5834                 1.1380
 IR Inten    --      1.4756                11.8189                34.4618

                     25                     26                     27
                      A                      A                      A
 Frequencies --    762.6033               779.6468               784.4819
 Red. masses --      6.7070                 2.8617                 3.9771
 Frc consts  --      2.2981                 1.0249                 1.4421
 IR Inten    --      3.0901                16.1070                23.4148

                     28                     29                     30
                      A                      A                      A
 Frequencies --    822.4865               871.1665               882.6940
 Red. masses --      2.7267                 2.0747                 4.2546
 Frc consts  --      1.0868                 0.9277                 1.9531
 IR Inten    --     19.5001                52.1215                64.0797

                     31                     32                     33
                      A                      A                      A
 Frequencies --    947.0988               962.3238              1015.2443
 Red. masses --      2.8244                 2.0861                 1.3362
 Frc consts  --      1.4927                 1.1382                 0.8115
 IR Inten    --     34.3778                39.7481                 1.3197

                     34                     35                     36
                      A                      A                      A
 Frequencies --   1017.2832              1018.2570              1055.8838
 Red. masses --      2.0674                 1.2718                 3.3724
 Frc consts  --      1.2605                 0.7769                 2.2153
 IR Inten    --    173.8041                 2.8532                54.1643

                     37                     38                     39
                      A                      A                      A
 Frequencies --   1058.8793              1103.5090              1116.2055
 Red. masses --      1.9021                 1.6592                 2.5131
 Frc consts  --      1.2565                 1.1904                 1.8448
 IR Inten    --      2.7732                23.6557               167.8210

                     40                     41                     42
                      A                      A                      A
 Frequencies --   1176.1624              1185.7024              1195.7053
 Red. masses --      1.4628                 2.1424                 1.7139
 Frc consts  --      1.1922                 1.7746                 1.4437
 IR Inten    --    139.2024               636.8046               147.0770

                     43                     44                     45
                      A                      A                      A
 Frequencies --   1254.6922              1282.2290              1304.3639
 Red. masses --      2.9250                 3.1757                 3.0551
 Frc consts  --      2.7130                 3.0762                 3.0625
 IR Inten    --      9.9968               101.1678               316.5840

                     46                     47                     48
                      A                      A                      A
 Frequencies --   1353.9847              1391.3217              1394.0693
 Red. masses --      7.9725                 1.3147                 1.7597
 Frc consts  --      8.6113                 1.4995                 2.0149
 IR Inten    --     87.7113                62.1821                20.7719

                     49                     50                     51
                      A                      A                      A
 Frequencies --   1458.2020              1463.1896              1464.3196
 Red. masses --      1.0507                 1.1436                 2.9477
 Frc consts  --      1.3163                 1.4425                 3.7240
 IR Inten    --     27.9008                 4.2185                53.6165

                     52                     53                     54
                      A                      A                      A
 Frequencies --   1486.8223              1602.2059              1620.4929
 Red. masses --      2.5746                 6.6267                 6.4060
 Frc consts  --      3.3533                10.0227                 9.9113
 IR Inten    --      5.3411                22.9667               271.9581

                     55                     56                     57
                      A                      A                      A
 Frequencies --   1664.7890              1697.8205              1706.2519
 Red. masses --      9.2325                11.2009                 9.3166
 Frc consts  --     15.0760                19.0234                15.9807
 IR Inten    --     86.2688               945.2021                57.9435

                     58                     59                     60
                      A                      A                      A
 Frequencies --   1786.6354              3054.7809              3118.8299
 Red. masses --     11.5691                 1.0367                 1.0994
 Frc consts  --     21.7581                 5.6998                 6.3009
 IR Inten    --    460.0657                 0.3733                 3.2514

                     61                     62                     63
                      A                      A                      A
 Frequencies --   3160.2239              3181.6269              3189.9984
 Red. masses --      1.1040                 1.0876                 1.0884
 Frc consts  --      6.4960                 6.4865                 6.5255
 IR Inten    --      9.3809                 2.8049                 4.0547

                     64                     65                     66
                      A                      A                      A
 Frequencies --   3197.6465              3202.6650              3210.9567
 Red. masses --      1.0992                 1.0931                 1.0955
 Frc consts  --      6.6221                 6.6057                 6.6547
 IR Inten    --      5.3503                 1.6028                 6.0916

 - Thermochemistry -
 -------------------
 Temperature   298.150 Kelvin.  Pressure   1.00000 Atm.
 Atom     1 has atomic number  6 and mass  12.00000

 Molecular mass:   216.04226 amu.
 Principal axes and moments of inertia in atomic units:
                           1         2         3
     Eigenvalues --  1870.014784095.569875557.62786
           X            0.98367   0.17676  -0.03391
           Y           -0.17538   0.98369   0.03998
           Z            0.04043  -0.03338   0.99862
 This molecule is an asymmetric top.
 Rotational symmetry number  1.
 Warning -- assumption of classical behavior for rotation
           may cause significant error
 Rotational temperatures (Kelvin)      0.04632     0.02115     0.01558
 Rotational constants (GHZ):           0.96509     0.44066     0.32473
 Zero-point vibrational energy     453192.6 (Joules/Mol)
                                  108.31563 (Kcal/Mol)
 Warning -- explicit consideration of  20 degrees of freedom as
           vibrations may cause significant error
 Vibrational temperatures:     57.11    81.37    87.63   105.08   134.87
          (Kelvin)            178.59   257.58   361.81   378.17   393.35
                              437.73   529.90   593.11   644.31   669.91
                              678.06   742.27   769.04   833.89   867.85
                              895.88   900.94   969.45  1042.15  1097.22
                             1121.74  1128.69  1183.37  1253.41  1270.00
                             1362.66  1384.57  1460.71  1463.64  1465.04
                             1519.18  1523.49  1587.70  1605.97  1692.24
                             1705.96  1720.35  1805.22  1844.84  1876.69
                             1948.08  2001.80  2005.75  2098.03  2105.20
                             2106.83  2139.21  2305.22  2331.53  2395.26
                             2442.78  2454.92  2570.57  4395.15  4487.30
                             4546.86  4577.65  4589.70  4600.70  4607.92
                             4619.85

 Zero-point correction=                           0.172612 (Hartree/Particle)
 Thermal correction to Energy=                    0.186136
 Thermal correction to Enthalpy=                  0.187081
 Thermal correction to Gibbs Free Energy=         0.131051
 Sum of electronic and zero-point Energies=           -763.038136
 Sum of electronic and thermal Energies=              -763.024611
 Sum of electronic and thermal Enthalpies=            -763.023667
 Sum of electronic and thermal Free Energies=         -763.079697

                     E (Thermal)             CV                S
                      KCal/Mol        Cal/Mol-Kelvin    Cal/Mol-Kelvin
 Total                  116.802             50.505            117.924
 Electronic               0.000              0.000              0.000
 Translational            0.889              2.981             42.014
 Rotational               0.889              2.981             32.121
 Vibrational            115.025             44.544             43.789
 Vibration     1          0.594              1.981              5.274
 Vibration     2          0.596              1.975              4.574
 Vibration     3          0.597              1.973              4.428
 Vibration     4          0.599              1.967              4.070
 Vibration     5          0.603              1.954              3.580
 Vibration     6          0.610              1.929              3.035
 Vibration     7          0.629              1.868              2.339
 Vibration     8          0.663              1.760              1.720
 Vibration     9          0.670              1.741              1.643
 Vibration    10          0.676              1.722              1.575
 Vibration    11          0.695              1.666              1.393
 Vibration    12          0.741              1.537              1.087
 Vibration    13          0.776              1.444              0.919
 Vibration    14          0.807              1.366              0.802
 Vibration    15          0.823              1.326              0.750
 Vibration    16          0.828              1.314              0.734
 Vibration    17          0.871              1.215              0.620
 Vibration    18          0.889              1.174              0.577
 Vibration    19          0.936              1.075              0.486
 Vibration    20          0.962              1.025              0.444

 Optimization completed.
    -- Stationary point found.
 Normal termination of Gaussian 16 at Sun Feb 11 01:56:30 2024.
