 Q-Chem 5.4, Q-Chem, Inc., Pleasanton, CA (2021)
 Q-Chem 5.4.0 for Intel X86 EM64T Linux

User input:
--------------------------------------------------------------
$molecule
-2 1
C                 -2.4145290000      0.3889170000      1.2821780000
C                 -3.5885840000      1.1340540000      1.3829990000
C                 -3.7031970000      2.3259190000      2.3068810000
C                 -4.7807890000      0.7936640000      0.6338040000
O                 -5.8827360000      1.4433510000      0.7417600000
C                 -4.6577250000     -0.3485230000     -0.2439430000
C                 -3.4823730000     -1.0756130000     -0.3602400000
O                 -3.4361320000     -2.1106200000     -1.2872400000
C                 -3.1858690000     -3.3918560000     -0.7285270000
C                 -2.2946570000     -0.7465390000      0.3940830000
O                 -1.2049930000     -1.4136920000      0.2733150000
O                 -5.7737690000     -0.7843650000     -0.9499200000
C                 -6.2655990000      0.1449080000     -1.9041660000
H                 -4.6571550000      2.8213210000      2.1154740000
H                 -2.8895020000      3.0477280000      2.1634490000
H                 -3.6852060000      2.0343680000      3.3679740000
H                 -4.0147870000     -3.6975930000     -0.0717130000
H                 -3.1249460000     -4.0922350000     -1.5685370000
H                 -2.2448970000     -3.3913590000     -0.1714330000
H                 -6.5144870000      1.0947590000     -1.4226420000
H                 -7.1657830000     -0.3018540000     -2.3402970000
H                 -5.5274560000      0.3073880000     -2.7043400000
C                 -1.1759750000      0.7277940000      2.0823880000
C                 -0.1543180000      1.5971000000      1.3208670000
C                  1.1101810000      1.8987200000      2.1357110000
C                  2.1390020000      2.7721700000      1.4057660000
C                  3.3948050000      3.0771750000      2.2336210000
C                  4.4249460000      3.9588440000      1.5159300000
C                  5.6716670000      4.2659390000      2.3564690000
C                  6.7022270000      5.1523180000      1.6458020000
C                  7.9437900000      5.4595880000      2.4938150000
C                  8.9719500000      6.3462840000      1.7852330000
H                 -0.6773040000     -0.2126670000      2.3434590000
H                 -1.4467350000      1.2346040000      3.0167090000
H                 -0.6293860000      2.5406250000      1.0216490000
H                  0.1144280000      1.0694720000      0.4000460000
H                  1.5833990000      0.9498150000      2.4224200000
H                  0.8265290000      2.3925800000      3.0766130000
H                  1.6645960000      3.7178840000      1.1102930000
H                  2.4326740000      2.2765960000      0.4711540000
H                  3.8715790000      2.1315650000      2.5249700000
H                  3.0966770000      3.5654270000      3.1715500000
H                  3.9485430000      4.9031110000      1.2200630000
H                  4.7308030000      3.4700880000      0.5813830000
H                  6.1497450000      3.3217970000      2.6500680000
H                  5.3638510000      4.7516400000      3.2922510000
H                  6.2268670000      6.0969100000      1.3504330000
H                  7.0160680000      4.6679790000      0.7118340000
H                  8.4204820000      4.5160900000      2.7893940000
H                  7.6307760000      5.9429240000      3.4282990000
H                  9.3410480000      5.8769930000      0.8659850000
H                  9.8426640000      6.5445230000      2.4194120000
H                  8.5434430000      7.3173770000      1.5115890000
$end

$rem
BASIS  =  6-311++G(d,p)
GUI  =  2
JOB_TYPE  =  SP
METHOD  =  B3LYP
SCF_CONVERGENCE  = 8
SOLVENT_METHOD = sm12
$end

$smx
solvent dimethylformamide
charges CM5
$end

--------------------------------------------------------------

             Standard Nuclear Orientation (Angstroms)
    I     Atom           X                Y                Z
 ----------------------------------------------------------------
    1      C      -2.4145290000     0.3889170000     1.2821780000
    2      C      -3.5885840000     1.1340540000     1.3829990000
    3      C      -3.7031970000     2.3259190000     2.3068810000
    4      C      -4.7807890000     0.7936640000     0.6338040000
    5      O      -5.8827360000     1.4433510000     0.7417600000
    6      C      -4.6577250000    -0.3485230000    -0.2439430000
    7      C      -3.4823730000    -1.0756130000    -0.3602400000
    8      O      -3.4361320000    -2.1106200000    -1.2872400000
    9      C      -3.1858690000    -3.3918560000    -0.7285270000
   10      C      -2.2946570000    -0.7465390000     0.3940830000
   11      O      -1.2049930000    -1.4136920000     0.2733150000
   12      O      -5.7737690000    -0.7843650000    -0.9499200000
   13      C      -6.2655990000     0.1449080000    -1.9041660000
   14      H      -4.6571550000     2.8213210000     2.1154740000
   15      H      -2.8895020000     3.0477280000     2.1634490000
   16      H      -3.6852060000     2.0343680000     3.3679740000
   17      H      -4.0147870000    -3.6975930000    -0.0717130000
   18      H      -3.1249460000    -4.0922350000    -1.5685370000
   19      H      -2.2448970000    -3.3913590000    -0.1714330000
   20      H      -6.5144870000     1.0947590000    -1.4226420000
   21      H      -7.1657830000    -0.3018540000    -2.3402970000
   22      H      -5.5274560000     0.3073880000    -2.7043400000
   23      C      -1.1759750000     0.7277940000     2.0823880000
   24      C      -0.1543180000     1.5971000000     1.3208670000
   25      C       1.1101810000     1.8987200000     2.1357110000
   26      C       2.1390020000     2.7721700000     1.4057660000
   27      C       3.3948050000     3.0771750000     2.2336210000
   28      C       4.4249460000     3.9588440000     1.5159300000
   29      C       5.6716670000     4.2659390000     2.3564690000
   30      C       6.7022270000     5.1523180000     1.6458020000
   31      C       7.9437900000     5.4595880000     2.4938150000
   32      C       8.9719500000     6.3462840000     1.7852330000
   33      H      -0.6773040000    -0.2126670000     2.3434590000
   34      H      -1.4467350000     1.2346040000     3.0167090000
   35      H      -0.6293860000     2.5406250000     1.0216490000
   36      H       0.1144280000     1.0694720000     0.4000460000
   37      H       1.5833990000     0.9498150000     2.4224200000
   38      H       0.8265290000     2.3925800000     3.0766130000
   39      H       1.6645960000     3.7178840000     1.1102930000
   40      H       2.4326740000     2.2765960000     0.4711540000
   41      H       3.8715790000     2.1315650000     2.5249700000
   42      H       3.0966770000     3.5654270000     3.1715500000
   43      H       3.9485430000     4.9031110000     1.2200630000
   44      H       4.7308030000     3.4700880000     0.5813830000
   45      H       6.1497450000     3.3217970000     2.6500680000
   46      H       5.3638510000     4.7516400000     3.2922510000
   47      H       6.2268670000     6.0969100000     1.3504330000
   48      H       7.0160680000     4.6679790000     0.7118340000
   49      H       8.4204820000     4.5160900000     2.7893940000
   50      H       7.6307760000     5.9429240000     3.4282990000
   51      H       9.3410480000     5.8769930000     0.8659850000
   52      H       9.8426640000     6.5445230000     2.4194120000
   53      H       8.5434430000     7.3173770000     1.5115890000
 ----------------------------------------------------------------

   19   -1043.2059396573      9.83e-09  Convergence criterion met
 Total energy in the final basis set =    -1043.4845468029

                    Orbital Energies (a.u.)
 --------------------------------------------------------------

 Alpha MOs
 -- Occupied --
-19.1121 -19.1120 -19.0057 -19.0040 -10.2010 -10.2004 -10.1686 -10.1681
-10.1647 -10.1637 -10.1634 -10.1631 -10.1627 -10.1627 -10.1625 -10.1624
-10.1608 -10.1584 -10.1575 -10.1554 -10.1530 -10.1257 -10.1213  -1.0314
 -1.0142  -0.9246  -0.9220  -0.8152  -0.8012  -0.7866  -0.7678  -0.7446
 -0.7306  -0.7011  -0.6867  -0.6806  -0.6564  -0.6246  -0.6120  -0.5973
 -0.5801  -0.5759  -0.5737  -0.5353  -0.5259  -0.4898  -0.4838  -0.4734
 -0.4641  -0.4611  -0.4463  -0.4443  -0.4342  -0.4309  -0.4272  -0.4221
 -0.4200  -0.4154  -0.4079  -0.4057  -0.3927  -0.3865  -0.3851  -0.3719
 -0.3652  -0.3604  -0.3568  -0.3506  -0.3455  -0.3404  -0.3392  -0.3324
 -0.3308  -0.3285  -0.3246  -0.3241  -0.3228  -0.3220  -0.3159  -0.3113
 -0.2997  -0.2983  -0.2583  -0.2571  -0.2104  -0.1900  -0.1850  -0.1806
 -0.1031

          Ground-State Mulliken Net Atomic Charges

     Atom                 Charge (a.u.)
  ----------------------------------------
      1 C                    -0.408563
      2 C                    -1.520179
      3 C                     0.550909
      4 C                    -2.248210
      5 O                    -0.388370
      6 C                    -0.716624
      7 C                     0.011454
      8 O                    -0.023525
      9 C                     0.236193
     10 C                    -1.503939
     11 O                    -0.308980
     12 O                    -0.020886
     13 C                     0.229754
     14 H                     0.150765
     15 H                     0.154337
     16 H                     0.138728
     17 H                     0.041410
     18 H                     0.257764
     19 H                     0.104173
     20 H                     0.117840
     21 H                     0.258034
     22 H                     0.045626
     23 C                    -1.864253
     24 C                    -4.576884
     25 C                    -2.124771
     26 C                     0.020978
     27 C                     2.206708
     28 C                     2.368864
     29 C                     2.304978
     30 C                     1.462153
     31 C                     0.509357
     32 C                    -0.110772
     33 H                     0.012779
     34 H                     0.078494
     35 H                    -0.047852
     36 H                     0.096636
     37 H                     0.250232
     38 H                     0.286533
     39 H                     0.201282
     40 H                     0.126776
     41 H                     0.104290
     42 H                     0.086213
     43 H                     0.104520
     44 H                     0.113238
     45 H                     0.129602
     46 H                     0.138287
     47 H                     0.107524
     48 H                     0.107815
     49 H                     0.118473
     50 H                     0.119649
     51 H                     0.139316
     52 H                     0.232509
     53 H                     0.139615
  ----------------------------------------
  Sum of atomic charges =    -2.000000

                    Cartesian Multipole Moments
 -----------------------------------------------------------------
    Charge (ESU x 10^10)
                -9.6064
    Dipole Moment (Debye)
         X      34.1968      Y      -0.1502      Z      -4.5361
       Tot      34.4967
    Quadrupole Moments (Debye-Ang)
        XX    -330.0505     XY      12.7585     YY    -180.3999
        XZ      14.1509     YZ     -12.4227     ZZ    -171.3408

 Total job time:  3151.78s(wall), 23295.16s(cpu)
        *  Thank you very much for using Q-Chem.  Have a nice day.  *
