 Gaussian 16, Revision A.03,
 Gaussian 16:  ES64L-G16RevA.03 25-Dec-2016

 --------------------------------------
 #P UB3LYP/6-311++G(d,p) nosym opt freq
 --------------------------------------

 -------
 Reduced
 -------
 Symbolic Z-matrix:
 Charge = -2 Multiplicity = 1

 SCF Done:  E(UB3LYP) =  -839.389779595     A.U. after  103 cycles
 SCF Done:  E(UB3LYP) =  -839.409191539     A.U. after   33 cycles
 SCF Done:  E(UB3LYP) =  -839.415305233     A.U. after   35 cycles
 SCF Done:  E(UB3LYP) =  -839.415708108     A.U. after   20 cycles
 SCF Done:  E(UB3LYP) =  -839.416164467     A.U. after   21 cycles
 SCF Done:  E(UB3LYP) =  -839.416158595     A.U. after   21 cycles
 SCF Done:  E(UB3LYP) =  -839.416191301     A.U. after   19 cycles
 SCF Done:  E(UB3LYP) =  -839.416200609     A.U. after   19 cycles
 SCF Done:  E(UB3LYP) =  -839.416202587     A.U. after   18 cycles
 SCF Done:  E(UB3LYP) =  -839.416204047     A.U. after   17 cycles
 SCF Done:  E(UB3LYP) =  -839.416204231     A.U. after   17 cycles
 Optimization completed.
    -- Stationary point found.
 Normal termination of Gaussian 16 at Sat Jan  6 03:32:06 2024.

 ----------------------------------------------------------------------
 #P Geom=AllCheck Guess=TCheck SCRF=Check GenChk UB3LYP/6-311++G(d,p) F
 req
 ----------------------------------------------------------------------

 Structure from the checkpoint file:  "331-an.chk"
 -------
 Reduced
 -------
 Charge = -2 Multiplicity = 1

                          Input orientation:
 ---------------------------------------------------------------------
 Center     Atomic      Atomic             Coordinates (Angstroms)
 Number     Number       Type             X           Y           Z
 ---------------------------------------------------------------------
      1          6           0       -1.853047    3.477531   -0.947823
      2          6           0       -2.956810    2.904778   -0.370695
      3          6           0       -0.599739    2.793480   -1.026419
      4          6           0       -0.531678    1.464862   -0.472498
      5          6           0       -2.903241    1.605696    0.174817
      6          6           0       -1.690693    0.921273    0.108702
      7          6           0        0.509047    3.494212   -1.660208
      8          6           0        1.789562    2.786971   -1.736232
      9          6           0        1.841228    1.444965   -1.171949
     10          6           0        0.733977    0.765542   -0.548128
     11          6           0        3.087736    0.747763   -1.242722
     12          6           0        3.239525   -0.519049   -0.741187
     13          6           0        2.164089   -1.194557   -0.128649
     14          6           0        0.939962   -0.532552   -0.049044
     15          8           0        0.340571    4.674871   -2.120025
     16          8           0        2.833397    3.297866   -2.268367
     17          8           0        4.469928   -1.200486   -0.814207
     18          8           0       -4.188423    3.583886   -0.296353
     19          1           0       -1.874324    4.479193   -1.374214
     20          1           0       -3.784785    1.164904    0.629136
     21          1           0       -1.653236   -0.079390    0.530249
     22          1           0        3.905821    1.285853   -1.718937
     23          1           0        2.298716   -2.197160    0.264401
     24          1           0        0.113683   -1.056252    0.423641
     25          1           0        5.074679   -0.595983   -1.256472
     26          1           0       -4.037657    4.439381   -0.711259
 ---------------------------------------------------------------------

 SCF Done:  E(UB3LYP) =  -839.416204231     A.U. after    1 cycles

 Alpha  occ. eigenvalues --  -18.93077 -18.93077 -18.76233 -18.76232  -9.98606
 Alpha  occ. eigenvalues --   -9.98605  -9.93343  -9.93342  -9.92574  -9.92573
 Alpha  occ. eigenvalues --   -9.91947  -9.91914  -9.91850  -9.91813  -9.91012
 Alpha  occ. eigenvalues --   -9.91012  -9.90357  -9.90356  -0.83004  -0.83004
 Alpha  occ. eigenvalues --   -0.69234  -0.66424  -0.61075  -0.58912  -0.52652
 Alpha  occ. eigenvalues --   -0.50472  -0.49201  -0.46382  -0.41939  -0.38971
 Alpha  occ. eigenvalues --   -0.36554  -0.34142  -0.33245  -0.30138  -0.29780
 Alpha  occ. eigenvalues --   -0.26768  -0.22536  -0.22435  -0.21300  -0.19291
 Alpha  occ. eigenvalues --   -0.18538  -0.17909  -0.17603  -0.17336  -0.16876
 Alpha  occ. eigenvalues --   -0.16605  -0.13685  -0.12944  -0.11792  -0.11237
 Alpha  occ. eigenvalues --   -0.11139  -0.08548  -0.08147  -0.07821  -0.06724
 Alpha  occ. eigenvalues --   -0.03168  -0.01693   0.00528   0.01459   0.05054
 Alpha  occ. eigenvalues --    0.05141   0.07461   0.13834
 Alpha virt. eigenvalues --    0.16145   0.16352   0.16997   0.17659   0.19964
 Alpha virt. eigenvalues --    0.21375   0.21935   0.21938   0.22087   0.23985
 Alpha virt. eigenvalues --    0.24985   0.25585   0.25604   0.26103   0.26552

  Beta  occ. eigenvalues --  -18.93077 -18.93077 -18.76233 -18.76232  -9.98606
  Beta  occ. eigenvalues --   -9.98605  -9.93343  -9.93342  -9.92574  -9.92573
  Beta  occ. eigenvalues --   -9.91947  -9.91914  -9.91850  -9.91813  -9.91012
  Beta  occ. eigenvalues --   -9.91012  -9.90357  -9.90356  -0.83004  -0.83004
  Beta  occ. eigenvalues --   -0.69234  -0.66424  -0.61075  -0.58912  -0.52652
  Beta  occ. eigenvalues --   -0.50472  -0.49201  -0.46382  -0.41939  -0.38971
  Beta  occ. eigenvalues --   -0.36554  -0.34142  -0.33245  -0.30138  -0.29780
  Beta  occ. eigenvalues --   -0.26768  -0.22536  -0.22435  -0.21300  -0.19291
  Beta  occ. eigenvalues --   -0.18538  -0.17909  -0.17603  -0.17336  -0.16876
  Beta  occ. eigenvalues --   -0.16605  -0.13685  -0.12944  -0.11792  -0.11237
  Beta  occ. eigenvalues --   -0.11139  -0.08548  -0.08147  -0.07821  -0.06724
  Beta  occ. eigenvalues --   -0.03168  -0.01693   0.00528   0.01459   0.05054
  Beta  occ. eigenvalues --    0.05141   0.07461   0.13834
  Beta virt. eigenvalues --    0.16145   0.16352   0.16997   0.17659   0.19964
  Beta virt. eigenvalues --    0.21375   0.21935   0.21938   0.22087   0.23985
  Beta virt. eigenvalues --    0.24985   0.25585   0.25604   0.26103   0.26552

 Mulliken charges and spin densities:
               1          2
     1  C   -0.021290  -0.000000
     2  C   -0.460480   0.000000
     3  C    0.789545   0.000000
     4  C    0.570250   0.000000
     5  C   -0.473136  -0.000000
     6  C   -0.304157   0.000000
     7  C   -0.741377  -0.000000
     8  C   -0.741573  -0.000000
     9  C    0.789927  -0.000000
    10  C    0.569730   0.000000
    11  C   -0.020850   0.000000
    12  C   -0.460645   0.000000
    13  C   -0.473000  -0.000000
    14  C   -0.303685  -0.000000
    15  O   -0.502303   0.000000
    16  O   -0.502286  -0.000000
    17  O   -0.313807  -0.000000
    18  O   -0.313811   0.000000
    19  H    0.095209  -0.000000
    20  H    0.108532  -0.000000
    21  H    0.013882   0.000000
    22  H    0.095219  -0.000000
    23  H    0.108530  -0.000000
    24  H    0.013883  -0.000000
    25  H    0.238847   0.000000
    26  H    0.238847   0.000000
 Sum of Mulliken charges =  -2.00000  -0.00000

 Dipole moment (field-independent basis, Debye):
    X=             -7.2853    Y=            -22.9126    Z=             12.0570  Tot=             26.8967
 Quadrupole moment (field-independent basis, Debye-Ang):
   XX=           -174.4350   YY=           -213.0892   ZZ=           -141.9787
   XY=             -7.2507   XZ=             20.2160   YZ=             43.5776

  Exact polarizability: 373.868 -75.634 285.952 -39.844 -44.454 162.126
 Approx polarizability: 713.677-149.266 543.533 -93.436-110.567 260.263

                      1                      2                      3
                      A                      A                      A
 Frequencies --     56.0197                62.1126               107.5504
 Red. masses --      6.1220                 7.6750                 4.6898
 Frc consts  --      0.0113                 0.0174                 0.0320
 IR Inten    --      2.3369                 0.0000                 0.0000

                      4                      5                      6
                      A                      A                      A
 Frequencies --    144.4593               173.5647               181.1256
 Red. masses --      6.0267                 6.7638                 5.0473
 Frc consts  --      0.0741                 0.1201                 0.0976
 IR Inten    --      1.9695                 2.8061                 0.0008

                      7                      8                      9
                      A                      A                      A
 Frequencies --    243.7532               255.5605               266.6530
 Red. masses --      1.6054                 8.5957                 1.1945
 Frc consts  --      0.0562                 0.3308                 0.0500
 IR Inten    --     98.8097                 5.2135                 0.0009

                     10                     11                     12
                      A                      A                      A
 Frequencies --    283.4108               301.9278               362.5478
 Red. masses --      2.5054                 7.4006                 5.1359
 Frc consts  --      0.1186                 0.3975                 0.3977
 IR Inten    --     61.5397                 3.2089                 6.3089

                     13                     14                     15
                      A                      A                      A
 Frequencies --    371.2216               379.1127               383.4447
 Red. masses --      4.3917                13.2665                 6.8237
 Frc consts  --      0.3566                 1.1234                 0.5911
 IR Inten    --      0.0004                 0.1622                 1.3963

                     16                     17                     18
                      A                      A                      A
 Frequencies --    416.0853               423.8481               431.0473
 Red. masses --      6.6884                 6.0078                 4.1829
 Frc consts  --      0.6822                 0.6359                 0.4579
 IR Inten    --     84.2519                 1.8168                 0.0001

                     19                     20                     21
                      A                      A                      A
 Frequencies --    469.0953               485.5666               523.6162
 Red. masses --      3.5826                 6.2488                 8.0561
 Frc consts  --      0.4645                 0.8680                 1.3014
 IR Inten    --     20.0185                 2.4876                33.9808

                     22                     23                     24
                      A                      A                      A
 Frequencies --    555.8032               610.9722               639.3364
 Red. masses --      3.8796                 4.9167                 4.5720
 Frc consts  --      0.7061                 1.0814                 1.1011
 IR Inten    --      0.0001                 0.2800                 0.0000

                     25                     26                     27
                      A                      A                      A
 Frequencies --    646.0573               659.5570               667.2488
 Red. masses --      5.8363                 1.8069                 7.0029
 Frc consts  --      1.4353                 0.4631                 1.8370
 IR Inten    --      2.2643                11.8233                 1.7126

                     28                     29                     30
                      A                      A                      A
 Frequencies --    674.0608               682.6377               683.3875
 Red. masses --      1.5484                 2.7367                 5.9759
 Frc consts  --      0.4145                 0.7514                 1.6443
 IR Inten    --      0.0012                38.1096                 0.7450

                     31                     32                     33
                      A                      A                      A
 Frequencies --    703.9897               732.0609               806.7799
 Red. masses --      7.1798                 8.7294                 8.6862
 Frc consts  --      2.0965                 2.7563                 3.3311
 IR Inten    --      0.1058                 0.0001               254.3485

                     34                     35                     36
                      A                      A                      A
 Frequencies --    815.6826               852.6874               853.0731
 Red. masses --      1.2913                 1.4033                 1.4409
 Frc consts  --      0.5062                 0.6012                 0.6178
 IR Inten    --      0.0013                59.0968                 0.1348

                     37                     38                     39
                      A                      A                      A
 Frequencies --    875.2552               898.4949               979.6324
 Red. masses --      1.2841                 6.8761                 2.7135
 Frc consts  --      0.5796                 3.2706                 1.5343
 IR Inten    --      9.6110                29.4386                38.5365

                     40                     41                     42
                      A                      A                      A
 Frequencies --    993.0307              1047.8953              1104.3236
 Red. masses --      7.2865                 2.1868                 1.7446
 Frc consts  --      4.2334                 1.4148                 1.2535
 IR Inten    --    149.3436                 0.4085                 1.0404

                     43                     44                     45
                      A                      A                      A
 Frequencies --   1111.7303              1150.7644              1162.8423
 Red. masses --      1.3932                 2.3067                 1.5736
 Frc consts  --      1.0145                 1.7997                 1.2537
 IR Inten    --    102.4900               364.7099                24.6336

                     46                     47                     48
                      A                      A                      A
 Frequencies --   1167.5136              1173.2937              1204.2050
 Red. masses --      1.3288                 4.4200                 1.7468
 Frc consts  --      1.0672                 3.5849                 1.4924
 IR Inten    --    180.4391                 1.8204                18.8982

                     49                     50                     51
                      A                      A                      A
 Frequencies --   1249.1976              1267.5063              1283.1066
 Red. masses --      2.2058                 3.6941                 4.0018
 Frc consts  --      2.0280                 3.4967                 3.8818
 IR Inten    --    111.4387               225.9762                24.4937

                     52                     53                     54
                      A                      A                      A
 Frequencies --   1332.4078              1341.3347              1367.1070
 Red. masses --      2.2461                 3.1896                 5.4088
 Frc consts  --      2.3494                 3.3811                 5.9560
 IR Inten    --     29.3560                 1.4170               167.1500

                     55                     56                     57
                      A                      A                      A
 Frequencies --   1410.2726              1435.0449              1461.4753
 Red. masses --      3.1387                 6.6961                 4.0257
 Frc consts  --      3.6780                 8.1246                 5.0661
 IR Inten    --     45.7428               910.4509                32.8616

                     58                     59                     60
                      A                      A                      A
 Frequencies --   1466.1053              1489.3520              1518.3605
 Red. masses --      5.8803                 3.3397                 5.8824
 Frc consts  --      7.4469                 4.3647                 7.9902
 IR Inten    --    598.8826               211.8306               716.4331

                     61                     62                     63
                      A                      A                      A
 Frequencies --   1536.7583              1562.2761              1599.2339
 Red. masses --      4.0158                 6.1927                 6.5524
 Frc consts  --      5.5877                 8.9053                 9.8736
 IR Inten    --     17.0922                 1.1604               942.7201

                     64                     65                     66
                      A                      A                      A
 Frequencies --   1635.9101              3119.2164              3119.5140
 Red. masses --      6.2407                 1.0878                 1.0878
 Frc consts  --      9.8402                 6.2357                 6.2372
 IR Inten    --     29.3829                82.7149                 3.4630

                     67                     68                     69
                      A                      A                      A
 Frequencies --   3120.6963              3136.5052              3155.4647
 Red. masses --      1.0855                 1.0833                 1.0922
 Frc consts  --      6.2287                 6.2789                 6.4076
 IR Inten    --      0.4968                 7.2928                21.0652

                     70                     71                     72
                      A                      A                      A
 Frequencies --   3159.0913              3825.6498              3825.8546
 Red. masses --      1.0918                 1.0653                 1.0653
 Frc consts  --      6.4200                 9.1865                 9.1875
 IR Inten    --    104.7350                15.8457                15.9065

 - Thermochemistry -
 -------------------
 Temperature   298.150 Kelvin.  Pressure   1.00000 Atm.
 Atom     1 has atomic number  6 and mass  12.00000

 Molecular mass:   240.04226 amu.
 Principal axes and moments of inertia in atomic units:
                           1         2         3
     Eigenvalues --  2181.244216337.054128518.29820
           X            0.87407   0.40762   0.26428
           Y           -0.48297   0.78768   0.38249
           Z           -0.05226  -0.46196   0.88536
 This molecule is an asymmetric top.
 Rotational symmetry number  1.
 Warning -- assumption of classical behavior for rotation
           may cause significant error
 Rotational temperatures (Kelvin)      0.03971     0.01367     0.01017
 Rotational constants (GHZ):           0.82739     0.28479     0.21187
 Zero-point vibrational energy     473670.2 (Joules/Mol)
                                  113.20991 (Kcal/Mol)
 Warning -- explicit consideration of  23 degrees of freedom as
           vibrations may cause significant error
 Vibrational temperatures:     80.60    89.37   154.74   207.84   249.72
          (Kelvin)            260.60   350.71   367.69   383.65   407.76
                              434.41   521.63   534.11   545.46   551.69
                              598.65   609.82   620.18   674.92   698.62
                              753.37   799.68   879.05   919.86   929.53
                              948.96   960.02   969.82   982.16   983.24
                             1012.88  1053.27  1160.78  1173.59  1226.83
                             1227.38  1259.30  1292.73  1409.47  1428.75
                             1507.69  1588.88  1599.53  1655.69  1673.07
                             1679.79  1688.11  1732.58  1797.32  1823.66
                             1846.10  1917.04  1929.88  1966.96  2029.07
                             2064.71  2102.74  2109.40  2142.85  2184.58
                             2211.05  2247.77  2300.94  2353.71  4487.86
                             4488.28  4489.99  4512.73  4540.01  4545.23
                             5504.26  5504.55

 Zero-point correction=                           0.180411 (Hartree/Particle)
 Thermal correction to Energy=                    0.194839
 Thermal correction to Enthalpy=                  0.195783
 Thermal correction to Gibbs Free Energy=         0.139681
 Sum of electronic and zero-point Energies=           -839.235793
 Sum of electronic and thermal Energies=              -839.221365
 Sum of electronic and thermal Enthalpies=            -839.220421
 Sum of electronic and thermal Free Energies=         -839.276523

                     E (Thermal)             CV                S
                      KCal/Mol        Cal/Mol-Kelvin    Cal/Mol-Kelvin
 Total                  122.263             58.143            118.077
 Electronic               0.000              0.000              0.000
 Translational            0.889              2.981             42.328
 Rotational               0.889              2.981             33.132
 Vibrational            120.486             52.182             42.617
 Vibration     1          0.596              1.975              4.593
 Vibration     2          0.597              1.972              4.389
 Vibration     3          0.606              1.943              3.313
 Vibration     4          0.616              1.909              2.744
 Vibration     5          0.627              1.875              2.397
 Vibration     6          0.630              1.865              2.317
 Vibration     7          0.659              1.773              1.775
 Vibration     8          0.666              1.753              1.692
 Vibration     9          0.672              1.734              1.618
 Vibration    10          0.682              1.704              1.513
 Vibration    11          0.694              1.670              1.406
 Vibration    12          0.736              1.549              1.111
 Vibration    13          0.743              1.531              1.075
 Vibration    14          0.749              1.515              1.043
 Vibration    15          0.753              1.506              1.026
 Vibration    16          0.779              1.435              0.905
 Vibration    17          0.786              1.418              0.879
 Vibration    18          0.792              1.403              0.855
 Vibration    19          0.826              1.319              0.740
 Vibration    20          0.842              1.282              0.695
 Vibration    21          0.879              1.198              0.602
 Vibration    22          0.911              1.127              0.532
 Vibration    23          0.970              1.009              0.431

 Optimization completed.
    -- Stationary point found.
 Normal termination of Gaussian 16 at Sat Jan  6 04:47:44 2024.
