 Q-Chem 5.4, Q-Chem, Inc., Pleasanton, CA (2021)
 Q-Chem 5.4.0 for Intel X86 EM64T Linux

User input:
--------------------------------------------------------------
$molecule
-1 2
C                 -0.3225490000      3.7978000000     -0.1835920000
C                 -1.5265490000      3.2080280000     -0.5210210000
C                 -1.5567810000      1.8715090000     -0.9682200000
C                  0.8879710000      3.0776750000     -0.2800400000
C                  0.8595280000      1.7270270000     -0.7321680000
C                 -0.3777430000      1.1508550000     -1.0690650000
C                  2.1481370000      3.6959520000      0.0734830000
C                  3.3324460000      2.8790640000     -0.0588730000
C                  3.3400660000      1.5678950000     -0.4857540000
C                  2.0963630000      0.9261410000     -0.8539860000
O                  2.2879590000      4.8935630000      0.4880940000
O                  2.0585020000     -0.2650070000     -1.2597010000
H                 -0.2736540000      4.8239880000      0.1629470000
H                 -2.4502780000      3.7741040000     -0.4419770000
H                 -2.5029640000      1.4089600000     -1.2330530000
H                 -0.3711800000      0.1219310000     -1.4107340000
O                  4.4816460000      3.5285480000      0.2886140000
C                  4.6207190000      0.7818840000     -0.5986800000
C                  5.2339710000      0.8185090000     -2.0119150000
C                  6.5163480000     -0.0118430000     -2.1331680000
C                  7.1373490000      0.0142990000     -3.5346230000
C                  8.4192470000     -0.8173580000     -3.6603110000
H                  4.1421940000      4.4137910000      0.5482230000
H                  4.4049670000     -0.2606860000     -0.3434930000
H                  5.3520370000      1.1675220000      0.1190970000
H                  5.4447950000      1.8599070000     -2.2834400000
H                  4.4878030000      0.4475600000     -2.7226110000
H                  6.2987720000     -1.0516330000     -1.8546400000
H                  7.2548600000      0.3510520000     -1.4049560000
H                  7.3527340000      1.0540660000     -3.8144540000
H                  6.3988340000     -0.3480640000     -4.2615830000
H                  8.2037250000     -1.8569510000     -3.3799430000
H                  9.1580580000     -0.4548670000     -2.9331010000
C                  9.0382960000     -0.7919870000     -5.0626750000
H                  9.2543320000      0.2474000000     -5.3431670000
H                  8.2992910000     -1.1537520000     -5.7896440000
C                 10.3189640000     -1.6247810000     -5.1890300000
H                 10.1036240000     -2.6646780000     -4.9093420000
H                 11.0590600000     -1.2636640000     -4.4624420000
C                 10.9379350000     -1.5996570000     -6.5912940000
C                 12.2167170000     -2.4350950000     -6.7072160000
H                 11.1542480000     -0.5611840000     -6.8709880000
H                 10.1993390000     -1.9609640000     -7.3174590000
H                 12.9870840000     -2.0758390000     -6.0170030000
H                 12.6326780000     -2.3960730000     -7.7185760000
H                 12.0249390000     -3.4860380000     -6.4671600000
$end
$rem
MAX_SCF_CYCLES=200
BASIS  =  6-311++G(d,p)
GUI  =  2
JOB_TYPE  =  SP
METHOD  =  B3LYP
SCF_ALGORITHM = DIIS_GDM
THRESH = 14
SOLVENT_METHOD = PCM
$end
$pcm
theory = CPCM
$end
$solvent
dielectric 37.219
opticaldielectric 1.43
$end

--------------------------------------------------------------

             Standard Nuclear Orientation (Angstroms)
    I     Atom           X                Y                Z
 ----------------------------------------------------------------
    1      C      -0.3225490000     3.7978000000    -0.1835920000
    2      C      -1.5265490000     3.2080280000    -0.5210210000
    3      C      -1.5567810000     1.8715090000    -0.9682200000
    4      C       0.8879710000     3.0776750000    -0.2800400000
    5      C       0.8595280000     1.7270270000    -0.7321680000
    6      C      -0.3777430000     1.1508550000    -1.0690650000
    7      C       2.1481370000     3.6959520000     0.0734830000
    8      C       3.3324460000     2.8790640000    -0.0588730000
    9      C       3.3400660000     1.5678950000    -0.4857540000
   10      C       2.0963630000     0.9261410000    -0.8539860000
   11      O       2.2879590000     4.8935630000     0.4880940000
   12      O       2.0585020000    -0.2650070000    -1.2597010000
   13      H      -0.2736540000     4.8239880000     0.1629470000
   14      H      -2.4502780000     3.7741040000    -0.4419770000
   15      H      -2.5029640000     1.4089600000    -1.2330530000
   16      H      -0.3711800000     0.1219310000    -1.4107340000
   17      O       4.4816460000     3.5285480000     0.2886140000
   18      C       4.6207190000     0.7818840000    -0.5986800000
   19      C       5.2339710000     0.8185090000    -2.0119150000
   20      C       6.5163480000    -0.0118430000    -2.1331680000
   21      C       7.1373490000     0.0142990000    -3.5346230000
   22      C       8.4192470000    -0.8173580000    -3.6603110000
   23      H       4.1421940000     4.4137910000     0.5482230000
   24      H       4.4049670000    -0.2606860000    -0.3434930000
   25      H       5.3520370000     1.1675220000     0.1190970000
   26      H       5.4447950000     1.8599070000    -2.2834400000
   27      H       4.4878030000     0.4475600000    -2.7226110000
   28      H       6.2987720000    -1.0516330000    -1.8546400000
   29      H       7.2548600000     0.3510520000    -1.4049560000
   30      H       7.3527340000     1.0540660000    -3.8144540000
   31      H       6.3988340000    -0.3480640000    -4.2615830000
   32      H       8.2037250000    -1.8569510000    -3.3799430000
   33      H       9.1580580000    -0.4548670000    -2.9331010000
   34      C       9.0382960000    -0.7919870000    -5.0626750000
   35      H       9.2543320000     0.2474000000    -5.3431670000
   36      H       8.2992910000    -1.1537520000    -5.7896440000
   37      C      10.3189640000    -1.6247810000    -5.1890300000
   38      H      10.1036240000    -2.6646780000    -4.9093420000
   39      H      11.0590600000    -1.2636640000    -4.4624420000
   40      C      10.9379350000    -1.5996570000    -6.5912940000
   41      C      12.2167170000    -2.4350950000    -6.7072160000
   42      H      11.1542480000    -0.5611840000    -6.8709880000
   43      H      10.1993390000    -1.9609640000    -7.3174590000
   44      H      12.9870840000    -2.0758390000    -6.0170030000
   45      H      12.6326780000    -2.3960730000    -7.7185760000
   46      H      12.0249390000    -3.4860380000    -6.4671600000
 ----------------------------------------------------------------

   17    -964.5967026934      4.15e-06  Convergence criterion met
 Total energy in the final basis set =     -964.5967026934

                    Orbital Energies (a.u.)
 --------------------------------------------------------------

 Alpha MOs
 -- Occupied --
-19.1435 -19.0871 -19.0757 -10.2241 -10.2218 -10.2214 -10.1747 -10.1726
-10.1718 -10.1708 -10.1704 -10.1690 -10.1624 -10.1572 -10.1567 -10.1546
-10.1544 -10.1543 -10.1541 -10.1538 -10.1536 -10.1510  -1.0635  -1.0013
 -0.9970  -0.8584  -0.8135  -0.8032  -0.7854  -0.7632  -0.7508  -0.7391
 -0.7097  -0.6796  -0.6587  -0.6271  -0.6145  -0.5931  -0.5750  -0.5703
 -0.5682  -0.5655  -0.5366  -0.5043  -0.4845  -0.4778  -0.4648  -0.4554
 -0.4517  -0.4378  -0.4331  -0.4276  -0.4257  -0.4197  -0.4162  -0.4080
 -0.3997  -0.3947  -0.3934  -0.3882  -0.3790  -0.3722  -0.3662  -0.3623
 -0.3514  -0.3445  -0.3441  -0.3403  -0.3361  -0.3325  -0.3242  -0.3211
 -0.3173  -0.3147  -0.3139  -0.2984  -0.2676  -0.2612  -0.2579  -0.2411
 -0.2276  -0.1519

 Beta MOs
 -- Occupied --
-19.1430 -19.0809 -19.0704 -10.2227 -10.2205 -10.2188 -10.1746 -10.1717
-10.1715 -10.1700 -10.1699 -10.1692 -10.1617 -10.1572 -10.1568 -10.1546
-10.1543 -10.1543 -10.1541 -10.1538 -10.1536 -10.1510  -1.0613  -0.9921
 -0.9865  -0.8560  -0.8115  -0.8022  -0.7843  -0.7619  -0.7486  -0.7383
 -0.7087  -0.6749  -0.6542  -0.6261  -0.6127  -0.5915  -0.5743  -0.5699
 -0.5670  -0.5645  -0.5348  -0.5020  -0.4824  -0.4771  -0.4638  -0.4548
 -0.4507  -0.4336  -0.4293  -0.4262  -0.4232  -0.4170  -0.4116  -0.4064
 -0.3966  -0.3939  -0.3917  -0.3785  -0.3769  -0.3681  -0.3642  -0.3569
 -0.3478  -0.3420  -0.3392  -0.3359  -0.3313  -0.3283  -0.3239  -0.3205
 -0.3172  -0.3146  -0.3138  -0.2977  -0.2558  -0.2508  -0.2482  -0.2362
 -0.2189

          Ground-State Mulliken Net Atomic Charges

     Atom                 Charge (a.u.)    Spin (a.u.)
  --------------------------------------------------------
      1 C                     0.005215       0.074829
      2 C                    -0.385848      -0.000940
      3 C                    -0.472596       0.071516
      4 C                     0.524674      -0.004181
      5 C                    -0.114454       0.057793
      6 C                     0.070406       0.004693
      7 C                    -0.899680       0.170895
      8 C                    -0.594271       0.059328
      9 C                     1.995313       0.052373
     10 C                    -0.651246       0.082078
     11 O                    -0.541057       0.226034
     12 O                    -0.480965       0.193771
     13 H                     0.173454      -0.004113
     14 H                     0.199402      -0.000650
     15 H                     0.194363      -0.005056
     16 H                     0.174462      -0.000363
     17 O                    -0.297012       0.016386
     18 C                    -0.427249       0.011566
     19 C                    -0.768353      -0.001002
     20 C                    -0.231484       0.001090
     21 C                     0.030812      -0.004122
     22 C                     0.017043      -0.000911
     23 H                     0.302443      -0.003529
     24 H                     0.200467       0.002553
     25 H                     0.218700      -0.000559
     26 H                     0.170701       0.001986
     27 H                     0.177451      -0.001666
     28 H                     0.121822       0.000437
     29 H                     0.119622      -0.000344
     30 H                     0.129474      -0.000035
     31 H                     0.129195      -0.000034
     32 H                     0.135545      -0.000002
     33 H                     0.135009      -0.000009
     34 C                    -0.194324      -0.000059
     35 H                     0.132078      -0.000004
     36 H                     0.131849       0.000003
     37 C                    -0.406184       0.000231
     38 H                     0.128063       0.000006
     39 H                     0.128175      -0.000011
     40 C                    -0.279575       0.000005
     41 C                    -0.711532       0.000011
     42 H                     0.135114      -0.000000
     43 H                     0.135229      -0.000000
     44 H                     0.144523       0.000002
     45 H                     0.150628       0.000005
     46 H                     0.144603      -0.000002
  --------------------------------------------------------
  Sum of atomic charges =    -1.000000

                    Cartesian Multipole Moments
 -----------------------------------------------------------------
    Charge (ESU x 10^10)
                -4.8032
    Dipole Moment (Debye)
         X     -11.4708      Y     -10.3903      Z       1.9007
       Tot      15.5932
    Quadrupole Moments (Debye-Ang)
        XX    -168.6582     XY     -24.9651     YY    -190.0994
        XZ       4.7566     YZ      -4.6489     ZZ    -145.8366

 Total job time:  447.67s(wall), 3170.52s(cpu)
        *  Thank you very much for using Q-Chem.  Have a nice day.  *
