 Q-Chem 5.4, Q-Chem, Inc., Pleasanton, CA (2021)
 Q-Chem 5.4.0 for Intel X86 EM64T Linux

User input:
--------------------------------------------------------------
$molecule
-1 2
C                 -0.6156720000     -1.1101680000      2.5266720000
C                 -0.5011600000     -1.8887880000      1.3051020000
C                  0.0966980000     -1.4093140000      0.1826650000
C                  0.6837340000     -0.0857150000      0.1155330000
C                  0.5830340000      0.7267090000      1.3234380000
C                 -0.0950290000      0.2502380000      2.4325240000
O                 -1.0993990000     -1.5939520000      3.5755020000
O                  1.2519930000      0.3424640000     -0.9251330000
S                 -0.4030510000      1.3319240000      3.8383590000
C                  0.6572950000      0.7126300000      5.1689700000
C                  0.1541210000     -0.2284190000      6.0633880000
C                  1.9591140000      1.1992330000      5.2686730000
C                  2.7731340000      0.7337030000      6.2996140000
C                  0.9779190000     -0.6820170000      7.0920110000
C                  2.2824670000     -0.2016660000      7.2115130000
O                  0.1104940000      2.6691120000      3.4788940000
O                 -1.7973770000      1.2238080000      4.2846260000
H                 -0.9129970000     -2.8925040000      1.3469500000
H                  0.1760700000     -2.0111020000     -0.7179040000
H                 -0.8520060000     -0.6013250000      5.9269840000
H                  2.3194120000      1.9213090000      4.5458880000
H                  3.7893810000      1.1019800000      6.3888920000
H                  0.6016510000     -1.4163510000      7.7961140000
H                  2.9202140000     -0.5617420000      8.0123780000
C                  1.3489060000      2.0388900000      1.2421700000
C                  0.7028410000      3.1599990000      0.4668700000
O                  2.4719980000      2.1114660000      1.6950910000
H                 -0.2716460000      3.3949550000      0.8997900000
H                  0.5606960000      2.8204150000     -0.5630920000
H                  1.3457590000      4.0411490000      0.4883420000
$end
$rem
MAX_SCF_CYCLES=200
BASIS  =  6-311++G(d,p)
GUI  =  2
JOB_TYPE  =  SP
METHOD  =  B3LYP
SOLVENT_METHOD = PCM
$end
$pcm
theory = CPCM
$end
$solvent
dielectric 37.219
opticaldielectric 1.43
$end

--------------------------------------------------------------

             Standard Nuclear Orientation (Angstroms)
    I     Atom           X                Y                Z
 ----------------------------------------------------------------
    1      C      -0.6156720000    -1.1101680000     2.5266720000
    2      C      -0.5011600000    -1.8887880000     1.3051020000
    3      C       0.0966980000    -1.4093140000     0.1826650000
    4      C       0.6837340000    -0.0857150000     0.1155330000
    5      C       0.5830340000     0.7267090000     1.3234380000
    6      C      -0.0950290000     0.2502380000     2.4325240000
    7      O      -1.0993990000    -1.5939520000     3.5755020000
    8      O       1.2519930000     0.3424640000    -0.9251330000
    9      S      -0.4030510000     1.3319240000     3.8383590000
   10      C       0.6572950000     0.7126300000     5.1689700000
   11      C       0.1541210000    -0.2284190000     6.0633880000
   12      C       1.9591140000     1.1992330000     5.2686730000
   13      C       2.7731340000     0.7337030000     6.2996140000
   14      C       0.9779190000    -0.6820170000     7.0920110000
   15      C       2.2824670000    -0.2016660000     7.2115130000
   16      O       0.1104940000     2.6691120000     3.4788940000
   17      O      -1.7973770000     1.2238080000     4.2846260000
   18      H      -0.9129970000    -2.8925040000     1.3469500000
   19      H       0.1760700000    -2.0111020000    -0.7179040000
   20      H      -0.8520060000    -0.6013250000     5.9269840000
   21      H       2.3194120000     1.9213090000     4.5458880000
   22      H       3.7893810000     1.1019800000     6.3888920000
   23      H       0.6016510000    -1.4163510000     7.7961140000
   24      H       2.9202140000    -0.5617420000     8.0123780000
   25      C       1.3489060000     2.0388900000     1.2421700000
   26      C       0.7028410000     3.1599990000     0.4668700000
   27      O       2.4719980000     2.1114660000     1.6950910000
   28      H      -0.2716460000     3.3949550000     0.8997900000
   29      H       0.5606960000     2.8204150000    -0.5630920000
   30      H       1.3457590000     4.0411490000     0.4883420000
 ----------------------------------------------------------------

    8   -1314.1731184332      8.78e-06  Convergence criterion met
 Total energy in the final basis set =    -1314.1731184332

                    Orbital Energies (a.u.)
 --------------------------------------------------------------

 Alpha MOs
 -- Occupied --
-89.0575 -19.1256 -19.1241 -19.1228 -19.0972 -19.0962 -10.2797 -10.2485
-10.2440 -10.2145 -10.2134 -10.2068 -10.1938 -10.1918 -10.1888 -10.1870
-10.1865 -10.1818 -10.1805 -10.1654  -8.1213  -6.0843  -6.0830  -6.0822
 -1.1179  -1.0613  -1.0250  -1.0206  -1.0125  -0.8777  -0.8527  -0.7912
 -0.7780  -0.7638  -0.7494  -0.7146  -0.6797  -0.6368  -0.6230  -0.6149
 -0.5796  -0.5465  -0.5426  -0.5078  -0.5033  -0.4870  -0.4827  -0.4790
 -0.4615  -0.4581  -0.4551  -0.4527  -0.4386  -0.4348  -0.4282  -0.4248
 -0.4033  -0.4022  -0.3961  -0.3861  -0.3841  -0.3801  -0.3701  -0.3601
 -0.3478  -0.3352  -0.3169  -0.3098  -0.3046  -0.2870  -0.2785  -0.2714
 -0.2695  -0.2628  -0.2489  -0.1841

 Beta MOs
 -- Occupied --
-89.0575 -19.1254 -19.1240 -19.1228 -19.0903 -19.0900 -10.2798 -10.2475
-10.2427 -10.2134 -10.2133 -10.2042 -10.1938 -10.1918 -10.1887 -10.1870
-10.1866 -10.1813 -10.1796 -10.1653  -8.1214  -6.0843  -6.0830  -6.0823
 -1.1177  -1.0607  -1.0160  -1.0111  -1.0080  -0.8776  -0.8463  -0.7895
 -0.7764  -0.7637  -0.7477  -0.7085  -0.6756  -0.6341  -0.6229  -0.6127
 -0.5778  -0.5442  -0.5417  -0.5062  -0.5009  -0.4862  -0.4812  -0.4788
 -0.4598  -0.4576  -0.4544  -0.4500  -0.4380  -0.4330  -0.4228  -0.4102
 -0.4000  -0.3970  -0.3890  -0.3838  -0.3804  -0.3726  -0.3630  -0.3599
 -0.3465  -0.3348  -0.3163  -0.3076  -0.2872  -0.2772  -0.2709  -0.2672
 -0.2653  -0.2569  -0.2445

          Ground-State Mulliken Net Atomic Charges

     Atom                 Charge (a.u.)    Spin (a.u.)
  --------------------------------------------------------
      1 C                    -0.253555       0.039671
      2 C                    -0.022867       0.064157
      3 C                    -0.154757       0.034883
      4 C                    -0.491507       0.089037
      5 C                     0.889308       0.190764
      6 C                    -0.095757       0.121517
      7 O                    -0.401821       0.223485
      8 O                    -0.443250       0.268378
      9 S                     0.435915      -0.034393
     10 C                     0.476233       0.002178
     11 C                    -0.049847       0.015146
     12 C                    -0.229314       0.006492
     13 C                    -0.528329      -0.001511
     14 C                    -0.465568      -0.003557
     15 C                    -0.342532       0.003703
     16 O                    -0.205006      -0.003025
     17 O                    -0.201201       0.007665
     18 H                     0.229987      -0.005863
     19 H                     0.225661      -0.004487
     20 H                     0.274134      -0.000383
     21 H                     0.250825       0.000815
     22 H                     0.232475       0.000048
     23 H                     0.230281       0.000110
     24 H                     0.207646      -0.000211
     25 C                    -0.214878      -0.024257
     26 C                    -0.650589       0.006863
     27 O                    -0.282953       0.002840
     28 H                     0.191094       0.000635
     29 H                     0.216028      -0.001597
     30 H                     0.174144       0.000898
  --------------------------------------------------------
  Sum of atomic charges =    -1.000000

                    Cartesian Multipole Moments
 -----------------------------------------------------------------
    Charge (ESU x 10^10)
                -4.8032
    Dipole Moment (Debye)
         X       0.2439      Y      -4.1087      Z      -8.9693
       Tot       9.8686
    Quadrupole Moments (Debye-Ang)
        XX    -142.5023     XY      -5.4719     YY    -138.7940
        XZ      28.0649     YZ     -13.6750     ZZ    -152.3799

 Total job time:  83.44s(wall), 576.92s(cpu)
        *  Thank you very much for using Q-Chem.  Have a nice day.  *
