 Gaussian 16, Revision A.03,
 Gaussian 16:  ES64L-G16RevA.03 25-Dec-2016

 --------------------------------------
 #P UB3LYP/6-311++G(d,p) nosym opt freq
 --------------------------------------

 -------
 Radical
 -------
 Symbolic Z-matrix:
 Charge = -1 Multiplicity = 2

 SCF Done:  E(UB3LYP) =  -1314.08826967     A.U. after   23 cycles
 SCF Done:  E(UB3LYP) =  -1314.08826966     A.U. after   12 cycles
 SCF Done:  E(UB3LYP) =  -1314.08826965     A.U. after   13 cycles
 SCF Done:  E(UB3LYP) =  -1314.08826971     A.U. after   13 cycles
 Optimization completed.
    -- Stationary point found.
 Normal termination of Gaussian 16 at Wed Jan 10 05:22:05 2024.

 ----------------------------------------------------------------------
 #P Geom=AllCheck Guess=TCheck SCRF=Check GenChk UB3LYP/6-311++G(d,p) F
 req
 ----------------------------------------------------------------------

 Structure from the checkpoint file:  "067-rad.chk"
 -------
 Radical
 -------
 Charge = -1 Multiplicity = 2

                          Input orientation:
 ---------------------------------------------------------------------
 Center     Atomic      Atomic             Coordinates (Angstroms)
 Number     Number       Type             X           Y           Z
 ---------------------------------------------------------------------
      1          6           0       -0.615672   -1.110168    2.526672
      2          6           0       -0.501160   -1.888788    1.305102
      3          6           0        0.096698   -1.409314    0.182665
      4          6           0        0.683734   -0.085715    0.115533
      5          6           0        0.583034    0.726709    1.323438
      6          6           0       -0.095029    0.250238    2.432524
      7          8           0       -1.099399   -1.593952    3.575502
      8          8           0        1.251993    0.342464   -0.925133
      9         16           0       -0.403051    1.331924    3.838359
     10          6           0        0.657295    0.712630    5.168970
     11          6           0        0.154121   -0.228419    6.063388
     12          6           0        1.959114    1.199233    5.268673
     13          6           0        2.773134    0.733703    6.299614
     14          6           0        0.977919   -0.682017    7.092011
     15          6           0        2.282467   -0.201666    7.211513
     16          8           0        0.110494    2.669112    3.478894
     17          8           0       -1.797377    1.223808    4.284626
     18          1           0       -0.912997   -2.892504    1.346950
     19          1           0        0.176070   -2.011102   -0.717904
     20          1           0       -0.852006   -0.601325    5.926984
     21          1           0        2.319412    1.921309    4.545888
     22          1           0        3.789381    1.101980    6.388892
     23          1           0        0.601651   -1.416351    7.796114
     24          1           0        2.920214   -0.561742    8.012378
     25          6           0        1.348906    2.038890    1.242170
     26          6           0        0.702841    3.159999    0.466870
     27          8           0        2.471998    2.111466    1.695091
     28          1           0       -0.271646    3.394955    0.899790
     29          1           0        0.560696    2.820415   -0.563092
     30          1           0        1.345759    4.041149    0.488342
 ---------------------------------------------------------------------

 SCF Done:  E(UB3LYP) =  -1314.08826971     A.U. after    2 cycles

 Alpha  occ. eigenvalues --  -88.93508 -19.00044 -18.99835 -18.99736 -18.97044
 Alpha  occ. eigenvalues --  -18.96935 -10.15694 -10.12378 -10.11836 -10.10906
 Alpha  occ. eigenvalues --  -10.09992 -10.09609 -10.09548 -10.09503 -10.09276
 Alpha  occ. eigenvalues --  -10.09161 -10.08393 -10.06498 -10.06375 -10.05628
 Alpha  occ. eigenvalues --   -7.99872  -5.96145  -5.96047  -5.95981  -0.99247
 Alpha  occ. eigenvalues --   -0.93514  -0.89772  -0.89325  -0.88595  -0.78002
 Alpha  occ. eigenvalues --   -0.73048  -0.68366  -0.66847  -0.66539  -0.63525
 Alpha  occ. eigenvalues --   -0.59658  -0.56462  -0.52776  -0.52403  -0.50163
 Alpha  occ. eigenvalues --   -0.47009  -0.43648  -0.42532  -0.39359  -0.38347
 Alpha  occ. eigenvalues --   -0.37660  -0.37150  -0.36238  -0.36085  -0.34357
 Alpha  occ. eigenvalues --   -0.34337  -0.33736  -0.33179  -0.31534  -0.30302
 Alpha  occ. eigenvalues --   -0.30111  -0.29124  -0.28821  -0.28497  -0.27875
 Alpha  occ. eigenvalues --   -0.27060  -0.26617  -0.26421  -0.24759  -0.22135
 Alpha  occ. eigenvalues --   -0.20857  -0.19193  -0.19007  -0.18207  -0.17630
 Alpha  occ. eigenvalues --   -0.17311  -0.16069  -0.14927  -0.13547  -0.12335
 Alpha  occ. eigenvalues --   -0.05895
 Alpha virt. eigenvalues --    0.05097   0.06502   0.06968   0.07937   0.08609
 Alpha virt. eigenvalues --    0.09031   0.09523   0.09743   0.10195   0.11748
 Alpha virt. eigenvalues --    0.12283   0.12564   0.12956   0.13396   0.13696

  Beta  occ. eigenvalues --  -88.93510 -19.00021 -18.99837 -18.99727 -18.96284
  Beta  occ. eigenvalues --  -18.96239 -10.15710 -10.12320 -10.11756 -10.10906
  Beta  occ. eigenvalues --  -10.09986 -10.09611 -10.09550 -10.09499 -10.09270
  Beta  occ. eigenvalues --  -10.09049 -10.08129 -10.06444 -10.06279 -10.05626
  Beta  occ. eigenvalues --   -7.99873  -5.96146  -5.96048  -5.95985  -0.99227
  Beta  occ. eigenvalues --   -0.93447  -0.88875  -0.88381  -0.87944  -0.77995
  Beta  occ. eigenvalues --   -0.72412  -0.68317  -0.66839  -0.66298  -0.63388
  Beta  occ. eigenvalues --   -0.59105  -0.56009  -0.52766  -0.52162  -0.49957
  Beta  occ. eigenvalues --   -0.46835  -0.43547  -0.42315  -0.39204  -0.38196
  Beta  occ. eigenvalues --   -0.37609  -0.37028  -0.36079  -0.36066  -0.34334
  Beta  occ. eigenvalues --   -0.34191  -0.33661  -0.32909  -0.31437  -0.29700
  Beta  occ. eigenvalues --   -0.29347  -0.28858  -0.28588  -0.27932  -0.27369
  Beta  occ. eigenvalues --   -0.26705  -0.26507  -0.24993  -0.23706  -0.22009
  Beta  occ. eigenvalues --   -0.20820  -0.19092  -0.18788  -0.17872  -0.17456
  Beta  occ. eigenvalues --   -0.15509  -0.14624  -0.14152  -0.12844  -0.11824
  Beta virt. eigenvalues --    0.01331   0.05435   0.06502   0.06998   0.08579
  Beta virt. eigenvalues --    0.08810   0.09137   0.09610   0.10077   0.10203
  Beta virt. eigenvalues --    0.11781   0.12377   0.12652   0.13372   0.13687

 Mulliken charges and spin densities:
               1          2
     1  C   -0.397703   0.010808
     2  C    0.080792   0.072193
     3  C   -0.052952   0.043511
     4  C   -0.674533   0.055799
     5  C    0.969223   0.198295
     6  C   -0.057090   0.119107
     7  O   -0.307628   0.239706
     8  O   -0.353841   0.294629
     9  S    0.281271  -0.037331
    10  C    0.521106   0.002776
    11  C   -0.066237   0.017383
    12  C   -0.223012   0.006738
    13  C   -0.506546  -0.001558
    14  C   -0.438231  -0.004210
    15  C   -0.282006   0.004756
    16  O   -0.135924  -0.003396
    17  O   -0.091580   0.008293
    18  H    0.172845  -0.006556
    19  H    0.167759  -0.004997
    20  H    0.289435  -0.000514
    21  H    0.252821   0.000937
    22  H    0.166732   0.000056
    23  H    0.162649   0.000144
    24  H    0.134896  -0.000302
    25  C   -0.285871  -0.026720
    26  C   -0.620675   0.007699
    27  O   -0.222196   0.003353
    28  H    0.165223   0.000665
    29  H    0.209269  -0.002028
    30  H    0.142004   0.000762
 Sum of Mulliken charges =  -1.00000   1.00000

 Dipole moment (field-independent basis, Debye):
    X=             -0.7173    Y=             -3.3642    Z=            -10.2742  Tot=             10.8347
 Quadrupole moment (field-independent basis, Debye-Ang):
   XX=           -143.9074   YY=           -141.9312   ZZ=           -171.0307
   XY=             -5.1633   XZ=             16.7932   YZ=            -10.8238

  Exact polarizability: 180.879  27.698 198.384   0.733 -18.465 275.883
 Approx polarizability: 322.334  60.419 313.339 -36.684 -54.839 409.318

                      1                      2                      3
                      A                      A                      A
 Frequencies --     29.5433                32.7239                46.0838
 Red. masses --      5.8409                 4.9678                 5.7689
 Frc consts  --      0.0030                 0.0031                 0.0072
 IR Inten    --      2.4221                 1.0548                 1.0303

                      4                      5                      6
                      A                      A                      A
 Frequencies --     79.8372               101.5946               118.1646
 Red. masses --      6.5173                 4.4600                 1.1765
 Frc consts  --      0.0245                 0.0271                 0.0097
 IR Inten    --      1.2853                 4.4327                 0.7798

                      7                      8                      9
                      A                      A                      A
 Frequencies --    120.0721               159.7681               163.2253
 Red. masses --      4.8671                 5.2143                 7.5276
 Frc consts  --      0.0413                 0.0784                 0.1182
 IR Inten    --      6.6518                 3.3064                 4.8323

                     10                     11                     12
                      A                      A                      A
 Frequencies --    176.2076               185.1920               217.8444
 Red. masses --      6.8755                 7.9815                 6.0800
 Frc consts  --      0.1258                 0.1613                 0.1700
 IR Inten    --      1.2115                 0.2078                 3.8600

                     13                     14                     15
                      A                      A                      A
 Frequencies --    250.6378               263.9139               295.5091
 Red. masses --      7.7078                11.9329                 7.9250
 Frc consts  --      0.2853                 0.4897                 0.4077
 IR Inten    --      0.0982                 2.3038                 2.5046

                     16                     17                     18
                      A                      A                      A
 Frequencies --    308.6422               318.1907               368.9760
 Red. masses --      8.2626                 5.8424                 5.8446
 Frc consts  --      0.4637                 0.3485                 0.4688
 IR Inten    --      3.4294                 0.0050                 1.2618

                     19                     20                     21
                      A                      A                      A
 Frequencies --    405.6986               411.1041               430.7359
 Red. masses --      7.6218                 2.8901                 7.1195
 Frc consts  --      0.7391                 0.2878                 0.7783
 IR Inten    --      5.7866                 0.0993                12.2611

                     22                     23                     24
                      A                      A                      A
 Frequencies --    460.9952               481.0866               506.2256
 Red. masses --      5.3479                 7.8117                 6.3645
 Frc consts  --      0.6696                 1.0652                 0.9610
 IR Inten    --      3.9789                 1.1425                25.8548

                     25                     26                     27
                      A                      A                      A
 Frequencies --    522.3178               558.4587               575.2994
 Red. masses --      4.0127                 5.1301                 6.6598
 Frc consts  --      0.6450                 0.9427                 1.2987
 IR Inten    --      5.3433                98.0494                32.3055

                     28                     29                     30
                      A                      A                      A
 Frequencies --    612.3485               622.4756               627.4644
 Red. masses --      5.6643                 3.4051                 6.4294
 Frc consts  --      1.2514                 0.7774                 1.4914
 IR Inten    --    106.5922                 8.3003                 0.1942

                     31                     32                     33
                      A                      A                      A
 Frequencies --    651.8723               699.6181               711.1829
 Red. masses --      3.1217                 1.8446                 6.8700
 Frc consts  --      0.7816                 0.5320                 2.0473
 IR Inten    --      6.1964                49.3359                 7.8972

                     34                     35                     36
                      A                      A                      A
 Frequencies --    730.6592               762.8982               773.6069
 Red. masses --      6.6471                 1.8246                 7.7276
 Frc consts  --      2.0908                 0.6257                 2.7248
 IR Inten    --     86.3454                11.2648                 5.0994

                     37                     38                     39
                      A                      A                      A
 Frequencies --    837.0701               849.6612               874.2010
 Red. masses --      1.9915                 1.2505                 6.2813
 Frc consts  --      0.8222                 0.5319                 2.8283
 IR Inten    --     43.3829                 0.9137                14.3501

                     40                     41                     42
                      A                      A                      A
 Frequencies --    908.5973               935.3921               970.8631
 Red. masses --      6.9881                 1.3892                 1.2946
 Frc consts  --      3.3990                 0.7162                 0.7189
 IR Inten    --     21.9915                 0.5754                 0.7406

                     43                     44                     45
                      A                      A                      A
 Frequencies --    986.4269               986.9703               993.2936
 Red. masses --      1.3798                 2.1480                 1.3098
 Frc consts  --      0.7910                 1.2328                 0.7614
 IR Inten    --      0.4814                15.3735                 0.1322

                     46                     47                     48
                      A                      A                      A
 Frequencies --   1008.6208              1014.8917              1041.8873
 Red. masses --      2.5524                 4.6131                 3.3259
 Frc consts  --      1.5299                 2.7995                 2.1271
 IR Inten    --      9.0822                 3.4616                18.3040

                     49                     50                     51
                      A                      A                      A
 Frequencies --   1066.9288              1086.8113              1096.7073
 Red. masses --      3.6523                 2.7692                 1.5984
 Frc consts  --      2.4496                 1.9271                 1.1327
 IR Inten    --     96.6873                32.1007                 8.2585

                     52                     53                     54
                      A                      A                      A
 Frequencies --   1107.1084              1112.4264              1177.5238
 Red. masses --      1.7610                 4.0652                 1.1162
 Frc consts  --      1.2717                 2.9640                 0.9119
 IR Inten    --     12.5504               117.3367                 0.0874

                     55                     56                     57
                      A                      A                      A
 Frequencies --   1198.2936              1199.0753              1219.7508
 Red. masses --      1.7878                 1.3340                 3.8430
 Frc consts  --      1.5125                 1.1300                 3.3687
 IR Inten    --     37.9669                21.6129                29.1225

                     58                     59                     60
                      A                      A                      A
 Frequencies --   1244.1575              1313.5769              1330.3617
 Red. masses --     16.8340                 2.5099                 3.2611
 Frc consts  --     15.3528                 2.5517                 3.4005
 IR Inten    --    164.7082                 4.3668                 0.0643

                     61                     62                     63
                      A                      A                      A
 Frequencies --   1347.9650              1367.0679              1404.7894
 Red. masses --      1.6591                 1.3378                 3.3992
 Frc consts  --      1.7762                 1.4731                 3.9523
 IR Inten    --      3.0487                73.0198                39.1839

                     64                     65                     66
                      A                      A                      A
 Frequencies --   1457.0203              1467.0521              1472.1342
 Red. masses --      5.5531                 1.1352                 1.0973
 Frc consts  --      6.9457                 1.4395                 1.4011
 IR Inten    --    173.0922                10.4667                21.0796

                     67                     68                     69
                      A                      A                      A
 Frequencies --   1473.0419              1506.8445              1514.8497
 Red. masses --      2.1225                 2.0214                 7.8248
 Frc consts  --      2.7134                 2.7042                10.5794
 IR Inten    --     22.9185                 9.7519                67.4183

                     70                     71                     72
                      A                      A                      A
 Frequencies --   1550.0503              1621.5040              1622.7358
 Red. masses --      8.6346                 5.3849                 5.7846
 Frc consts  --     12.2231                 8.3419                 8.9747
 IR Inten    --    273.8900                 2.7014                 0.1437

                     73                     74                     75
                      A                      A                      A
 Frequencies --   1633.0706              1757.4081              3033.1041
 Red. masses --      7.2372                11.0346                 1.0328
 Frc consts  --     11.3718                20.0795                 5.5983
 IR Inten    --     15.1647               177.4838                10.9951

                     76                     77                     78
                      A                      A                      A
 Frequencies --   3108.0294              3124.4400              3146.3514
 Red. masses --      1.0998                 1.1045                 1.0856
 Frc consts  --      6.2595                 6.3526                 6.3319
 IR Inten    --      2.7986                22.5430                11.1275

                     79                     80                     81
                      A                      A                      A
 Frequencies --   3150.2553              3166.4002              3167.5253
 Red. masses --      1.0852                 1.0899                 1.0957
 Frc consts  --      6.3453                 6.4381                 6.4769
 IR Inten    --      2.4024                26.2845                33.1003

                     82                     83                     84
                      A                      A                      A
 Frequencies --   3176.4260              3197.3899              3217.5776
 Red. masses --      1.0951                 1.0938                 1.0929
 Frc consts  --      6.5101                 6.5886                 6.6665
 IR Inten    --     35.6424                 9.1425                 7.1187

 - Thermochemistry -
 -------------------
 Temperature   298.150 Kelvin.  Pressure   1.00000 Atm.
 Atom     1 has atomic number  6 and mass  12.00000

 Molecular mass:   290.02490 amu.
 Principal axes and moments of inertia in atomic units:
                           1         2         3
     Eigenvalues --  3498.856986937.267668044.86142
           X            0.07326   0.51362   0.85488
           Y           -0.06145   0.85788  -0.51016
           Z            0.99542   0.01516  -0.09441
 This molecule is an asymmetric top.
 Rotational symmetry number  1.
 Warning -- assumption of classical behavior for rotation
           may cause significant error
 Rotational temperatures (Kelvin)      0.02475     0.01249     0.01077
 Rotational constants (GHZ):           0.51581     0.26015     0.22433
 Zero-point vibrational energy     550424.6 (Joules/Mol)
                                  131.55463 (Kcal/Mol)
 Warning -- explicit consideration of  28 degrees of freedom as
           vibrations may cause significant error
 Vibrational temperatures:     42.51    47.08    66.30   114.87   146.17
          (Kelvin)            170.01   172.76   229.87   234.84   253.52
                              266.45   313.43   360.61   379.71   425.17
                              444.07   457.81   530.87   583.71   591.49
                              619.73   663.27   692.18   728.35   751.50
                              803.50   827.73   881.03   895.60   902.78
                              937.90  1006.59  1023.23  1051.26  1097.64
                             1113.05  1204.36  1222.47  1257.78  1307.27
                             1345.82  1396.86  1419.25  1420.03  1429.13
                             1451.18  1460.20  1499.04  1535.07  1563.68
                             1577.92  1592.88  1600.53  1694.19  1724.08
                             1725.20  1754.95  1790.07  1889.94  1914.09
                             1939.42  1966.91  2021.18  2096.33  2110.76
                             2118.07  2119.38  2168.01  2179.53  2230.18
                             2332.98  2334.75  2349.62  2528.52  4363.96
                             4471.76  4495.37  4526.90  4532.51  4555.74
                             4557.36  4570.17  4600.33  4629.38

 Zero-point correction=                           0.209646 (Hartree/Particle)
 Thermal correction to Energy=                    0.227558
 Thermal correction to Enthalpy=                  0.228502
 Thermal correction to Gibbs Free Energy=         0.162086
 Sum of electronic and zero-point Energies=          -1313.878624
 Sum of electronic and thermal Energies=             -1313.860712
 Sum of electronic and thermal Enthalpies=           -1313.859768
 Sum of electronic and thermal Free Energies=        -1313.926184

                     E (Thermal)             CV                S
                      KCal/Mol        Cal/Mol-Kelvin    Cal/Mol-Kelvin
 Total                  142.795             67.364            139.784
 Electronic               0.000              0.000              1.377
 Translational            0.889              2.981             42.892
 Rotational               0.889              2.981             33.634
 Vibrational            141.017             61.402             61.880
 Vibration     1          0.593              1.984              5.860
 Vibration     2          0.594              1.983              5.657
 Vibration     3          0.595              1.979              4.979
 Vibration     4          0.600              1.963              3.895
 Vibration     5          0.604              1.948              3.423
 Vibration     6          0.608              1.934              3.130
 Vibration     7          0.609              1.933              3.099
 Vibration     8          0.622              1.892              2.553
 Vibration     9          0.623              1.888              2.512
 Vibration    10          0.628              1.872              2.368
 Vibration    11          0.631              1.860              2.275
 Vibration    12          0.646              1.814              1.977
 Vibration    13          0.663              1.762              1.726
 Vibration    14          0.670              1.739              1.636
 Vibration    15          0.690              1.682              1.442
 Vibration    16          0.698              1.657              1.370
 Vibration    17          0.705              1.639              1.319
 Vibration    18          0.741              1.536              1.084
 Vibration    19          0.771              1.458              0.942
 Vibration    20          0.775              1.446              0.923
 Vibration    21          0.792              1.403              0.856
 Vibration    22          0.819              1.337              0.763
 Vibration    23          0.837              1.292              0.707
 Vibration    24          0.861              1.236              0.643
 Vibration    25          0.877              1.201              0.605
 Vibration    26          0.914              1.121              0.527
 Vibration    27          0.932              1.085              0.494
 Vibration    28          0.972              1.006              0.429

 Optimization completed.
    -- Stationary point found.
 Normal termination of Gaussian 16 at Wed Jan 10 06:49:49 2024.
