 Q-Chem 5.4, Q-Chem, Inc., Pleasanton, CA (2021)
 Q-Chem 5.4.0 for Intel X86 EM64T Linux

User input:
--------------------------------------------------------------
$molecule
-1 2
C                 -1.3533690000     -2.0334760000      1.1592440000
C                 -1.4144770000     -1.9979140000     -0.2829270000
C                 -0.7795380000     -1.0342550000     -1.0211770000
C                  0.0005960000      0.0207520000     -0.4067030000
C                  0.0632210000     -0.0131460000      1.0422860000
C                 -0.5704190000     -0.9753120000      1.7833520000
O                 -1.9355480000     -2.9187640000      1.8570770000
O                  0.5881130000      0.9120620000     -1.0852000000
C                 -0.5296350000     -1.0448390000      3.2841200000
O                  0.2596700000      0.0287380000      3.8250730000
C                  0.4041330000      0.1194430000      5.1640360000
C                 -0.1629680000     -0.7640340000      6.0942470000
C                  1.1874480000      1.1906000000      5.6274300000
C                  1.3967750000      1.3712800000      6.9869440000
C                  0.0581610000     -0.5670760000      7.4591630000
C                  0.8335360000      0.4930840000      7.9186230000
H                 -1.9957050000     -2.7822580000     -0.7606030000
H                 -0.8390500000     -1.0267290000     -2.1062100000
H                  0.6414120000      0.7665830000      1.5251300000
H                 -0.1092580000     -2.0061550000      3.6030710000
H                 -1.5473630000     -0.9922500000      3.6891450000
H                 -0.7693960000     -1.5956500000      5.7633570000
H                  1.6176940000      1.8631280000      4.8947030000
H                  2.0047680000      2.2044380000      7.3247140000
H                 -0.3872940000     -1.2590980000      8.1667510000
H                  0.9984220000      0.6361370000      8.9806210000
$end

$rem
BASIS  =  6-311++G(d,p)
GUI  =  2
JOB_TYPE  =  SP
METHOD  =  B3LYP
SCF_CONVERGENCE  = 8
SOLVENT_METHOD = sm12
$end

$smx
solvent dimethylformamide
charges CM5
$end

--------------------------------------------------------------

             Standard Nuclear Orientation (Angstroms)
    I     Atom           X                Y                Z
 ----------------------------------------------------------------
    1      C      -1.3533690000    -2.0334760000     1.1592440000
    2      C      -1.4144770000    -1.9979140000    -0.2829270000
    3      C      -0.7795380000    -1.0342550000    -1.0211770000
    4      C       0.0005960000     0.0207520000    -0.4067030000
    5      C       0.0632210000    -0.0131460000     1.0422860000
    6      C      -0.5704190000    -0.9753120000     1.7833520000
    7      O      -1.9355480000    -2.9187640000     1.8570770000
    8      O       0.5881130000     0.9120620000    -1.0852000000
    9      C      -0.5296350000    -1.0448390000     3.2841200000
   10      O       0.2596700000     0.0287380000     3.8250730000
   11      C       0.4041330000     0.1194430000     5.1640360000
   12      C      -0.1629680000    -0.7640340000     6.0942470000
   13      C       1.1874480000     1.1906000000     5.6274300000
   14      C       1.3967750000     1.3712800000     6.9869440000
   15      C       0.0581610000    -0.5670760000     7.4591630000
   16      C       0.8335360000     0.4930840000     7.9186230000
   17      H      -1.9957050000    -2.7822580000    -0.7606030000
   18      H      -0.8390500000    -1.0267290000    -2.1062100000
   19      H       0.6414120000     0.7665830000     1.5251300000
   20      H      -0.1092580000    -2.0061550000     3.6030710000
   21      H      -1.5473630000    -0.9922500000     3.6891450000
   22      H      -0.7693960000    -1.5956500000     5.7633570000
   23      H       1.6176940000     1.8631280000     4.8947030000
   24      H       2.0047680000     2.2044380000     7.3247140000
   25      H      -0.3872940000    -1.2590980000     8.1667510000
   26      H       0.9984220000     0.6361370000     8.9806210000
 ----------------------------------------------------------------

   17    -727.3115721118      8.19e-09  Convergence criterion met
 Total energy in the final basis set =     -727.3993853129

                    Orbital Energies (a.u.)
 --------------------------------------------------------------

 Alpha MOs
 -- Occupied --
-19.1601 -19.0789 -19.0773 -10.2447 -10.2342 -10.2224 -10.2218 -10.1847
-10.1845 -10.1810 -10.1801 -10.1784 -10.1764 -10.1715 -10.1707 -10.1675
 -1.0784  -0.9991  -0.9958  -0.8625  -0.8319  -0.7834  -0.7582  -0.7441
 -0.7073  -0.6752  -0.6230  -0.6146  -0.5856  -0.5663  -0.5442  -0.4998
 -0.4860  -0.4844  -0.4704  -0.4662  -0.4531  -0.4422  -0.4306  -0.4204
 -0.4119  -0.4024  -0.3893  -0.3847  -0.3731  -0.3717  -0.3682  -0.3627
 -0.3347  -0.3341  -0.2841  -0.2671  -0.2620  -0.2429  -0.2380  -0.2335
 -0.1655

 Beta MOs
 -- Occupied --
-19.1601 -19.0716 -19.0696 -10.2447 -10.2343 -10.2212 -10.2208 -10.1847
-10.1845 -10.1801 -10.1799 -10.1784 -10.1764 -10.1704 -10.1694 -10.1665
 -1.0784  -0.9865  -0.9825  -0.8624  -0.8263  -0.7814  -0.7581  -0.7430
 -0.7039  -0.6670  -0.6220  -0.6133  -0.5836  -0.5630  -0.5436  -0.4994
 -0.4847  -0.4833  -0.4676  -0.4633  -0.4525  -0.4399  -0.4303  -0.4196
 -0.4012  -0.3952  -0.3824  -0.3794  -0.3724  -0.3661  -0.3606  -0.3457
 -0.3345  -0.3308  -0.2666  -0.2553  -0.2475  -0.2360  -0.2333  -0.2312

          Ground-State Mulliken Net Atomic Charges

     Atom                 Charge (a.u.)    Spin (a.u.)
  --------------------------------------------------------
      1 C                    -1.484849      -0.000701
      2 C                     0.104362       0.133843
      3 C                    -0.208562       0.105737
      4 C                    -1.209623       0.113702
      5 C                    -1.253358       0.038122
      6 C                     1.469970       0.089033
      7 O                    -0.326046       0.268241
      8 O                    -0.397660       0.268974
      9 C                    -0.039565      -0.002014
     10 O                    -0.111119       0.000065
     11 C                    -0.459443      -0.002621
     12 C                    -0.062356      -0.000612
     13 C                    -0.306087       0.000681
     14 C                     0.224448       0.000480
     15 C                     0.270319       0.000001
     16 C                     0.365601      -0.000299
     17 H                     0.220666      -0.008321
     18 H                     0.207667      -0.008526
     19 H                     0.082336      -0.008170
     20 H                     0.274821       0.006235
     21 H                     0.274615       0.006242
     22 H                     0.259692      -0.000132
     23 H                     0.191237       0.000059
     24 H                     0.315683      -0.000015
     25 H                     0.297883      -0.000012
     26 H                     0.299367       0.000011
  --------------------------------------------------------
  Sum of atomic charges =    -1.000000

                    Cartesian Multipole Moments
 -----------------------------------------------------------------
    Charge (ESU x 10^10)
                -4.8032
    Dipole Moment (Debye)
         X       2.1568      Y       3.3360      Z      -2.3905
       Tot       4.6363
    Quadrupole Moments (Debye-Ang)
        XX    -107.9615     XY     -10.6571     YY    -117.0386
        XZ       7.2796     YZ      11.2182     ZZ    -111.0014

 Total job time:  516.93s(wall), 3988.85s(cpu)
        *  Thank you very much for using Q-Chem.  Have a nice day.  *
