 Gaussian 16, Revision A.03,
 Gaussian 16:  ES64L-G16RevA.03 25-Dec-2016

 ----------------------------------------------------------------
 #P UB3LYP/6-311++G(d,p) SCRF=(PCM,Solvent=n,n-DiMethylFormamide)
 ----------------------------------------------------------------

 ------------------
 Quinone PCM in DMF
 ------------------
 Symbolic Z-matrix:
 Charge =  0 Multiplicity = 1

                         Standard orientation:
 ---------------------------------------------------------------------
 Center     Atomic      Atomic             Coordinates (Angstroms)
 Number     Number       Type             X           Y           Z
 ---------------------------------------------------------------------
      1          6           0        2.717577    2.870974    0.581733
      2          8           0        2.451447    1.640329   -0.129407
      3          6           0        1.290314    0.984627   -0.019164
      4          6           0        1.267804   -0.369025   -0.042239
      5         35           0        2.870404   -1.363840   -0.125579
      6          6           0        0.000092   -1.150918   -0.000685
      7          8           0        0.000116   -2.362765   -0.001437
      8          6           0       -1.267730   -0.369195    0.041747
      9          6           0       -1.290499    0.984479    0.018524
     10          8           0       -2.451817    1.639815    0.128914
     11          6           0       -2.718205    2.871062   -0.580856
     12          6           0       -0.000157    1.750086   -0.000332
     13          8           0       -0.000174    2.967415   -0.000436
     14         35           0       -2.870107   -1.364224    0.126231
     15          1           0        2.273930    2.847866    1.578180
     16          1           0        3.802711    2.909536    0.662182
     17          1           0        2.341435    3.727667    0.027774
     18          1           0       -3.803344    2.909347   -0.661637
     19          1           0       -2.342755    3.727296   -0.025661
     20          1           0       -2.274144    2.849669   -1.577126
 ---------------------------------------------------------------------

 SCF Done:  E(UB3LYP) =  -5757.75551153     A.U. after   15 cycles

 The electronic state is 1-A.
 Alpha  occ. eigenvalues -- -482.85118-482.85118 -62.50381 -62.50381 -56.32432
 Alpha  occ. eigenvalues --  -56.32432 -56.32041 -56.32040 -56.31996 -56.31996
 Alpha  occ. eigenvalues --  -19.18679 -19.18676 -19.16396 -19.14793 -10.31542
 Alpha  occ. eigenvalues --  -10.30732 -10.28929 -10.28927 -10.26006 -10.26005
 Alpha  occ. eigenvalues --  -10.23305 -10.23305  -8.71350  -8.71350  -6.54535
 Alpha  occ. eigenvalues --   -6.54534  -6.53226  -6.53226  -6.53094  -6.53094
 Alpha  occ. eigenvalues --   -2.65624  -2.65624  -2.65270  -2.65269  -2.65169
 Alpha  occ. eigenvalues --   -2.65169  -2.64128  -2.64127  -2.64126  -2.64125
 Alpha  occ. eigenvalues --   -1.11875  -1.10300  -1.08705  -1.08151  -0.89065
 Alpha  occ. eigenvalues --   -0.85660  -0.80657  -0.77745  -0.74576  -0.70500
 Alpha  occ. eigenvalues --   -0.70210  -0.62680  -0.61870  -0.57403  -0.55128
 Alpha  occ. eigenvalues --   -0.52928  -0.50777  -0.50457  -0.48709  -0.47550
 Alpha  occ. eigenvalues --   -0.46467  -0.45639  -0.44971  -0.43466  -0.43221
 Alpha  occ. eigenvalues --   -0.42457  -0.39449  -0.38797  -0.36628  -0.36562
 Alpha  occ. eigenvalues --   -0.33570  -0.33417  -0.31058  -0.30945  -0.29845
 Alpha  occ. eigenvalues --   -0.29793  -0.27830  -0.25537
 Alpha virt. eigenvalues --   -0.14533  -0.04133  -0.03383  -0.01499  -0.01268
 Alpha virt. eigenvalues --   -0.00636   0.00730   0.00906   0.02178   0.02676
 Alpha virt. eigenvalues --    0.03265   0.03287   0.04379   0.04552   0.05052

  Beta  occ. eigenvalues -- -482.85118-482.85118 -62.50381 -62.50381 -56.32432
  Beta  occ. eigenvalues --  -56.32432 -56.32041 -56.32040 -56.31996 -56.31996
  Beta  occ. eigenvalues --  -19.18679 -19.18676 -19.16396 -19.14793 -10.31542
  Beta  occ. eigenvalues --  -10.30732 -10.28929 -10.28927 -10.26006 -10.26005
  Beta  occ. eigenvalues --  -10.23305 -10.23305  -8.71350  -8.71350  -6.54535
  Beta  occ. eigenvalues --   -6.54534  -6.53226  -6.53226  -6.53094  -6.53094
  Beta  occ. eigenvalues --   -2.65624  -2.65624  -2.65270  -2.65269  -2.65169
  Beta  occ. eigenvalues --   -2.65169  -2.64128  -2.64127  -2.64126  -2.64125
  Beta  occ. eigenvalues --   -1.11875  -1.10300  -1.08705  -1.08151  -0.89065
  Beta  occ. eigenvalues --   -0.85660  -0.80657  -0.77745  -0.74576  -0.70500
  Beta  occ. eigenvalues --   -0.70210  -0.62680  -0.61870  -0.57403  -0.55128
  Beta  occ. eigenvalues --   -0.52928  -0.50777  -0.50457  -0.48709  -0.47550
  Beta  occ. eigenvalues --   -0.46467  -0.45639  -0.44971  -0.43466  -0.43221
  Beta  occ. eigenvalues --   -0.42457  -0.39449  -0.38797  -0.36628  -0.36562
  Beta  occ. eigenvalues --   -0.33570  -0.33417  -0.31058  -0.30945  -0.29845
  Beta  occ. eigenvalues --   -0.29793  -0.27830  -0.25537
  Beta virt. eigenvalues --   -0.14533  -0.04133  -0.03383  -0.01499  -0.01268
  Beta virt. eigenvalues --   -0.00636   0.00730   0.00906   0.02178   0.02676
  Beta virt. eigenvalues --    0.03265   0.03287   0.04379   0.04552   0.05052

 Mulliken charges and spin densities:
               1          2
     1  C   -0.288928  -0.000000
     2  O   -0.134334   0.000000
     3  C   -0.351952  -0.000000
     4  C    0.568876   0.000000
     5  Br  -0.010640  -0.000000
     6  C   -0.392658  -0.000000
     7  O   -0.221950   0.000000
     8  C    0.564764   0.000000
     9  C   -0.348728  -0.000000
    10  O   -0.134278   0.000000
    11  C   -0.288897   0.000000
    12  C    0.179040  -0.000000
    13  O   -0.225460   0.000000
    14  Br  -0.010647  -0.000000
    15  H    0.180078  -0.000000
    16  H    0.178587  -0.000000
    17  H    0.189215  -0.000000
    18  H    0.178558   0.000000
    19  H    0.189218   0.000000
    20  H    0.180134   0.000000
 Sum of Mulliken charges =  -0.00000  -0.00000

 Dipole moment (field-independent basis, Debye):
    X=             -0.0010    Y=              6.5417    Z=              0.0040  Tot=              6.5417
 Quadrupole moment (field-independent basis, Debye-Ang):
   XX=            -99.5310   YY=           -105.9345   ZZ=           -102.9563
   XY=             -0.0054   XZ=              6.5420   YZ=             -0.0010

 Normal termination of Gaussian 16 at Sun Jan 21 06:52:24 2024.
