 Gaussian 16, Revision A.03,
 Gaussian 16:  ES64L-G16RevA.03 25-Dec-2016

 ----------------------------------------------------------------------
 #P UB3LYP/6-311++G(d,p) nosym opt freq SCRF=(PCM,Solvent=n,n-DiMethylF
 ormamide)
 ----------------------------------------------------------------------

 --------
 Oxidized
 --------
 Symbolic Z-matrix:
 Charge =  0 Multiplicity = 1

 SCF Done:  E(UB3LYP) =  -1300.80668109     A.U. after   15 cycles
 SCF Done:  E(UB3LYP) =  -1300.80675200     A.U. after   12 cycles
 SCF Done:  E(UB3LYP) =  -1300.80675821     A.U. after   12 cycles
 SCF Done:  E(UB3LYP) =  -1300.80675301     A.U. after   13 cycles
 SCF Done:  E(UB3LYP) =  -1300.80675889     A.U. after   11 cycles
 SCF Done:  E(UB3LYP) =  -1300.80675950     A.U. after   10 cycles
 Optimization completed.
    -- Stationary point found.
 Normal termination of Gaussian 16 at Sat Feb 10 10:07:42 2024.

 ----------------------------------------------------------------------
 #P Geom=AllCheck Guess=TCheck SCRF=Check GenChk UB3LYP/6-311++G(d,p) F
 req
 ----------------------------------------------------------------------

 Structure from the checkpoint file:  "009.chk"
 --------
 Oxidized
 --------
 Charge =  0 Multiplicity = 1

                          Input orientation:
 ---------------------------------------------------------------------
 Center     Atomic      Atomic             Coordinates (Angstroms)
 Number     Number       Type             X           Y           Z
 ---------------------------------------------------------------------
      1         17           0        2.306007   -2.058997    0.053746
      2          6           0        1.050456   -0.875557    0.024197
      3          6           0        1.291124    0.451135    0.002332
      4         17           0        2.882642    1.118211    0.002397
      5          6           0        0.162111    1.441334   -0.024408
      6          8           0        0.371643    2.638888   -0.043760
      7          6           0       -1.214212    0.898800   -0.026069
      8          6           0       -1.452543   -0.415359   -0.004090
      9          6           0       -0.354411   -1.406419    0.022922
     10          8           0       -0.579262   -2.601215    0.042870
     11          1           0       -2.008569    1.635076   -0.045532
     12          1           0       -2.454990   -0.825898   -0.004604
 ---------------------------------------------------------------------

 SCF Done:  E(UB3LYP) =  -1300.80675950     A.U. after    2 cycles

 Alpha  occ. eigenvalues -- -101.58760-101.58760 -19.16063 -19.16061 -10.31115
 Alpha  occ. eigenvalues --  -10.31113 -10.28643 -10.28568 -10.22771 -10.22687
 Alpha  occ. eigenvalues --   -9.50203  -9.50202  -7.26691  -7.26690  -7.25712
 Alpha  occ. eigenvalues --   -7.25711  -7.25592  -7.25591  -1.09456  -1.09248
 Alpha  occ. eigenvalues --   -0.94099  -0.88687  -0.86330  -0.77904  -0.72436
 Alpha  occ. eigenvalues --   -0.64483  -0.62907  -0.55543  -0.52743  -0.50335
 Alpha  occ. eigenvalues --   -0.48323  -0.48045  -0.47115  -0.45740  -0.44267
 Alpha  occ. eigenvalues --   -0.43453  -0.40358  -0.36568  -0.35711  -0.33600
 Alpha  occ. eigenvalues --   -0.32659  -0.31222  -0.30390  -0.28880
 Alpha virt. eigenvalues --   -0.15289  -0.04897  -0.02749  -0.01942  -0.00097
 Alpha virt. eigenvalues --    0.01685   0.01985   0.02194   0.04777   0.04808
 Alpha virt. eigenvalues --    0.05621   0.05925   0.07411   0.07757   0.07958

  Beta  occ. eigenvalues -- -101.58760-101.58760 -19.16063 -19.16061 -10.31115
  Beta  occ. eigenvalues --  -10.31113 -10.28643 -10.28568 -10.22771 -10.22687
  Beta  occ. eigenvalues --   -9.50203  -9.50202  -7.26691  -7.26690  -7.25712
  Beta  occ. eigenvalues --   -7.25711  -7.25592  -7.25591  -1.09456  -1.09248
  Beta  occ. eigenvalues --   -0.94099  -0.88687  -0.86330  -0.77904  -0.72436
  Beta  occ. eigenvalues --   -0.64483  -0.62907  -0.55543  -0.52743  -0.50335
  Beta  occ. eigenvalues --   -0.48323  -0.48045  -0.47115  -0.45740  -0.44267
  Beta  occ. eigenvalues --   -0.43453  -0.40358  -0.36568  -0.35711  -0.33600
  Beta  occ. eigenvalues --   -0.32659  -0.31222  -0.30390  -0.28880
  Beta virt. eigenvalues --   -0.15289  -0.04897  -0.02749  -0.01942  -0.00097
  Beta virt. eigenvalues --    0.01685   0.01985   0.02194   0.04777   0.04808
  Beta virt. eigenvalues --    0.05621   0.05925   0.07411   0.07757   0.07958

 Mulliken charges and spin densities:
               1          2
     1  Cl   0.401080   0.000000
     2  C    0.453709   0.000000
     3  C    0.456565  -0.000000
     4  Cl   0.400867   0.000000
     5  C   -0.988042  -0.000000
     6  O   -0.230373  -0.000000
     7  C    0.105312   0.000000
     8  C    0.104901   0.000000
     9  C   -0.988620  -0.000000
    10  O   -0.230528  -0.000000
    11  H    0.257608  -0.000000
    12  H    0.257520   0.000000
 Sum of Mulliken charges =  -0.00000  -0.00000

 Dipole moment (field-independent basis, Debye):
    X=             -2.3542    Y=              0.4297    Z=             -0.0280  Tot=              2.3933
 Quadrupole moment (field-independent basis, Debye-Ang):
   XX=            -64.7135   YY=            -88.7294   ZZ=            -69.0326
   XY=             -4.5090   XZ=              0.1143   YZ=              0.3185

  Exact polarizability: 137.632  14.089 212.660   0.294  -2.511  66.009
 Approx polarizability: 149.255  27.039 293.257   0.056  -3.644  77.741

                      1                      2                      3
                      A                      A                      A
 Frequencies --     72.9543                76.3719               208.0966
 Red. masses --      7.9645                21.7825                30.8891
 Frc consts  --      0.0250                 0.0749                 0.7881
 IR Inten    --     17.8515                 0.0281                 0.0623

                      4                      5                      6
                      A                      A                      A
 Frequencies --    228.2994               253.2693               254.5631
 Red. masses --      8.7058                 4.7348                16.5509
 Frc consts  --      0.2673                 0.1789                 0.6319
 IR Inten    --      1.3652                 0.0556                 1.0425

                      7                      8                      9
                      A                      A                      A
 Frequencies --    354.5381               354.8982               455.6864
 Red. masses --     16.7992                18.2082                11.8046
 Frc consts  --      1.2441                 1.3512                 1.4442
 IR Inten    --      6.1747                 5.1582                 5.4400

                     10                     11                     12
                      A                      A                      A
 Frequencies --    508.3954               538.9967               584.0333
 Red. masses --      9.4923                10.3944                 4.8514
 Frc consts  --      1.4455                 1.7792                 0.9750
 IR Inten    --      0.0011                91.0496                 0.0920

                     13                     14                     15
                      A                      A                      A
 Frequencies --    603.5455               706.2008               789.5571
 Red. masses --      2.3110                 9.1034                10.1631
 Frc consts  --      0.4960                 2.6749                 3.7329
 IR Inten    --      0.8904                 2.9159                 0.0016

                     16                     17                     18
                      A                      A                      A
 Frequencies --    855.4903               861.2298               915.0377
 Red. masses --      2.0428                 9.3570                10.1034
 Frc consts  --      0.8808                 4.0891                 4.9842
 IR Inten    --     76.6944                18.0181               105.4281

                     19                     20                     21
                      A                      A                      A
 Frequencies --   1002.9820              1032.1342              1118.3390
 Red. masses --      1.2403                 5.8964                 1.5385
 Frc consts  --      0.7351                 3.7009                 1.1337
 IR Inten    --      0.0034               365.3445                55.5478

                     22                     23                     24
                      A                      A                      A
 Frequencies --   1232.6078              1283.7574              1382.4938
 Red. masses --      4.6261                 2.6477                 1.6815
 Frc consts  --      4.1411                 2.5709                 1.8936
 IR Inten    --    188.4506               154.0237                 0.2135

                     25                     26                     27
                      A                      A                      A
 Frequencies --   1597.2790              1680.6494              1713.7831
 Red. masses --     11.6627                 8.1219                12.2058
 Frc consts  --     17.5312                13.5165                21.1216
 IR Inten    --    229.8558                 0.2628              1127.6490

                     28                     29                     30
                      A                      A                      A
 Frequencies --   1722.6259              3194.1862              3209.2390
 Red. masses --     11.2464                 1.0880                 1.1001
 Frc consts  --     19.6627                 6.5404                 6.6756
 IR Inten    --      9.3359                 0.4974                 0.0268

 - Thermochemistry -
 -------------------
 Temperature   298.150 Kelvin.  Pressure   1.00000 Atm.
 Atom     1 has atomic number 17 and mass  34.96885

 Molecular mass:   175.94318 amu.
 Principal axes and moments of inertia in atomic units:
                           1         2         3
     Eigenvalues --  1466.685021729.439973196.12463
           X            0.17838   0.98393  -0.00763
           Y            0.98383  -0.17823   0.01779
           Z           -0.01614   0.01068   0.99981
 This molecule is an asymmetric top.
 Rotational symmetry number  1.
 Warning -- assumption of classical behavior for rotation
           may cause significant error
 Rotational temperatures (Kelvin)      0.05905     0.05008     0.02710
 Rotational constants (GHZ):           1.23049     1.04354     0.56467
 Zero-point vibrational energy     172209.9 (Joules/Mol)
                                   41.15914 (Kcal/Mol)
 Warning -- explicit consideration of  13 degrees of freedom as
           vibrations may cause significant error
 Vibrational temperatures:    104.96   109.88   299.40   328.47   364.40
          (Kelvin)            366.26   510.10   510.62   655.63   731.47
                              775.50   840.29   868.37  1016.07  1136.00
                             1230.86  1239.12  1316.54  1443.07  1485.01
                             1609.04  1773.45  1847.04  1989.10  2298.13
                             2418.08  2465.75  2478.47  4595.72  4617.38

 Zero-point correction=                           0.065591 (Hartree/Particle)
 Thermal correction to Energy=                    0.074238
 Thermal correction to Enthalpy=                  0.075183
 Thermal correction to Gibbs Free Energy=         0.030616
 Sum of electronic and zero-point Energies=          -1300.741168
 Sum of electronic and thermal Energies=             -1300.732521
 Sum of electronic and thermal Enthalpies=           -1300.731577
 Sum of electronic and thermal Free Energies=        -1300.776144

                     E (Thermal)             CV                S
                      KCal/Mol        Cal/Mol-Kelvin    Cal/Mol-Kelvin
 Total                   46.585             30.677             93.799
 Electronic               0.000              0.000              0.000
 Translational            0.889              2.981             41.402
 Rotational               0.889              2.981             30.473
 Vibrational             44.808             24.715             21.924
 Vibration     1          0.599              1.967              4.072
 Vibration     2          0.599              1.965              3.982
 Vibration     3          0.641              1.828              2.060
 Vibration     4          0.651              1.798              1.892
 Vibration     5          0.664              1.757              1.708
 Vibration     6          0.665              1.755              1.699
 Vibration     7          0.730              1.566              1.146
 Vibration     8          0.731              1.565              1.144
 Vibration     9          0.814              1.348              0.779
 Vibration    10          0.864              1.231              0.637
 Vibration    11          0.894              1.164              0.567
 Vibration    12          0.941              1.066              0.478
 Vibration    13          0.962              1.024              0.444

 Optimization completed.
    -- Stationary point found.
 Normal termination of Gaussian 16 at Sat Feb 10 10:11:20 2024.
