 Q-Chem 5.4, Q-Chem, Inc., Pleasanton, CA (2021)
 Q-Chem 5.4.0 for Intel X86 EM64T Linux

User input:
--------------------------------------------------------------
$molecule
0 1
C                 -1.9510880000      3.0658200000      0.0477070000
C                 -2.9247350000      2.3558030000     -0.6480240000
C                 -2.6407030000      1.0801550000     -1.1390410000
C                 -0.6916900000      2.4965500000      0.2508930000
C                 -0.4029650000      1.2133270000     -0.2417100000
C                 -1.3851170000      0.5100110000     -0.9368560000
C                  0.3504870000      3.2354990000      0.9863830000
C                  1.6795160000      2.5846540000      1.1705380000
C                  1.9788270000      1.3439040000      0.7131050000
C                  0.9475230000      0.5887490000     -0.0289660000
O                  0.1937000000      4.3561680000      1.4581640000
O                  1.1799070000     -0.5305690000     -0.4640390000
H                 -2.1478040000      4.0566180000      0.4386010000
H                 -3.9030430000      2.7939250000     -0.8082170000
H                 -3.4006100000      0.5285800000     -1.6809180000
H                 -1.1482830000     -0.4783520000     -1.3106770000
C                  3.3317980000      0.7180380000      0.9032560000
O                  2.5655100000      3.3371410000      1.8432320000
H                  3.2009870000     -0.3605450000      1.0208420000
H                  3.7817600000      1.1090590000      1.8193590000
H                  2.1003340000      4.1650980000      2.0690110000
C                  4.2834760000      0.9791140000     -0.2842480000
C                  5.6573310000      0.3299080000     -0.0896030000
C                  6.6188030000      0.5782980000     -1.2574280000
C                  7.9908740000     -0.0725730000     -1.0589490000
H                  4.4036320000      2.0603170000     -0.4170680000
H                  3.8231200000      0.5949590000     -1.2006680000
H                  5.5299130000     -0.7512290000      0.0499980000
H                  6.1094950000      0.7069430000      0.8370040000
H                  6.7442060000      1.6588420000     -1.3977620000
H                  6.1663230000      0.2016480000     -2.1826670000
H                  8.4837250000      0.3095440000     -0.1593020000
H                  8.6521140000      0.1227780000     -1.9077730000
H                  7.9016060000     -1.1581200000     -0.9505380000
$end

$rem
BASIS  =  6-311++G(d,p)
GUI  =  2
JOB_TYPE  =  SP
METHOD  =  B3LYP
SCF_CONVERGENCE  = 8
SOLVENT_METHOD = sm12
$end

$smx
solvent dimethylformamide
charges CM5
$end

--------------------------------------------------------------

             Standard Nuclear Orientation (Angstroms)
    I     Atom           X                Y                Z
 ----------------------------------------------------------------
    1      C      -1.9510880000     3.0658200000     0.0477070000
    2      C      -2.9247350000     2.3558030000    -0.6480240000
    3      C      -2.6407030000     1.0801550000    -1.1390410000
    4      C      -0.6916900000     2.4965500000     0.2508930000
    5      C      -0.4029650000     1.2133270000    -0.2417100000
    6      C      -1.3851170000     0.5100110000    -0.9368560000
    7      C       0.3504870000     3.2354990000     0.9863830000
    8      C       1.6795160000     2.5846540000     1.1705380000
    9      C       1.9788270000     1.3439040000     0.7131050000
   10      C       0.9475230000     0.5887490000    -0.0289660000
   11      O       0.1937000000     4.3561680000     1.4581640000
   12      O       1.1799070000    -0.5305690000    -0.4640390000
   13      H      -2.1478040000     4.0566180000     0.4386010000
   14      H      -3.9030430000     2.7939250000    -0.8082170000
   15      H      -3.4006100000     0.5285800000    -1.6809180000
   16      H      -1.1482830000    -0.4783520000    -1.3106770000
   17      C       3.3317980000     0.7180380000     0.9032560000
   18      O       2.5655100000     3.3371410000     1.8432320000
   19      H       3.2009870000    -0.3605450000     1.0208420000
   20      H       3.7817600000     1.1090590000     1.8193590000
   21      H       2.1003340000     4.1650980000     2.0690110000
   22      C       4.2834760000     0.9791140000    -0.2842480000
   23      C       5.6573310000     0.3299080000    -0.0896030000
   24      C       6.6188030000     0.5782980000    -1.2574280000
   25      C       7.9908740000    -0.0725730000    -1.0589490000
   26      H       4.4036320000     2.0603170000    -0.4170680000
   27      H       3.8231200000     0.5949590000    -1.2006680000
   28      H       5.5299130000    -0.7512290000     0.0499980000
   29      H       6.1094950000     0.7069430000     0.8370040000
   30      H       6.7442060000     1.6588420000    -1.3977620000
   31      H       6.1663230000     0.2016480000    -2.1826670000
   32      H       8.4837250000     0.3095440000    -0.1593020000
   33      H       8.6521140000     0.1227780000    -1.9077730000
   34      H       7.9016060000    -1.1581200000    -0.9505380000
 ----------------------------------------------------------------

   15    -807.1460039318      9.48e-09  Convergence criterion met
 Total energy in the final basis set =     -807.1668660328

                    Orbital Energies (a.u.)
 --------------------------------------------------------------

 Alpha MOs
 -- Occupied --
-19.1789 -19.1485 -19.1261 -10.2924 -10.2783 -10.2674 -10.2107 -10.2093
-10.2043 -10.2007 -10.1987 -10.1970 -10.1968 -10.1773 -10.1698 -10.1659
-10.1650 -10.1576  -1.1089  -1.0667  -1.0594  -0.8920  -0.8448  -0.8080
 -0.7847  -0.7791  -0.7499  -0.7063  -0.6799  -0.6550  -0.6339  -0.6063
 -0.5990  -0.5810  -0.5735  -0.5420  -0.5178  -0.4967  -0.4809  -0.4760
 -0.4717  -0.4643  -0.4522  -0.4497  -0.4399  -0.4284  -0.4260  -0.4171
 -0.4144  -0.4027  -0.3997  -0.3845  -0.3762  -0.3749  -0.3695  -0.3626
 -0.3415  -0.3349  -0.3306  -0.3272  -0.3020  -0.2890  -0.2792  -0.2766
 -0.2575

          Ground-State Mulliken Net Atomic Charges

     Atom                 Charge (a.u.)
  ----------------------------------------
      1 C                     0.486435
      2 C                     0.396023
      3 C                     0.413807
      4 C                     0.342673
      5 C                    -0.502926
      6 C                     0.007451
      7 C                    -0.987230
      8 C                    -0.535313
      9 C                     1.440319
     10 C                    -1.540966
     11 O                    -0.291860
     12 O                    -0.286616
     13 H                     0.218914
     14 H                     0.329627
     15 H                     0.317321
     16 H                     0.185377
     17 C                    -0.231072
     18 O                    -0.198036
     19 H                     0.177658
     20 H                     0.222615
     21 H                     0.294423
     22 C                    -0.459491
     23 C                    -0.096564
     24 C                    -0.217428
     25 C                    -0.610668
     26 H                     0.133473
     27 H                     0.110296
     28 H                     0.096169
     29 H                     0.099143
     30 H                     0.125902
     31 H                     0.122606
     32 H                     0.140496
     33 H                     0.157435
     34 H                     0.140008
  ----------------------------------------
  Sum of atomic charges =     0.000000

                    Cartesian Multipole Moments
 -----------------------------------------------------------------
    Charge (ESU x 10^10)
                -0.0000
    Dipole Moment (Debye)
         X      -2.7848      Y       0.8963      Z      -0.8279
       Tot       3.0404
    Quadrupole Moments (Debye-Ang)
        XX     -96.9097     XY      -2.4618     YY    -112.1222
        XZ       4.2527     YZ      -2.9339     ZZ    -108.3944

 Total job time:  864.35s(wall), 6764.86s(cpu)
        *  Thank you very much for using Q-Chem.  Have a nice day.  *
