 Gaussian 16, Revision A.03,
 Gaussian 16:  ES64L-G16RevA.03 25-Dec-2016

 --------------------------------------
 #P UB3LYP/6-311++G(d,p) nosym opt freq
 --------------------------------------

 --------
 Oxidized
 --------
 Symbolic Z-matrix:
 Charge =  0 Multiplicity = 1

 SCF Done:  E(UB3LYP) =  -807.140960585     A.U. after   16 cycles
 SCF Done:  E(UB3LYP) =  -807.140970303     A.U. after   11 cycles
 SCF Done:  E(UB3LYP) =  -807.140971731     A.U. after   11 cycles
 SCF Done:  E(UB3LYP) =  -807.140990072     A.U. after   11 cycles
 SCF Done:  E(UB3LYP) =  -807.140994192     A.U. after   11 cycles
 SCF Done:  E(UB3LYP) =  -807.141156136     A.U. after   16 cycles
 SCF Done:  E(UB3LYP) =  -807.141159714     A.U. after   17 cycles
 SCF Done:  E(UB3LYP) =  -807.141440071     A.U. after   13 cycles
 SCF Done:  E(UB3LYP) =  -807.141960992     A.U. after   13 cycles
 SCF Done:  E(UB3LYP) =  -807.144081581     A.U. after   16 cycles
 SCF Done:  E(UB3LYP) =  -807.144333765     A.U. after   16 cycles
 SCF Done:  E(UB3LYP) =  -807.145885709     A.U. after   15 cycles
 SCF Done:  E(UB3LYP) =  -807.146407222     A.U. after   14 cycles
 SCF Done:  E(UB3LYP) =  -807.146627820     A.U. after   13 cycles
 SCF Done:  E(UB3LYP) =  -807.146875650     A.U. after   15 cycles
 SCF Done:  E(UB3LYP) =  -807.146906128     A.U. after   13 cycles
 SCF Done:  E(UB3LYP) =  -807.146922529     A.U. after   12 cycles
 SCF Done:  E(UB3LYP) =  -807.146923035     A.U. after   10 cycles
 SCF Done:  E(UB3LYP) =  -807.146923101     A.U. after   10 cycles
 Optimization completed.
    -- Stationary point found.
 Normal termination of Gaussian 16 at Fri Jan 19 05:13:08 2024.

 ----------------------------------------------------------------------
 #P Geom=AllCheck Guess=TCheck SCRF=Check GenChk UB3LYP/6-311++G(d,p) F
 req
 ----------------------------------------------------------------------

 Structure from the checkpoint file:  "283.chk"
 --------
 Oxidized
 --------
 Charge =  0 Multiplicity = 1

                          Input orientation:
 ---------------------------------------------------------------------
 Center     Atomic      Atomic             Coordinates (Angstroms)
 Number     Number       Type             X           Y           Z
 ---------------------------------------------------------------------
      1          6           0       -1.951088    3.065820    0.047707
      2          6           0       -2.924735    2.355803   -0.648024
      3          6           0       -2.640703    1.080155   -1.139041
      4          6           0       -0.691690    2.496550    0.250893
      5          6           0       -0.402965    1.213327   -0.241710
      6          6           0       -1.385117    0.510011   -0.936856
      7          6           0        0.350487    3.235499    0.986383
      8          6           0        1.679516    2.584654    1.170538
      9          6           0        1.978827    1.343904    0.713105
     10          6           0        0.947523    0.588749   -0.028966
     11          8           0        0.193700    4.356168    1.458164
     12          8           0        1.179907   -0.530569   -0.464039
     13          1           0       -2.147804    4.056618    0.438601
     14          1           0       -3.903043    2.793925   -0.808217
     15          1           0       -3.400610    0.528580   -1.680918
     16          1           0       -1.148283   -0.478352   -1.310677
     17          6           0        3.331798    0.718038    0.903256
     18          8           0        2.565510    3.337141    1.843232
     19          1           0        3.200987   -0.360545    1.020842
     20          1           0        3.781760    1.109059    1.819359
     21          1           0        2.100334    4.165098    2.069011
     22          6           0        4.283476    0.979114   -0.284248
     23          6           0        5.657331    0.329908   -0.089603
     24          6           0        6.618803    0.578298   -1.257428
     25          6           0        7.990874   -0.072573   -1.058949
     26          1           0        4.403632    2.060317   -0.417068
     27          1           0        3.823120    0.594959   -1.200668
     28          1           0        5.529913   -0.751229    0.049998
     29          1           0        6.109495    0.706943    0.837004
     30          1           0        6.744206    1.658842   -1.397762
     31          1           0        6.166323    0.201648   -2.182667
     32          1           0        8.483725    0.309544   -0.159302
     33          1           0        8.652114    0.122778   -1.907773
     34          1           0        7.901606   -1.158120   -0.950538
 ---------------------------------------------------------------------

 SCF Done:  E(UB3LYP) =  -807.146923101     A.U. after    1 cycles

 Alpha  occ. eigenvalues --  -19.17895 -19.15006 -19.12606 -10.29396 -10.27815
 Alpha  occ. eigenvalues --  -10.26755 -10.21575 -10.21394 -10.20798 -10.20782
 Alpha  occ. eigenvalues --  -10.20655 -10.20496 -10.20313 -10.17640 -10.16806
 Alpha  occ. eigenvalues --  -10.16404 -10.16321 -10.15657  -1.10946  -1.06765
 Alpha  occ. eigenvalues --   -1.05887  -0.89793  -0.84636  -0.80836  -0.78768
 Alpha  occ. eigenvalues --   -0.78509  -0.75038  -0.70735  -0.68196  -0.65874
 Alpha  occ. eigenvalues --   -0.63639  -0.61014  -0.59922  -0.57911  -0.57746
 Alpha  occ. eigenvalues --   -0.54412  -0.52192  -0.50138  -0.48551  -0.47665
 Alpha  occ. eigenvalues --   -0.47294  -0.46695  -0.45872  -0.44949  -0.44099
 Alpha  occ. eigenvalues --   -0.42782  -0.42554  -0.41833  -0.41464  -0.40670
 Alpha  occ. eigenvalues --   -0.39992  -0.38821  -0.38007  -0.37683  -0.37544
 Alpha  occ. eigenvalues --   -0.36140  -0.33973  -0.33334  -0.32945  -0.32498
 Alpha  occ. eigenvalues --   -0.30290  -0.29403  -0.28526  -0.27569  -0.25846
 Alpha virt. eigenvalues --   -0.12652  -0.06065  -0.03087  -0.01291  -0.00518
 Alpha virt. eigenvalues --    0.00065   0.00967   0.01176   0.01630   0.02158
 Alpha virt. eigenvalues --    0.02399   0.02751   0.03296   0.03679   0.04619

  Beta  occ. eigenvalues --  -19.17895 -19.15006 -19.12606 -10.29396 -10.27815
  Beta  occ. eigenvalues --  -10.26755 -10.21575 -10.21394 -10.20798 -10.20782
  Beta  occ. eigenvalues --  -10.20655 -10.20496 -10.20313 -10.17640 -10.16806
  Beta  occ. eigenvalues --  -10.16404 -10.16321 -10.15657  -1.10946  -1.06765
  Beta  occ. eigenvalues --   -1.05887  -0.89793  -0.84636  -0.80836  -0.78768
  Beta  occ. eigenvalues --   -0.78509  -0.75038  -0.70735  -0.68196  -0.65874
  Beta  occ. eigenvalues --   -0.63639  -0.61014  -0.59922  -0.57911  -0.57746
  Beta  occ. eigenvalues --   -0.54412  -0.52192  -0.50138  -0.48551  -0.47665
  Beta  occ. eigenvalues --   -0.47294  -0.46695  -0.45872  -0.44949  -0.44099
  Beta  occ. eigenvalues --   -0.42782  -0.42554  -0.41833  -0.41464  -0.40670
  Beta  occ. eigenvalues --   -0.39992  -0.38821  -0.38007  -0.37683  -0.37544
  Beta  occ. eigenvalues --   -0.36140  -0.33973  -0.33334  -0.32945  -0.32498
  Beta  occ. eigenvalues --   -0.30290  -0.29403  -0.28526  -0.27569  -0.25846
  Beta virt. eigenvalues --   -0.12652  -0.06065  -0.03087  -0.01291  -0.00518
  Beta virt. eigenvalues --    0.00065   0.00967   0.01176   0.01630   0.02158
  Beta virt. eigenvalues --    0.02399   0.02751   0.03296   0.03679   0.04619

 Mulliken charges and spin densities:
               1          2
     1  C    0.237959  -0.000000
     2  C   -0.347475   0.000000
     3  C   -0.318544  -0.000000
     4  C    0.291742  -0.000000
     5  C    0.086887   0.000000
     6  C    0.164872  -0.000000
     7  C   -0.774268  -0.000000
     8  C   -0.507088   0.000000
     9  C    1.875980   0.000000
    10  C   -0.923287   0.000000
    11  O   -0.277362   0.000000
    12  O   -0.209960  -0.000000
    13  H    0.187258  -0.000000
    14  H    0.179309   0.000000
    15  H    0.177805   0.000000
    16  H    0.190120  -0.000000
    17  C   -0.333043  -0.000000
    18  O   -0.196487  -0.000000
    19  H    0.220331  -0.000000
    20  H    0.225601  -0.000000
    21  H    0.288248   0.000000
    22  C   -0.469875   0.000000
    23  C   -0.177906  -0.000000
    24  C   -0.166868   0.000000
    25  C   -0.640618   0.000000
    26  H    0.159754   0.000000
    27  H    0.168533   0.000000
    28  H    0.112330   0.000000
    29  H    0.106931   0.000000
    30  H    0.126866  -0.000000
    31  H    0.128727  -0.000000
    32  H    0.135799   0.000000
    33  H    0.140583   0.000000
    34  H    0.137147  -0.000000
 Sum of Mulliken charges =  -0.00000   0.00000

 Dipole moment (field-independent basis, Debye):
    X=             -1.9846    Y=              0.6831    Z=             -0.6482  Tot=              2.1967
 Quadrupole moment (field-independent basis, Debye-Ang):
   XX=            -99.0190   YY=           -112.4056   ZZ=           -108.5001
   XY=             -1.2378   XZ=              3.4772   YZ=             -2.5654

  Exact polarizability: 246.461 -23.286 193.080  19.715  34.521 141.148
 Approx polarizability: 313.594 -28.750 374.988  34.882  83.125 230.848

                      1                      2                      3
                      A                      A                      A
 Frequencies --     22.7061                34.9292                48.3458
 Red. masses --      4.6832                 5.4986                 1.6726
 Frc consts  --      0.0014                 0.0040                 0.0023
 IR Inten    --      0.2244                 1.3023                 0.0336

                      4                      5                      6
                      A                      A                      A
 Frequencies --     74.2811                97.7729               108.3313
 Red. masses --      7.3707                 2.4783                 4.5759
 Frc consts  --      0.0240                 0.0140                 0.0316
 IR Inten    --      3.2359                 0.2058                 0.0907

                      7                      8                      9
                      A                      A                      A
 Frequencies --    127.2307               134.4717               155.7602
 Red. masses --      6.0040                 1.8301                 4.3801
 Frc consts  --      0.0573                 0.0195                 0.0626
 IR Inten    --      0.0212                 0.0088                 0.2751

                     10                     11                     12
                      A                      A                      A
 Frequencies --    183.6053               243.9773               251.8399
 Red. masses --      5.6358                 1.1291                 4.1718
 Frc consts  --      0.1119                 0.0396                 0.1559
 IR Inten    --      0.2549                 0.0086                 0.1934

                     13                     14                     15
                      A                      A                      A
 Frequencies --    282.6692               303.6530               346.2043
 Red. masses --      4.6917                 2.9731                 4.2748
 Frc consts  --      0.2209                 0.1615                 0.3019
 IR Inten    --      0.4083                 2.0149                 2.7382

                     16                     17                     18
                      A                      A                      A
 Frequencies --    358.2715               388.6616               412.5361
 Red. masses --      4.6440                 9.7517                 3.6104
 Frc consts  --      0.3512                 0.8679                 0.3620
 IR Inten    --      6.4822                20.5413                 2.3238

                     19                     20                     21
                      A                      A                      A
 Frequencies --    419.7287               440.0111               445.9346
 Red. masses --      9.5758                 4.1506                 5.1574
 Frc consts  --      0.9939                 0.4735                 0.6043
 IR Inten    --      7.1905                 5.8569                 4.0990

                     22                     23                     24
                      A                      A                      A
 Frequencies --    477.6192               523.3745               589.0644
 Red. masses --      5.5899                 7.6087                 5.9532
 Frc consts  --      0.7513                 1.2280                 1.2171
 IR Inten    --      4.5222                 3.0707                 6.8520

                     25                     26                     27
                      A                      A                      A
 Frequencies --    647.0012               653.1510               677.3106
 Red. masses --      1.1607                 5.5355                 6.0673
 Frc consts  --      0.2863                 1.3913                 1.6399
 IR Inten    --     68.0365                 8.3371                 2.7488

                     28                     29                     30
                      A                      A                      A
 Frequencies --    707.4793               712.8229               734.6569
 Red. masses --      3.4141                 4.5168                 1.1342
 Frc consts  --      1.0068                 1.3522                 0.3607
 IR Inten    --      2.9579                 3.6016                 6.1863

                     31                     32                     33
                      A                      A                      A
 Frequencies --    735.8457               758.7895               760.8285
 Red. masses --      2.4176                 1.3824                 5.0053
 Frc consts  --      0.7713                 0.4690                 1.7071
 IR Inten    --     75.3331                 0.0877                 2.9580

                     34                     35                     36
                      A                      A                      A
 Frequencies --    805.5651               826.2057               886.4666
 Red. masses --      1.8830                 1.6833                 2.0878
 Frc consts  --      0.7199                 0.6770                 0.9666
 IR Inten    --     12.3657                 2.4927                14.4116

                     37                     38                     39
                      A                      A                      A
 Frequencies --    896.2650               912.5381               957.7894
 Red. masses --      2.1097                 1.3218                 4.3320
 Frc consts  --      0.9985                 0.6485                 2.3414
 IR Inten    --      1.0986                 0.0114                35.5684

                     40                     41                     42
                      A                      A                      A
 Frequencies --    978.1926               997.4345              1000.4024
 Red. masses --      1.4904                 1.4454                 3.3251
 Frc consts  --      0.8402                 0.8472                 1.9606
 IR Inten    --      1.4686                 2.6234                10.7100

                     43                     44                     45
                      A                      A                      A
 Frequencies --   1016.3040              1027.8135              1040.7230
 Red. masses --      1.3260                 3.4353                 2.9851
 Frc consts  --      0.8069                 2.1382                 1.9049
 IR Inten    --      0.1280                25.5341                15.8315

                     46                     47                     48
                      A                      A                      A
 Frequencies --   1056.0517              1063.2304              1110.2215
 Red. masses --      2.0021                 2.4097                 2.2087
 Frc consts  --      1.3155                 1.6050                 1.6040
 IR Inten    --      1.9754                 0.4516                 1.6137

                     49                     50                     51
                      A                      A                      A
 Frequencies --   1124.7213              1134.7421              1182.2629
 Red. masses --      2.2761                 1.7504                 1.1840
 Frc consts  --      1.6964                 1.3279                 0.9751
 IR Inten    --     11.9939                29.7558                21.6650

                     52                     53                     54
                      A                      A                      A
 Frequencies --   1195.5185              1224.4073              1240.2645
 Red. masses --      2.2714                 2.0018                 1.8558
 Frc consts  --      1.9127                 1.7682                 1.6820
 IR Inten    --     30.5349                 9.2881                95.6194

                     55                     56                     57
                      A                      A                      A
 Frequencies --   1266.0229              1287.6417              1296.7099
 Red. masses --      1.2874                 1.6940                 1.7064
 Frc consts  --      1.2158                 1.6548                 1.6906
 IR Inten    --      3.3577                53.0673               134.3421

                     58                     59                     60
                      A                      A                      A
 Frequencies --   1308.6775              1323.4701              1333.4302
 Red. masses --      1.9357                 1.9567                 1.0543
 Frc consts  --      1.9532                 2.0193                 1.1045
 IR Inten    --     67.6867               117.1443                 3.3703

                     61                     62                     63
                      A                      A                      A
 Frequencies --   1338.6416              1343.8865              1366.8740
 Red. masses --      1.4279                 1.5706                 6.3132
 Frc consts  --      1.5076                 1.6713                 6.9496
 IR Inten    --      2.7068                30.4640                65.6510

                     64                     65                     66
                      A                      A                      A
 Frequencies --   1377.2896              1396.3134              1401.3759
 Red. masses --      1.4092                 1.5880                 2.0731
 Frc consts  --      1.5750                 1.8242                 2.3988
 IR Inten    --      1.8004                24.4057               319.9789

                     67                     68                     69
                      A                      A                      A
 Frequencies --   1412.6350              1479.5964              1485.6679
 Red. masses --      1.2417                 1.2000                 1.7061
 Frc consts  --      1.4599                 1.5478                 2.2187
 IR Inten    --      4.0725                 5.2290                 7.3810

                     70                     71                     72
                      A                      A                      A
 Frequencies --   1487.1523              1491.1016              1499.6515
 Red. masses --      1.2124                 1.0761                 1.0397
 Frc consts  --      1.5799                 1.4096                 1.3776
 IR Inten    --      4.0091                 2.2186                 7.9871

                     73                     74                     75
                      A                      A                      A
 Frequencies --   1501.6261              1506.6478              1512.0744
 Red. masses --      1.0792                 2.6464                 1.0926
 Frc consts  --      1.4338                 3.5394                 1.4719
 IR Inten    --      0.8600                 3.8705                 9.9532

                     76                     77                     78
                      A                      A                      A
 Frequencies --   1613.4811              1627.8598              1690.6134
 Red. masses --      6.6598                 5.9403                 7.9827
 Frc consts  --     10.2151                 9.2746                13.4428
 IR Inten    --      2.0675                79.2173                46.8131

                     79                     80                     81
                      A                      A                      A
 Frequencies --   1702.2281              1704.6511              2994.7503
 Red. masses --     11.2015                11.2690                 1.0577
 Frc consts  --     19.1232                19.2932                 5.5889
 IR Inten    --     56.8884               406.5656                 8.4148

                     82                     83                     84
                      A                      A                      A
 Frequencies --   3005.7285              3014.9728              3017.0522
 Red. masses --      1.0593                 1.0939                 1.0368
 Frc consts  --      5.6388                 5.8584                 5.5603
 IR Inten    --     25.0823                 4.6129                39.6253

                     85                     86                     87
                      A                      A                      A
 Frequencies --   3019.4867              3036.7818              3047.3371
 Red. masses --      1.0640                 1.1029                 1.0590
 Frc consts  --      5.7155                 5.9927                 5.7944
 IR Inten    --     39.0810                11.4422                31.1080

                     88                     89                     90
                      A                      A                      A
 Frequencies --   3058.3088              3078.0797              3082.2094
 Red. masses --      1.1037                 1.1026                 1.1009
 Frc consts  --      6.0822                 6.1548                 6.1622
 IR Inten    --     23.8790                63.3447                44.8532

                     91                     92                     93
                      A                      A                      A
 Frequencies --   3094.3862              3171.6946              3185.7623
 Red. masses --      1.1056                 1.0871                 1.0915
 Frc consts  --      6.2373                 6.4429                 6.5268
 IR Inten    --     15.5843                 3.1528                 8.2267

                     94                     95                     96
                      A                      A                      A
 Frequencies --   3199.5413              3202.9660              3617.7963
 Red. masses --      1.0933                 1.0947                 1.0642
 Frc consts  --      6.5943                 6.6171                 8.2068
 IR Inten    --      1.6569                 8.3355               150.9018

 - Thermochemistry -
 -------------------
 Temperature   298.150 Kelvin.  Pressure   1.00000 Atm.
 Atom     1 has atomic number  6 and mass  12.00000

 Molecular mass:   244.10994 amu.
 Principal axes and moments of inertia in atomic units:
                           1         2         3
     Eigenvalues --  2164.336119011.17235**********
           X            0.97273   0.21361  -0.09040
           Y           -0.22694   0.79593  -0.56125
           Z           -0.04793   0.56646   0.82270
 This molecule is an asymmetric top.
 Rotational symmetry number  1.
 Warning -- assumption of classical behavior for rotation
           may cause significant error
 Rotational temperatures (Kelvin)      0.04002     0.00961     0.00816
 Rotational constants (GHZ):           0.83385     0.20028     0.17004
 Zero-point vibrational energy     730428.8 (Joules/Mol)
                                  174.57667 (Kcal/Mol)
 Warning -- explicit consideration of  24 degrees of freedom as
           vibrations may cause significant error
 Vibrational temperatures:     32.67    50.26    69.56   106.87   140.67
          (Kelvin)            155.86   183.06   193.47   224.10   264.17
                              351.03   362.34   406.70   436.89   498.11
                              515.47   559.20   593.55   603.90   633.08
                              641.60   687.19   753.02   847.53   930.89
                              939.74   974.50  1017.90  1025.59  1057.01
                             1058.72  1091.73  1094.66  1159.03  1188.73
                             1275.43  1289.53  1312.94  1378.05  1407.40
                             1435.09  1439.36  1462.23  1478.79  1497.37
                             1519.42  1529.75  1597.36  1618.22  1632.64
                             1701.01  1720.08  1761.65  1784.46  1821.52
                             1852.63  1865.68  1882.90  1904.18  1918.51
                             1926.01  1933.55  1966.63  1981.61  2008.98
                             2016.27  2032.47  2128.81  2137.54  2139.68
                             2145.36  2157.66  2160.50  2167.73  2175.54
                             2321.44  2342.13  2432.42  2449.13  2452.61
                             4308.78  4324.57  4337.87  4340.87  4344.37
                             4369.25  4384.44  4400.22  4428.67  4434.61
                             4452.13  4563.36  4583.60  4603.43  4608.35
                             5205.20

 Zero-point correction=                           0.278206 (Hartree/Particle)
 Thermal correction to Energy=                    0.294996
 Thermal correction to Enthalpy=                  0.295940
 Thermal correction to Gibbs Free Energy=         0.232051
 Sum of electronic and zero-point Energies=           -806.868717
 Sum of electronic and thermal Energies=              -806.851927
 Sum of electronic and thermal Enthalpies=            -806.850983
 Sum of electronic and thermal Free Energies=         -806.914872

                     E (Thermal)             CV                S
                      KCal/Mol        Cal/Mol-Kelvin    Cal/Mol-Kelvin
 Total                  185.113             63.500            134.466
 Electronic               0.000              0.000              0.000
 Translational            0.889              2.981             42.378
 Rotational               0.889              2.981             33.692
 Vibrational            183.335             57.539             58.396
 Vibration     1          0.593              1.985              6.382
 Vibration     2          0.594              1.983              5.528
 Vibration     3          0.595              1.978              4.884
 Vibration     4          0.599              1.966              4.037
 Vibration     5          0.603              1.951              3.498
 Vibration     6          0.606              1.943              3.299
 Vibration     7          0.611              1.926              2.987
 Vibration     8          0.613              1.919              2.881
 Vibration     9          0.620              1.896              2.601
 Vibration    10          0.631              1.862              2.291
 Vibration    11          0.659              1.773              1.774
 Vibration    12          0.664              1.760              1.718
 Vibration    13          0.682              1.706              1.517
 Vibration    14          0.695              1.667              1.397
 Vibration    15          0.724              1.583              1.183
 Vibration    16          0.733              1.558              1.130
 Vibration    17          0.757              1.494              1.005
 Vibration    18          0.776              1.443              0.918
 Vibration    19          0.782              1.427              0.893
 Vibration    20          0.800              1.383              0.827
 Vibration    21          0.805              1.370              0.808
 Vibration    22          0.834              1.300              0.717
 Vibration    23          0.878              1.198              0.602
 Vibration    24          0.946              1.055              0.469

 Optimization completed.
    -- Stationary point found.
 Normal termination of Gaussian 16 at Fri Jan 19 06:01:25 2024.
