 Gaussian 16, Revision A.03,
 Gaussian 16:  ES64L-G16RevA.03 25-Dec-2016

 ----------------------------------------------------------------
 #P UB3LYP/6-311++G(d,p) SCRF=(PCM,Solvent=n,n-DiMethylFormamide)
 ----------------------------------------------------------------

 ------------------
 Quinone PCM in DMF
 ------------------
 Symbolic Z-matrix:
 Charge =  0 Multiplicity = 1

                         Standard orientation:
 ---------------------------------------------------------------------
 Center     Atomic      Atomic             Coordinates (Angstroms)
 Number     Number       Type             X           Y           Z
 ---------------------------------------------------------------------
      1          6           0       -1.951836   -1.723760   -0.031988
      2          6           0       -3.310436   -1.439485    0.052057
      3          6           0       -3.746118   -0.113401    0.109699
      4          6           0       -1.019324   -0.681083   -0.047417
      5          6           0       -1.458626    0.649076    0.011538
      6          6           0       -2.823033    0.928125    0.086475
      7          6           0        0.428317   -1.010688   -0.168897
      8          6           0        1.424576    0.124986   -0.026090
      9          6           0        0.947152    1.409662   -0.007735
     10          6           0       -0.462227    1.763673   -0.001734
     11          8           0        0.788468   -2.147556   -0.420379
     12          8           0       -0.828013    2.935348    0.033004
     13          7           0        2.762343   -0.169208   -0.067236
     14          6           0        3.346997   -1.349442    0.578984
     15          6           0        3.709305    0.923306   -0.238058
     16          1           0       -1.594924   -2.744527   -0.089064
     17          1           0       -4.031438   -2.248818    0.068699
     18          1           0       -4.806249    0.105520    0.171313
     19          1           0       -3.135818    1.964351    0.125671
     20          1           0        1.614971    2.258678    0.044089
     21          1           0        2.601101   -2.117730    0.735871
     22          1           0        3.792740   -1.064697    1.541476
     23          1           0        4.133257   -1.760887   -0.058836
     24          1           0        3.400656    1.567819   -1.062698
     25          1           0        4.685538    0.499502   -0.476341
     26          1           0        3.811644    1.537091    0.668472
 ---------------------------------------------------------------------

 SCF Done:  E(UB3LYP) =  -669.281532131     A.U. after   16 cycles

 The electronic state is 1-A.
 Alpha  occ. eigenvalues --  -19.14014 -19.11595 -14.36453 -10.29273 -10.26887
 Alpha  occ. eigenvalues --  -10.25068 -10.20706 -10.20671 -10.20438 -10.20287
 Alpha  occ. eigenvalues --  -10.19789 -10.19764 -10.19586 -10.19472 -10.18301
 Alpha  occ. eigenvalues --   -1.07687  -1.04896  -0.97252  -0.88827  -0.82669
 Alpha  occ. eigenvalues --   -0.77701  -0.77340  -0.73443  -0.71052  -0.67412
 Alpha  occ. eigenvalues --   -0.64330  -0.61349  -0.58681  -0.54638  -0.53617
 Alpha  occ. eigenvalues --   -0.51622  -0.49474  -0.48514  -0.47319  -0.46596
 Alpha  occ. eigenvalues --   -0.45073  -0.44846  -0.44670  -0.43541  -0.42736
 Alpha  occ. eigenvalues --   -0.41789  -0.40891  -0.40624  -0.38925  -0.38147
 Alpha  occ. eigenvalues --   -0.37805  -0.36810  -0.32826  -0.28731  -0.28291
 Alpha  occ. eigenvalues --   -0.27716  -0.27095  -0.23200
 Alpha virt. eigenvalues --   -0.11812  -0.05368  -0.02525  -0.00800   0.00068
 Alpha virt. eigenvalues --    0.00985   0.01953   0.02076   0.02218   0.02875
 Alpha virt. eigenvalues --    0.03752   0.04006   0.04340   0.04665   0.04997

  Beta  occ. eigenvalues --  -19.14014 -19.11595 -14.36453 -10.29273 -10.26887
  Beta  occ. eigenvalues --  -10.25068 -10.20706 -10.20671 -10.20438 -10.20287
  Beta  occ. eigenvalues --  -10.19789 -10.19764 -10.19586 -10.19472 -10.18301
  Beta  occ. eigenvalues --   -1.07687  -1.04896  -0.97252  -0.88827  -0.82669
  Beta  occ. eigenvalues --   -0.77701  -0.77340  -0.73443  -0.71052  -0.67412
  Beta  occ. eigenvalues --   -0.64330  -0.61349  -0.58681  -0.54638  -0.53617
  Beta  occ. eigenvalues --   -0.51622  -0.49474  -0.48514  -0.47319  -0.46596
  Beta  occ. eigenvalues --   -0.45073  -0.44846  -0.44670  -0.43541  -0.42736
  Beta  occ. eigenvalues --   -0.41789  -0.40891  -0.40624  -0.38925  -0.38147
  Beta  occ. eigenvalues --   -0.37805  -0.36810  -0.32826  -0.28731  -0.28291
  Beta  occ. eigenvalues --   -0.27716  -0.27095  -0.23200
  Beta virt. eigenvalues --   -0.11812  -0.05368  -0.02525  -0.00800   0.00068
  Beta virt. eigenvalues --    0.00985   0.01953   0.02076   0.02218   0.02875
  Beta virt. eigenvalues --    0.03752   0.04006   0.04340   0.04665   0.04997

 Mulliken charges and spin densities:
               1          2
     1  C    0.196771   0.000000
     2  C   -0.404043   0.000000
     3  C   -0.391155   0.000000
     4  C    0.638839  -0.000000
     5  C    0.416326  -0.000000
     6  C    0.172112  -0.000000
     7  C   -1.023255   0.000000
     8  C   -0.476281   0.000000
     9  C    0.429305   0.000000
    10  C   -0.331354  -0.000000
    11  O   -0.254759   0.000000
    12  O   -0.349522   0.000000
    13  N    0.115470  -0.000000
    14  C   -0.421738  -0.000000
    15  C   -0.385636  -0.000000
    16  H    0.186185  -0.000000
    17  H    0.209236  -0.000000
    18  H    0.207958  -0.000000
    19  H    0.181469  -0.000000
    20  H    0.225133   0.000000
    21  H    0.171732   0.000000
    22  H    0.171840   0.000000
    23  H    0.186720  -0.000000
    24  H    0.167880  -0.000000
    25  H    0.173861  -0.000000
    26  H    0.186910   0.000000
 Sum of Mulliken charges =  -0.00000  -0.00000

 Dipole moment (field-independent basis, Debye):
    X=              2.4316    Y=             -2.8432    Z=              1.0930  Tot=              3.8976
 Quadrupole moment (field-independent basis, Debye-Ang):
   XX=            -58.2715   YY=           -103.6917   ZZ=            -90.0341
   XY=              9.3059   XZ=              1.4057   YZ=             -3.0575

 Normal termination of Gaussian 16 at Sun Jan 21 08:08:01 2024.
